;
;   File mom_tetramer_system_hmr.top  was generated
;   By user: lenny (1000)
;   On host:DESKTOP-HTCAJ46 
;   At date:Tue. September  2 14:16:35 2024 
;
;   This is a standalone topology file
;
;   Created by:
;   ParmEd:       hmr_topology, VERSION4.2.2 
;   Executable:   hmr_topology
;   Library dir:  /home/lenny/miniforge3/envs/ts_env/share/gromacs/top
;   Command line:
;     hmr_topology -t mom_tetramer_system.top -o mom_tetramer_system_hmr.top --hmr_ratio 3
;

[ defaults ]
; nbfunc        comb-rule       gen-pairs       fudgeLJ fudgeQQ
1               2               yes             0.5          0.833333    

[ atomtypes ]
; name    at.num    mass    charge ptype  sigma      epsilon
mom_tetramer.pdb_0        6  12.010780  0.00000000  A     0.33795318     0.45538912
mom_tetramer.pdb_1        8  15.999430  0.00000000  A     0.30251065     0.70485815
mom_tetramer.pdb_2        6  12.010780  0.00000000  A     0.34806469     0.36350306
mom_tetramer.pdb_3        6  12.010780  0.00000000  A     0.34806469     0.36350306
mom_tetramer.pdb_4        6  12.010780  0.00000000  A     0.34806469     0.36350306
mom_tetramer.pdb_5        6  12.010780  0.00000000  A     0.34806469     0.36350306
mom_tetramer.pdb_6        6  12.010780  0.00000000  A     0.34806469     0.36350306
mom_tetramer.pdb_7        6  12.010780  0.00000000  A     0.34806469     0.36350306
mom_tetramer.pdb_8        6  12.010780  0.00000000  A     0.34806469     0.36350306
mom_tetramer.pdb_9        6  12.010780  0.00000000  A     0.34806469     0.36350306
mom_tetramer.pdb_10        8  15.999430  0.00000000  A     0.30398122     0.87950233
mom_tetramer.pdb_11        6  12.010780  0.00000000  A     0.34806469     0.36350306
mom_tetramer.pdb_12        6  12.010780  0.00000000  A     0.34806469     0.36350306
mom_tetramer.pdb_13        6  12.010780  0.00000000  A     0.34806469     0.36350306
mom_tetramer.pdb_14        6  12.010780  0.00000000  A     0.34806469     0.36350306
mom_tetramer.pdb_15        6  12.010780  0.00000000  A     0.34806469     0.36350306
mom_tetramer.pdb_16        6  12.010780  0.00000000  A     0.34806469     0.36350306
mom_tetramer.pdb_17        6  12.010780  0.00000000  A     0.34806469     0.36350306
mom_tetramer.pdb_18        6  12.010780  0.00000000  A     0.33795318     0.45538912
mom_tetramer.pdb_19        6  12.010780  0.00000000  A     0.33795318     0.45538912
mom_tetramer.pdb_20        7  14.006720  0.00000000  A      0.3206876      0.7016213
mom_tetramer.pdb_21        6  12.010780  0.00000000  A     0.34806469     0.36350306
mom_tetramer.pdb_22        6  12.010780  0.00000000  A     0.34806469     0.36350306
mom_tetramer.pdb_23        6  12.010780  0.00000000  A     0.34806469     0.36350306
mom_tetramer.pdb_24        6  12.010780  0.00000000  A     0.34806469     0.36350306
mom_tetramer.pdb_25        1   1.007947  0.00000000  A     0.25832257    0.068656285
mom_tetramer.pdb_26        1   1.007947  0.00000000  A     0.25832257    0.068656285
mom_tetramer.pdb_27        1   1.007947  0.00000000  A     0.25832257    0.068656285
mom_tetramer.pdb_28        1   1.007947  0.00000000  A     0.25725815     0.06531786
mom_tetramer.pdb_29        1   1.007947  0.00000000  A     0.25725815     0.06531786
mom_tetramer.pdb_30        1   1.007947  0.00000000  A     0.25725815     0.06531786
mom_tetramer.pdb_31        1   1.007947  0.00000000  A     0.25725815     0.06531786
mom_tetramer.pdb_32        1   1.007947  0.00000000  A     0.25725815     0.06531786
mom_tetramer.pdb_33        1   1.007947  0.00000000  A     0.25725815     0.06531786
mom_tetramer.pdb_34        1   1.007947  0.00000000  A     0.25725815     0.06531786
mom_tetramer.pdb_35        1   1.007947  0.00000000  A     0.25832257    0.068656285
mom_tetramer.pdb_36        1   1.007947  0.00000000  A     0.26445434    0.066021356
mom_tetramer.pdb_37        1   1.007947  0.00000000  A     0.26445434    0.066021356
mom_tetramer.pdb_38        1   1.007947  0.00000000  A     0.26445434    0.066021356
mom_tetramer.pdb_39        1   1.007947  0.00000000  A     0.11034277    0.058955969
mom_tetramer.pdb_40        1   1.007947  0.00000000  A     0.25725815     0.06531786
mom_tetramer.pdb_41        1   1.007947  0.00000000  A     0.25725815     0.06531786
mom_tetramer.pdb_42        1   1.007947  0.00000000  A     0.25725815     0.06531786
mom_tetramer.pdb_43        1   1.007947  0.00000000  A     0.25725815     0.06531786
mom_tetramer.pdb_44        6  12.010780  0.00000000  A     0.33795318     0.45538912
mom_tetramer.pdb_45        8  15.999430  0.00000000  A     0.30251065     0.70485815
mom_tetramer.pdb_46        6  12.010780  0.00000000  A     0.34806469     0.36350306
mom_tetramer.pdb_47        6  12.010780  0.00000000  A     0.34806469     0.36350306
mom_tetramer.pdb_48        6  12.010780  0.00000000  A     0.34806469     0.36350306
mom_tetramer.pdb_49        6  12.010780  0.00000000  A     0.34806469     0.36350306
mom_tetramer.pdb_50        6  12.010780  0.00000000  A     0.34806469     0.36350306
mom_tetramer.pdb_51        6  12.010780  0.00000000  A     0.34806469     0.36350306
mom_tetramer.pdb_52        6  12.010780  0.00000000  A     0.34806469     0.36350306
mom_tetramer.pdb_53        6  12.010780  0.00000000  A     0.34806469     0.36350306
mom_tetramer.pdb_54        8  15.999430  0.00000000  A     0.30398122     0.87950233
mom_tetramer.pdb_55        6  12.010780  0.00000000  A     0.34806469     0.36350306
mom_tetramer.pdb_56        6  12.010780  0.00000000  A     0.34806469     0.36350306
mom_tetramer.pdb_57        6  12.010780  0.00000000  A     0.34806469     0.36350306
mom_tetramer.pdb_58        6  12.010780  0.00000000  A     0.34806469     0.36350306
mom_tetramer.pdb_59        6  12.010780  0.00000000  A     0.34806469     0.36350306
mom_tetramer.pdb_60        6  12.010780  0.00000000  A     0.34806469     0.36350306
mom_tetramer.pdb_61        6  12.010780  0.00000000  A     0.34806469     0.36350306
mom_tetramer.pdb_62        6  12.010780  0.00000000  A     0.33795318     0.45538912
mom_tetramer.pdb_63        6  12.010780  0.00000000  A     0.33795318     0.45538912
mom_tetramer.pdb_64        7  14.006720  0.00000000  A      0.3206876      0.7016213
mom_tetramer.pdb_65        6  12.010780  0.00000000  A     0.34806469     0.36350306
mom_tetramer.pdb_66        6  12.010780  0.00000000  A     0.34806469     0.36350306
mom_tetramer.pdb_67        6  12.010780  0.00000000  A     0.34806469     0.36350306
mom_tetramer.pdb_68        6  12.010780  0.00000000  A     0.34806469     0.36350306
mom_tetramer.pdb_69        1   1.007947  0.00000000  A     0.25832257    0.068656285
mom_tetramer.pdb_70        1   1.007947  0.00000000  A     0.25832257    0.068656285
mom_tetramer.pdb_71        1   1.007947  0.00000000  A     0.25832257    0.068656285
mom_tetramer.pdb_72        1   1.007947  0.00000000  A     0.25725815     0.06531786
mom_tetramer.pdb_73        1   1.007947  0.00000000  A     0.25725815     0.06531786
mom_tetramer.pdb_74        1   1.007947  0.00000000  A     0.25725815     0.06531786
mom_tetramer.pdb_75        1   1.007947  0.00000000  A     0.25725815     0.06531786
mom_tetramer.pdb_76        1   1.007947  0.00000000  A     0.25725815     0.06531786
mom_tetramer.pdb_77        1   1.007947  0.00000000  A     0.25725815     0.06531786
mom_tetramer.pdb_78        1   1.007947  0.00000000  A     0.25725815     0.06531786
mom_tetramer.pdb_79        1   1.007947  0.00000000  A     0.25832257    0.068656285
mom_tetramer.pdb_80        1   1.007947  0.00000000  A     0.26445434    0.066021356
mom_tetramer.pdb_81        1   1.007947  0.00000000  A     0.26445434    0.066021356
mom_tetramer.pdb_82        1   1.007947  0.00000000  A     0.26445434    0.066021356
mom_tetramer.pdb_83        1   1.007947  0.00000000  A     0.11034277    0.058955969
mom_tetramer.pdb_84        1   1.007947  0.00000000  A     0.25725815     0.06531786
mom_tetramer.pdb_85        1   1.007947  0.00000000  A     0.25725815     0.06531786
mom_tetramer.pdb_86        1   1.007947  0.00000000  A     0.25725815     0.06531786
mom_tetramer.pdb_87        1   1.007947  0.00000000  A     0.25725815     0.06531786
mom_tetramer.pdb_88        6  12.010780  0.00000000  A     0.33795318     0.45538912
mom_tetramer.pdb_89        8  15.999430  0.00000000  A     0.30251065     0.70485815
mom_tetramer.pdb_90        6  12.010780  0.00000000  A     0.34806469     0.36350306
mom_tetramer.pdb_91        6  12.010780  0.00000000  A     0.34806469     0.36350306
mom_tetramer.pdb_92        6  12.010780  0.00000000  A     0.34806469     0.36350306
mom_tetramer.pdb_93        6  12.010780  0.00000000  A     0.34806469     0.36350306
mom_tetramer.pdb_94        6  12.010780  0.00000000  A     0.34806469     0.36350306
mom_tetramer.pdb_95        6  12.010780  0.00000000  A     0.34806469     0.36350306
mom_tetramer.pdb_96        6  12.010780  0.00000000  A     0.34806469     0.36350306
mom_tetramer.pdb_97        6  12.010780  0.00000000  A     0.34806469     0.36350306
mom_tetramer.pdb_98        8  15.999430  0.00000000  A     0.30398122     0.87950233
mom_tetramer.pdb_99        6  12.010780  0.00000000  A     0.34806469     0.36350306
mom_tetramer.pdb_100        6  12.010780  0.00000000  A     0.34806469     0.36350306
mom_tetramer.pdb_101        6  12.010780  0.00000000  A     0.34806469     0.36350306
mom_tetramer.pdb_102        6  12.010780  0.00000000  A     0.34806469     0.36350306
mom_tetramer.pdb_103        6  12.010780  0.00000000  A     0.34806469     0.36350306
mom_tetramer.pdb_104        6  12.010780  0.00000000  A     0.34806469     0.36350306
mom_tetramer.pdb_105        6  12.010780  0.00000000  A     0.34806469     0.36350306
mom_tetramer.pdb_106        6  12.010780  0.00000000  A     0.33795318     0.45538912
mom_tetramer.pdb_107        6  12.010780  0.00000000  A     0.33795318     0.45538912
mom_tetramer.pdb_108        7  14.006720  0.00000000  A      0.3206876      0.7016213
mom_tetramer.pdb_109        6  12.010780  0.00000000  A     0.34806469     0.36350306
mom_tetramer.pdb_110        6  12.010780  0.00000000  A     0.34806469     0.36350306
mom_tetramer.pdb_111        6  12.010780  0.00000000  A     0.34806469     0.36350306
mom_tetramer.pdb_112        6  12.010780  0.00000000  A     0.34806469     0.36350306
mom_tetramer.pdb_113        1   1.007947  0.00000000  A     0.25832257    0.068656285
mom_tetramer.pdb_114        1   1.007947  0.00000000  A     0.25832257    0.068656285
mom_tetramer.pdb_115        1   1.007947  0.00000000  A     0.25832257    0.068656285
mom_tetramer.pdb_116        1   1.007947  0.00000000  A     0.25725815     0.06531786
mom_tetramer.pdb_117        1   1.007947  0.00000000  A     0.25725815     0.06531786
mom_tetramer.pdb_118        1   1.007947  0.00000000  A     0.25725815     0.06531786
mom_tetramer.pdb_119        1   1.007947  0.00000000  A     0.25725815     0.06531786
mom_tetramer.pdb_120        1   1.007947  0.00000000  A     0.25725815     0.06531786
mom_tetramer.pdb_121        1   1.007947  0.00000000  A     0.25725815     0.06531786
mom_tetramer.pdb_122        1   1.007947  0.00000000  A     0.25725815     0.06531786
mom_tetramer.pdb_123        1   1.007947  0.00000000  A     0.25832257    0.068656285
mom_tetramer.pdb_124        1   1.007947  0.00000000  A     0.26445434    0.066021356
mom_tetramer.pdb_125        1   1.007947  0.00000000  A     0.26445434    0.066021356
mom_tetramer.pdb_126        1   1.007947  0.00000000  A     0.26445434    0.066021356
mom_tetramer.pdb_127        1   1.007947  0.00000000  A     0.11034277    0.058955969
mom_tetramer.pdb_128        1   1.007947  0.00000000  A     0.25725815     0.06531786
mom_tetramer.pdb_129        1   1.007947  0.00000000  A     0.25725815     0.06531786
mom_tetramer.pdb_130        1   1.007947  0.00000000  A     0.25725815     0.06531786
mom_tetramer.pdb_131        1   1.007947  0.00000000  A     0.25725815     0.06531786
mom_tetramer.pdb_132        6  12.010780  0.00000000  A     0.33795318     0.45538912
mom_tetramer.pdb_133        8  15.999430  0.00000000  A     0.30251065     0.70485815
mom_tetramer.pdb_134        6  12.010780  0.00000000  A     0.34806469     0.36350306
mom_tetramer.pdb_135        6  12.010780  0.00000000  A     0.34806469     0.36350306
mom_tetramer.pdb_136        6  12.010780  0.00000000  A     0.34806469     0.36350306
mom_tetramer.pdb_137        6  12.010780  0.00000000  A     0.34806469     0.36350306
mom_tetramer.pdb_138        6  12.010780  0.00000000  A     0.34806469     0.36350306
mom_tetramer.pdb_139        6  12.010780  0.00000000  A     0.34806469     0.36350306
mom_tetramer.pdb_140        6  12.010780  0.00000000  A     0.34806469     0.36350306
mom_tetramer.pdb_141        6  12.010780  0.00000000  A     0.34806469     0.36350306
mom_tetramer.pdb_142        8  15.999430  0.00000000  A     0.30398122     0.87950233
mom_tetramer.pdb_143        6  12.010780  0.00000000  A     0.34806469     0.36350306
mom_tetramer.pdb_144        6  12.010780  0.00000000  A     0.34806469     0.36350306
mom_tetramer.pdb_145        6  12.010780  0.00000000  A     0.34806469     0.36350306
mom_tetramer.pdb_146        6  12.010780  0.00000000  A     0.34806469     0.36350306
mom_tetramer.pdb_147        6  12.010780  0.00000000  A     0.34806469     0.36350306
mom_tetramer.pdb_148        6  12.010780  0.00000000  A     0.34806469     0.36350306
mom_tetramer.pdb_149        6  12.010780  0.00000000  A     0.34806469     0.36350306
mom_tetramer.pdb_150        6  12.010780  0.00000000  A     0.33795318     0.45538912
mom_tetramer.pdb_151        6  12.010780  0.00000000  A     0.33795318     0.45538912
mom_tetramer.pdb_152        7  14.006720  0.00000000  A      0.3206876      0.7016213
mom_tetramer.pdb_153        6  12.010780  0.00000000  A     0.34806469     0.36350306
mom_tetramer.pdb_154        6  12.010780  0.00000000  A     0.34806469     0.36350306
mom_tetramer.pdb_155        6  12.010780  0.00000000  A     0.34806469     0.36350306
mom_tetramer.pdb_156        6  12.010780  0.00000000  A     0.34806469     0.36350306
mom_tetramer.pdb_157        1   1.007947  0.00000000  A     0.25832257    0.068656285
mom_tetramer.pdb_158        1   1.007947  0.00000000  A     0.25832257    0.068656285
mom_tetramer.pdb_159        1   1.007947  0.00000000  A     0.25832257    0.068656285
mom_tetramer.pdb_160        1   1.007947  0.00000000  A     0.25725815     0.06531786
mom_tetramer.pdb_161        1   1.007947  0.00000000  A     0.25725815     0.06531786
mom_tetramer.pdb_162        1   1.007947  0.00000000  A     0.25725815     0.06531786
mom_tetramer.pdb_163        1   1.007947  0.00000000  A     0.25725815     0.06531786
mom_tetramer.pdb_164        1   1.007947  0.00000000  A     0.25725815     0.06531786
mom_tetramer.pdb_165        1   1.007947  0.00000000  A     0.25725815     0.06531786
mom_tetramer.pdb_166        1   1.007947  0.00000000  A     0.25725815     0.06531786
mom_tetramer.pdb_167        1   1.007947  0.00000000  A     0.25832257    0.068656285
mom_tetramer.pdb_168        1   1.007947  0.00000000  A     0.26445434    0.066021356
mom_tetramer.pdb_169        1   1.007947  0.00000000  A     0.26445434    0.066021356
mom_tetramer.pdb_170        1   1.007947  0.00000000  A     0.26445434    0.066021356
mom_tetramer.pdb_171        1   1.007947  0.00000000  A     0.11034277    0.058955969
mom_tetramer.pdb_172        1   1.007947  0.00000000  A     0.25725815     0.06531786
mom_tetramer.pdb_173        1   1.007947  0.00000000  A     0.25725815     0.06531786
mom_tetramer.pdb_174        1   1.007947  0.00000000  A     0.25725815     0.06531786
mom_tetramer.pdb_175        1   1.007947  0.00000000  A     0.25725815     0.06531786
mom_tetramer.pdb_176        6  12.010780  0.00000000  A     0.33795318     0.45538912
mom_tetramer.pdb_177        8  15.999430  0.00000000  A     0.30251065     0.70485815
mom_tetramer.pdb_178        1   1.007947  0.00000000  A     0.25832257    0.068656285
mom_tetramer.pdb_179        1   1.007947  0.00000000  A     0.25832257    0.068656285
mom_tetramer.pdb_180        1   1.007947  0.00000000  A     0.25832257    0.068656285
mom_tetramer.pdb_181        6  12.010780  0.00000000  A     0.33795318     0.45538912
mom_tetramer.pdb_182        6  12.010780  0.00000000  A     0.33795318     0.45538912
mom_tetramer.pdb_183        6  12.010780  0.00000000  A     0.33795318     0.45538912
mom_tetramer.pdb_184        6  12.010780  0.00000000  A     0.33795318     0.45538912
mom_tetramer.pdb_185        8  15.999430  0.00000000  A     0.30251065     0.70485815
mom_tetramer.pdb_186        6  12.010780  0.00000000  A     0.34806469     0.36350306
mom_tetramer.pdb_187        8  15.999430  0.00000000  A     0.30398122     0.87950233
mom_tetramer.pdb_188        1   1.007947  0.00000000  A     0.26445434    0.066021356
mom_tetramer.pdb_189        1   1.007947  0.00000000  A     0.26445434    0.066021356
mom_tetramer.pdb_190        1   1.007947  0.00000000  A     0.26445434    0.066021356
mom_tetramer.pdb_191        1   1.007947  0.00000000  A     0.26445434    0.066021356
mom_tetramer.pdb_192        1   1.007947  0.00000000  A     0.26445434    0.066021356
mom_tetramer.pdb_193        1   1.007947  0.00000000  A     0.26445434    0.066021356
mom_tetramer.pdb_194        1   1.007947  0.00000000  A     0.26445434    0.066021356
mom_tetramer.pdb_195        1   1.007947  0.00000000  A     0.26445434    0.066021356
mom_tetramer.pdb_196        1   1.007947  0.00000000  A     0.26445434    0.066021356
MOL1_0        17  35.453200  0.00000000  A     0.33075278      1.1112708
MOL1_1         6  12.010780  0.00000000  A     0.33795318     0.45538912
MOL1_2        17  35.453200  0.00000000  A     0.33075278      1.1112708
MOL1_3        17  35.453200  0.00000000  A     0.33075278      1.1112708
MOL1_4         1   1.007947  0.00000000  A     0.21149936      0.0656888


[ moleculetype ]
; Name            nrexcl
mom_tetramer.pdb          3

[ atoms ]
;   nr       type  resnr residue  atom   cgnr    charge       mass  typeB    chargeB      massB
; residue    1 mom_tetramer.pdb rtp mom_tetramer.pdb q 0.0
    1 mom_tetramer.pdb_0      1 mom_tetramer.pdb      C      1 0.10718000   5.963098   ; qtot 0.107180
    2 mom_tetramer.pdb_1      1 mom_tetramer.pdb      O      2 -0.31812999  15.999430   ; qtot -0.210950
    3 mom_tetramer.pdb_2      1 mom_tetramer.pdb      C      3 0.12445000  12.010780   ; qtot -0.086500
    4 mom_tetramer.pdb_3      1 mom_tetramer.pdb      C      4 -0.20432000   9.994886   ; qtot -0.290820
    5 mom_tetramer.pdb_4      1 mom_tetramer.pdb      C      5 -0.08763000   9.994886   ; qtot -0.378450
    6 mom_tetramer.pdb_5      1 mom_tetramer.pdb      C      6 -0.06889000  12.010780   ; qtot -0.447340
    7 mom_tetramer.pdb_6      1 mom_tetramer.pdb      C      7 -0.05333000  12.010780   ; qtot -0.500670
    8 mom_tetramer.pdb_7      1 mom_tetramer.pdb      C      8 -0.05010000   9.994886   ; qtot -0.550770
    9 mom_tetramer.pdb_8      1 mom_tetramer.pdb      C      9 -0.13202000  12.010780   ; qtot -0.682790
   10 mom_tetramer.pdb_9      1 mom_tetramer.pdb      C     10 0.65122002  12.010780   ; qtot -0.031570
   11 mom_tetramer.pdb_10      1 mom_tetramer.pdb      O     11 -0.56110001  15.999430   ; qtot -0.592670
   12 mom_tetramer.pdb_11      1 mom_tetramer.pdb      C     12 -0.07138000   9.994886   ; qtot -0.664050
   13 mom_tetramer.pdb_12      1 mom_tetramer.pdb      C     13 -0.15027000   9.994886   ; qtot -0.814320
   14 mom_tetramer.pdb_13      1 mom_tetramer.pdb      C     14 -0.08352000   9.994886   ; qtot -0.897840
   15 mom_tetramer.pdb_14      1 mom_tetramer.pdb      C     15 0.00908000  12.010780   ; qtot -0.888760
   16 mom_tetramer.pdb_15      1 mom_tetramer.pdb      C     16 -0.04736000  12.010780   ; qtot -0.936120
   17 mom_tetramer.pdb_16      1 mom_tetramer.pdb      C     17 -0.09119000   9.994886   ; qtot -1.027310
   18 mom_tetramer.pdb_17      1 mom_tetramer.pdb      C     18 -0.10590000  12.010780   ; qtot -1.133210
   19 mom_tetramer.pdb_18      1 mom_tetramer.pdb      C     19 0.15159000   9.994886   ; qtot -0.981620
   20 mom_tetramer.pdb_19      1 mom_tetramer.pdb      C     20 -0.10422000   5.963098   ; qtot -1.085840
   21 mom_tetramer.pdb_20      1 mom_tetramer.pdb      N     21 -0.56185001  11.990826   ; qtot -1.647690
   22 mom_tetramer.pdb_21      1 mom_tetramer.pdb      C     22 -0.11673000   9.994886   ; qtot -1.764420
   23 mom_tetramer.pdb_22      1 mom_tetramer.pdb      C     23 -0.13414000   9.994886   ; qtot -1.898560
   24 mom_tetramer.pdb_23      1 mom_tetramer.pdb      C     24 -0.11164000   9.994886   ; qtot -2.010200
   25 mom_tetramer.pdb_24      1 mom_tetramer.pdb      C     25 -0.14320000   9.994886   ; qtot -2.153400
   26 mom_tetramer.pdb_25      1 mom_tetramer.pdb      H     26 0.04434000   3.023841   ; qtot -2.109060
   27 mom_tetramer.pdb_26      1 mom_tetramer.pdb      H     27 0.04434000   3.023841   ; qtot -2.064720
   28 mom_tetramer.pdb_27      1 mom_tetramer.pdb      H     28 0.04434000   3.023841   ; qtot -2.020380
   29 mom_tetramer.pdb_28      1 mom_tetramer.pdb      H     29 0.14045000   3.023841   ; qtot -1.879930
   30 mom_tetramer.pdb_29      1 mom_tetramer.pdb      H     30 0.13901000   3.023841   ; qtot -1.740920
   31 mom_tetramer.pdb_30      1 mom_tetramer.pdb      H     31 0.16237999   3.023841   ; qtot -1.578540
   32 mom_tetramer.pdb_31      1 mom_tetramer.pdb      H     32 0.15284000   3.023841   ; qtot -1.425700
   33 mom_tetramer.pdb_32      1 mom_tetramer.pdb      H     33 0.13801999   3.023841   ; qtot -1.287680
   34 mom_tetramer.pdb_33      1 mom_tetramer.pdb      H     34 0.13847999   3.023841   ; qtot -1.149200
   35 mom_tetramer.pdb_34      1 mom_tetramer.pdb      H     35 0.14736000   3.023841   ; qtot -1.001840
   36 mom_tetramer.pdb_35      1 mom_tetramer.pdb      H     36 0.08913000   3.023841   ; qtot -0.912710
   37 mom_tetramer.pdb_36      1 mom_tetramer.pdb      H     37 0.04492000   3.023841   ; qtot -0.867790
   38 mom_tetramer.pdb_37      1 mom_tetramer.pdb      H     38 0.04492000   3.023841   ; qtot -0.822870
   39 mom_tetramer.pdb_38      1 mom_tetramer.pdb      H     39 0.04492000   3.023841   ; qtot -0.777950
   40 mom_tetramer.pdb_39      1 mom_tetramer.pdb      H     40 0.30726001   3.023841   ; qtot -0.470690
   41 mom_tetramer.pdb_40      1 mom_tetramer.pdb      H     41 0.12730999   3.023841   ; qtot -0.343380
   42 mom_tetramer.pdb_41      1 mom_tetramer.pdb      H     42 0.13041000   3.023841   ; qtot -0.212970
   43 mom_tetramer.pdb_42      1 mom_tetramer.pdb      H     43 0.13325000   3.023841   ; qtot -0.079720
   44 mom_tetramer.pdb_43      1 mom_tetramer.pdb      H     44 0.15684000   3.023841   ; qtot 0.077120
   45 mom_tetramer.pdb_44      1 mom_tetramer.pdb      C     45 0.11349000   5.963098   ; qtot 0.190610
   46 mom_tetramer.pdb_45      1 mom_tetramer.pdb      O     46 -0.32670000  15.999430   ; qtot -0.136090
   47 mom_tetramer.pdb_46      1 mom_tetramer.pdb      C     47 0.12455000  12.010780   ; qtot -0.011540
   48 mom_tetramer.pdb_47      1 mom_tetramer.pdb      C     48 -0.20440000   9.994886   ; qtot -0.215940
   49 mom_tetramer.pdb_48      1 mom_tetramer.pdb      C     49 -0.08652000   9.994886   ; qtot -0.302460
   50 mom_tetramer.pdb_49      1 mom_tetramer.pdb      C     50 -0.06303000  12.010780   ; qtot -0.365490
   51 mom_tetramer.pdb_50      1 mom_tetramer.pdb      C     51 -0.05098000  12.010780   ; qtot -0.416470
   52 mom_tetramer.pdb_51      1 mom_tetramer.pdb      C     52 -0.08520000   9.994886   ; qtot -0.501670
   53 mom_tetramer.pdb_52      1 mom_tetramer.pdb      C     53 -0.13891000  12.010780   ; qtot -0.640580
   54 mom_tetramer.pdb_53      1 mom_tetramer.pdb      C     54 0.68971002  12.010780   ; qtot 0.049130
   55 mom_tetramer.pdb_54      1 mom_tetramer.pdb      O     55 -0.61495000  15.999430   ; qtot -0.565820
   56 mom_tetramer.pdb_55      1 mom_tetramer.pdb      C     56 -0.07595000   9.994886   ; qtot -0.641770
   57 mom_tetramer.pdb_56      1 mom_tetramer.pdb      C     57 -0.13991000   9.994886   ; qtot -0.781680
   58 mom_tetramer.pdb_57      1 mom_tetramer.pdb      C     58 -0.09724000   9.994886   ; qtot -0.878920
   59 mom_tetramer.pdb_58      1 mom_tetramer.pdb      C     59 0.00552000  12.010780   ; qtot -0.873400
   60 mom_tetramer.pdb_59      1 mom_tetramer.pdb      C     60 -0.04377000  12.010780   ; qtot -0.917170
   61 mom_tetramer.pdb_60      1 mom_tetramer.pdb      C     61 -0.08934000   9.994886   ; qtot -1.006510
   62 mom_tetramer.pdb_61      1 mom_tetramer.pdb      C     62 -0.11084000  12.010780   ; qtot -1.117350
   63 mom_tetramer.pdb_62      1 mom_tetramer.pdb      C     63 0.15214001   9.994886   ; qtot -0.965210
   64 mom_tetramer.pdb_63      1 mom_tetramer.pdb      C     64 -0.10308000   5.963098   ; qtot -1.068290
   65 mom_tetramer.pdb_64      1 mom_tetramer.pdb      N     65 -0.56821001  11.990826   ; qtot -1.636500
   66 mom_tetramer.pdb_65      1 mom_tetramer.pdb      C     66 -0.11584000   9.994886   ; qtot -1.752340
   67 mom_tetramer.pdb_66      1 mom_tetramer.pdb      C     67 -0.13214999   9.994886   ; qtot -1.884490
   68 mom_tetramer.pdb_67      1 mom_tetramer.pdb      C     68 -0.10652000   9.994886   ; qtot -1.991010
   69 mom_tetramer.pdb_68      1 mom_tetramer.pdb      C     69 -0.14583001   9.994886   ; qtot -2.136840
   70 mom_tetramer.pdb_69      1 mom_tetramer.pdb      H     70 0.04453000   3.023841   ; qtot -2.092310
   71 mom_tetramer.pdb_70      1 mom_tetramer.pdb      H     71 0.04453000   3.023841   ; qtot -2.047780
   72 mom_tetramer.pdb_71      1 mom_tetramer.pdb      H     72 0.04453000   3.023841   ; qtot -2.003250
   73 mom_tetramer.pdb_72      1 mom_tetramer.pdb      H     73 0.13914999   3.023841   ; qtot -1.864100
   74 mom_tetramer.pdb_73      1 mom_tetramer.pdb      H     74 0.13910000   3.023841   ; qtot -1.725000
   75 mom_tetramer.pdb_74      1 mom_tetramer.pdb      H     75 0.14391001   3.023841   ; qtot -1.581090
   76 mom_tetramer.pdb_75      1 mom_tetramer.pdb      H     76 0.16122000   3.023841   ; qtot -1.419870
   77 mom_tetramer.pdb_76      1 mom_tetramer.pdb      H     77 0.14211001   3.023841   ; qtot -1.277760
   78 mom_tetramer.pdb_77      1 mom_tetramer.pdb      H     78 0.13527000   3.023841   ; qtot -1.142490
   79 mom_tetramer.pdb_78      1 mom_tetramer.pdb      H     79 0.14410000   3.023841   ; qtot -0.998390
   80 mom_tetramer.pdb_79      1 mom_tetramer.pdb      H     80 0.08279000   3.023841   ; qtot -0.915600
   81 mom_tetramer.pdb_80      1 mom_tetramer.pdb      H     81 0.04487000   3.023841   ; qtot -0.870730
   82 mom_tetramer.pdb_81      1 mom_tetramer.pdb      H     82 0.04487000   3.023841   ; qtot -0.825860
   83 mom_tetramer.pdb_82      1 mom_tetramer.pdb      H     83 0.04487000   3.023841   ; qtot -0.780990
   84 mom_tetramer.pdb_83      1 mom_tetramer.pdb      H     84 0.30551001   3.023841   ; qtot -0.475480
   85 mom_tetramer.pdb_84      1 mom_tetramer.pdb      H     85 0.12543000   3.023841   ; qtot -0.350050
   86 mom_tetramer.pdb_85      1 mom_tetramer.pdb      H     86 0.13237999   3.023841   ; qtot -0.217670
   87 mom_tetramer.pdb_86      1 mom_tetramer.pdb      H     87 0.13564000   3.023841   ; qtot -0.082030
   88 mom_tetramer.pdb_87      1 mom_tetramer.pdb      H     88 0.15549000   3.023841   ; qtot 0.073460
   89 mom_tetramer.pdb_88      1 mom_tetramer.pdb      C     89 0.11261000   5.963098   ; qtot 0.186070
   90 mom_tetramer.pdb_89      1 mom_tetramer.pdb      O     90 -0.32034001  15.999430   ; qtot -0.134270
   91 mom_tetramer.pdb_90      1 mom_tetramer.pdb      C     91 0.12408000  12.010780   ; qtot -0.010190
   92 mom_tetramer.pdb_91      1 mom_tetramer.pdb      C     92 -0.14952999   9.994886   ; qtot -0.159720
   93 mom_tetramer.pdb_92      1 mom_tetramer.pdb      C     93 -0.08096000   9.994886   ; qtot -0.240680
   94 mom_tetramer.pdb_93      1 mom_tetramer.pdb      C     94 -0.06586000  12.010780   ; qtot -0.306540
   95 mom_tetramer.pdb_94      1 mom_tetramer.pdb      C     95 -0.03863000  12.010780   ; qtot -0.345170
   96 mom_tetramer.pdb_95      1 mom_tetramer.pdb      C     96 -0.04599000   9.994886   ; qtot -0.391160
   97 mom_tetramer.pdb_96      1 mom_tetramer.pdb      C     97 -0.13744000  12.010780   ; qtot -0.528600
   98 mom_tetramer.pdb_97      1 mom_tetramer.pdb      C     98 0.68065000  12.010780   ; qtot 0.152050
   99 mom_tetramer.pdb_98      1 mom_tetramer.pdb      O     99 -0.60667002  15.999430   ; qtot -0.454620
  100 mom_tetramer.pdb_99      1 mom_tetramer.pdb      C    100 -0.10429000   9.994886   ; qtot -0.558910
  101 mom_tetramer.pdb_100      1 mom_tetramer.pdb      C    101 -0.14498000   9.994886   ; qtot -0.703890
  102 mom_tetramer.pdb_101      1 mom_tetramer.pdb      C    102 -0.09574000   9.994886   ; qtot -0.799630
  103 mom_tetramer.pdb_102      1 mom_tetramer.pdb      C    103 -0.00171000  12.010780   ; qtot -0.801340
  104 mom_tetramer.pdb_103      1 mom_tetramer.pdb      C    104 -0.03919000  12.010780   ; qtot -0.840530
  105 mom_tetramer.pdb_104      1 mom_tetramer.pdb      C    105 -0.11692000   9.994886   ; qtot -0.957450
  106 mom_tetramer.pdb_105      1 mom_tetramer.pdb      C    106 -0.09930000  12.010780   ; qtot -1.056750
  107 mom_tetramer.pdb_106      1 mom_tetramer.pdb      C    107 0.15234999   9.994886   ; qtot -0.904400
  108 mom_tetramer.pdb_107      1 mom_tetramer.pdb      C    108 -0.11294000   5.963098   ; qtot -1.017340
  109 mom_tetramer.pdb_108      1 mom_tetramer.pdb      N    109 -0.57093000  11.990826   ; qtot -1.588270
  110 mom_tetramer.pdb_109      1 mom_tetramer.pdb      C    110 -0.11122000   9.994886   ; qtot -1.699490
  111 mom_tetramer.pdb_110      1 mom_tetramer.pdb      C    111 -0.12983000   9.994886   ; qtot -1.829320
  112 mom_tetramer.pdb_111      1 mom_tetramer.pdb      C    112 -0.10774000   9.994886   ; qtot -1.937060
  113 mom_tetramer.pdb_112      1 mom_tetramer.pdb      C    113 -0.21028000   9.994886   ; qtot -2.147340
  114 mom_tetramer.pdb_113      1 mom_tetramer.pdb      H    114 0.04437000   3.023841   ; qtot -2.102970
  115 mom_tetramer.pdb_114      1 mom_tetramer.pdb      H    115 0.04437000   3.023841   ; qtot -2.058600
  116 mom_tetramer.pdb_115      1 mom_tetramer.pdb      H    116 0.04437000   3.023841   ; qtot -2.014230
  117 mom_tetramer.pdb_116      1 mom_tetramer.pdb      H    117 0.15617000   3.023841   ; qtot -1.858060
  118 mom_tetramer.pdb_117      1 mom_tetramer.pdb      H    118 0.16029000   3.023841   ; qtot -1.697770
  119 mom_tetramer.pdb_118      1 mom_tetramer.pdb      H    119 0.16165000   3.023841   ; qtot -1.536120
  120 mom_tetramer.pdb_119      1 mom_tetramer.pdb      H    120 0.12825000   3.023841   ; qtot -1.407870
  121 mom_tetramer.pdb_120      1 mom_tetramer.pdb      H    121 0.13403000   3.023841   ; qtot -1.273840
  122 mom_tetramer.pdb_121      1 mom_tetramer.pdb      H    122 0.13549000   3.023841   ; qtot -1.138350
  123 mom_tetramer.pdb_122      1 mom_tetramer.pdb      H    123 0.13318001   3.023841   ; qtot -1.005170
  124 mom_tetramer.pdb_123      1 mom_tetramer.pdb      H    124 0.08646000   3.023841   ; qtot -0.918710
  125 mom_tetramer.pdb_124      1 mom_tetramer.pdb      H    125 0.04502000   3.023841   ; qtot -0.873690
  126 mom_tetramer.pdb_125      1 mom_tetramer.pdb      H    126 0.04502000   3.023841   ; qtot -0.828670
  127 mom_tetramer.pdb_126      1 mom_tetramer.pdb      H    127 0.04502000   3.023841   ; qtot -0.783650
  128 mom_tetramer.pdb_127      1 mom_tetramer.pdb      H    128 0.31044000   3.023841   ; qtot -0.473210
  129 mom_tetramer.pdb_128      1 mom_tetramer.pdb      H    129 0.13818000   3.023841   ; qtot -0.335030
  130 mom_tetramer.pdb_129      1 mom_tetramer.pdb      H    130 0.13559000   3.023841   ; qtot -0.199440
  131 mom_tetramer.pdb_130      1 mom_tetramer.pdb      H    131 0.14076000   3.023841   ; qtot -0.058680
  132 mom_tetramer.pdb_131      1 mom_tetramer.pdb      H    132 0.14191000   3.023841   ; qtot 0.083230
  133 mom_tetramer.pdb_132      1 mom_tetramer.pdb      C    133 0.11202000   5.963098   ; qtot 0.195250
  134 mom_tetramer.pdb_133      1 mom_tetramer.pdb      O    134 -0.32611999  15.999430   ; qtot -0.130870
  135 mom_tetramer.pdb_134      1 mom_tetramer.pdb      C    135 0.12470000  12.010780   ; qtot -0.006170
  136 mom_tetramer.pdb_135      1 mom_tetramer.pdb      C    136 -0.20392001   9.994886   ; qtot -0.210090
  137 mom_tetramer.pdb_136      1 mom_tetramer.pdb      C    137 -0.08330000   9.994886   ; qtot -0.293390
  138 mom_tetramer.pdb_137      1 mom_tetramer.pdb      C    138 -0.07164000  12.010780   ; qtot -0.365030
  139 mom_tetramer.pdb_138      1 mom_tetramer.pdb      C    139 -0.04275000  12.010780   ; qtot -0.407780
  140 mom_tetramer.pdb_139      1 mom_tetramer.pdb      C    140 -0.09271000   9.994886   ; qtot -0.500490
  141 mom_tetramer.pdb_140      1 mom_tetramer.pdb      C    141 -0.14381000  12.010780   ; qtot -0.644300
  142 mom_tetramer.pdb_141      1 mom_tetramer.pdb      C    142 0.67435998  12.010780   ; qtot 0.030060
  143 mom_tetramer.pdb_142      1 mom_tetramer.pdb      O    143 -0.60829997  15.999430   ; qtot -0.578240
  144 mom_tetramer.pdb_143      1 mom_tetramer.pdb      C    144 -0.07405000   9.994886   ; qtot -0.652290
  145 mom_tetramer.pdb_144      1 mom_tetramer.pdb      C    145 -0.14070000   9.994886   ; qtot -0.792990
  146 mom_tetramer.pdb_145      1 mom_tetramer.pdb      C    146 -0.09099000   9.994886   ; qtot -0.883980
  147 mom_tetramer.pdb_146      1 mom_tetramer.pdb      C    147 0.00657000  12.010780   ; qtot -0.877410
  148 mom_tetramer.pdb_147      1 mom_tetramer.pdb      C    148 -0.04543000  12.010780   ; qtot -0.922840
  149 mom_tetramer.pdb_148      1 mom_tetramer.pdb      C    149 -0.10498000   9.994886   ; qtot -1.027820
  150 mom_tetramer.pdb_149      1 mom_tetramer.pdb      C    150 -0.11747000  12.010780   ; qtot -1.145290
  151 mom_tetramer.pdb_150      1 mom_tetramer.pdb      C    151 0.16057999   9.994886   ; qtot -0.984710
  152 mom_tetramer.pdb_151      1 mom_tetramer.pdb      C    152 -0.10291000   5.963098   ; qtot -1.087620
  153 mom_tetramer.pdb_152      1 mom_tetramer.pdb      N    153 -0.54900002  11.990826   ; qtot -1.636620
  154 mom_tetramer.pdb_153      1 mom_tetramer.pdb      C    154 -0.09893000   9.994886   ; qtot -1.735550
  155 mom_tetramer.pdb_154      1 mom_tetramer.pdb      C    155 -0.13083000   9.994886   ; qtot -1.866380
  156 mom_tetramer.pdb_155      1 mom_tetramer.pdb      C    156 -0.10629000   9.994886   ; qtot -1.972670
  157 mom_tetramer.pdb_156      1 mom_tetramer.pdb      C    157 -0.14680000   9.994886   ; qtot -2.119470
  158 mom_tetramer.pdb_157      1 mom_tetramer.pdb      H    158 0.04584000   3.023841   ; qtot -2.073630
  159 mom_tetramer.pdb_158      1 mom_tetramer.pdb      H    159 0.04584000   3.023841   ; qtot -2.027790
  160 mom_tetramer.pdb_159      1 mom_tetramer.pdb      H    160 0.04584000   3.023841   ; qtot -1.981950
  161 mom_tetramer.pdb_160      1 mom_tetramer.pdb      H    161 0.14143001   3.023841   ; qtot -1.840520
  162 mom_tetramer.pdb_161      1 mom_tetramer.pdb      H    162 0.14163999   3.023841   ; qtot -1.698880
  163 mom_tetramer.pdb_162      1 mom_tetramer.pdb      H    163 0.13953000   3.023841   ; qtot -1.559350
  164 mom_tetramer.pdb_163      1 mom_tetramer.pdb      H    164 0.15618999   3.023841   ; qtot -1.403160
  165 mom_tetramer.pdb_164      1 mom_tetramer.pdb      H    165 0.13894001   3.023841   ; qtot -1.264220
  166 mom_tetramer.pdb_165      1 mom_tetramer.pdb      H    166 0.13952000   3.023841   ; qtot -1.124700
  167 mom_tetramer.pdb_166      1 mom_tetramer.pdb      H    167 0.12858000   3.023841   ; qtot -0.996120
  168 mom_tetramer.pdb_167      1 mom_tetramer.pdb      H    168 0.08787000   3.023841   ; qtot -0.908250
  169 mom_tetramer.pdb_168      1 mom_tetramer.pdb      H    169 0.04561000   3.023841   ; qtot -0.862640
  170 mom_tetramer.pdb_169      1 mom_tetramer.pdb      H    170 0.04561000   3.023841   ; qtot -0.817030
  171 mom_tetramer.pdb_170      1 mom_tetramer.pdb      H    171 0.04561000   3.023841   ; qtot -0.771420
  172 mom_tetramer.pdb_171      1 mom_tetramer.pdb      H    172 0.32549000   3.023841   ; qtot -0.445930
  173 mom_tetramer.pdb_172      1 mom_tetramer.pdb      H    173 0.14300001   3.023841   ; qtot -0.302930
  174 mom_tetramer.pdb_173      1 mom_tetramer.pdb      H    174 0.13627000   3.023841   ; qtot -0.166660
  175 mom_tetramer.pdb_174      1 mom_tetramer.pdb      H    175 0.13665000   3.023841   ; qtot -0.030010
  176 mom_tetramer.pdb_175      1 mom_tetramer.pdb      H    176 0.15688001   3.023841   ; qtot 0.126870
  177 mom_tetramer.pdb_176      1 mom_tetramer.pdb      C    177 0.13070001   5.963098   ; qtot 0.257570
  178 mom_tetramer.pdb_177      1 mom_tetramer.pdb      O    178 -0.42699999  15.999430   ; qtot -0.169430
  179 mom_tetramer.pdb_178      1 mom_tetramer.pdb      H    179 0.05199000   3.023841   ; qtot -0.117440
  180 mom_tetramer.pdb_179      1 mom_tetramer.pdb      H    180 0.05199000   3.023841   ; qtot -0.065450
  181 mom_tetramer.pdb_180      1 mom_tetramer.pdb      H    181 0.05199000   3.023841   ; qtot -0.013460
  182 mom_tetramer.pdb_181      1 mom_tetramer.pdb      C    182 -0.11437000   5.963098   ; qtot -0.127830
  183 mom_tetramer.pdb_182      1 mom_tetramer.pdb      C    183 0.18911999  12.010780   ; qtot 0.061290
  184 mom_tetramer.pdb_183      1 mom_tetramer.pdb      C    184 -0.11437000   5.963098   ; qtot -0.053080
  185 mom_tetramer.pdb_184      1 mom_tetramer.pdb      C    185 -0.11437000   5.963098   ; qtot -0.167450
  186 mom_tetramer.pdb_185      1 mom_tetramer.pdb      O    186 -0.44058999  15.999430   ; qtot -0.608040
  187 mom_tetramer.pdb_186      1 mom_tetramer.pdb      C    187 0.74987000  12.010780   ; qtot 0.141830
  188 mom_tetramer.pdb_187      1 mom_tetramer.pdb      O    188 -0.60298997  15.999430   ; qtot -0.461160
  189 mom_tetramer.pdb_188      1 mom_tetramer.pdb      H    189 0.05124000   3.023841   ; qtot -0.409920
  190 mom_tetramer.pdb_189      1 mom_tetramer.pdb      H    190 0.05124000   3.023841   ; qtot -0.358680
  191 mom_tetramer.pdb_190      1 mom_tetramer.pdb      H    191 0.05124000   3.023841   ; qtot -0.307440
  192 mom_tetramer.pdb_191      1 mom_tetramer.pdb      H    192 0.05124000   3.023841   ; qtot -0.256200
  193 mom_tetramer.pdb_192      1 mom_tetramer.pdb      H    193 0.05124000   3.023841   ; qtot -0.204960
  194 mom_tetramer.pdb_193      1 mom_tetramer.pdb      H    194 0.05124000   3.023841   ; qtot -0.153720
  195 mom_tetramer.pdb_194      1 mom_tetramer.pdb      H    195 0.05124000   3.023841   ; qtot -0.102480
  196 mom_tetramer.pdb_195      1 mom_tetramer.pdb      H    196 0.05124000   3.023841   ; qtot -0.051240
  197 mom_tetramer.pdb_196      1 mom_tetramer.pdb      H    197 0.05124000   3.023841   ; qtot 0.000000

[ bonds ]
;    ai     aj funct         c0         c1         c2         c3
      1     28     1   0.10939 309655.084322
      1     26     1   0.10939 309655.084322
      1      2     1   0.14259 306888.771877
      2      3     1   0.13629 356218.264001
      3      4     1   0.13872 301905.092579
      4     29     1   0.10854 332422.631675
      4      5     1   0.13872 301905.092579
      5     30     1   0.10854 332422.631675
      5      6     1   0.13872 301905.092579
      6      7     1   0.14546 233580.248618
      7     14     1   0.13872 301905.092579
      7      8     1   0.13872 301905.092579
      8      9     1   0.13872 301905.092579
      9     12     1   0.13872 301905.092579
     10    178     1   0.13457 252005.673257
      9     10     1   0.14546 233580.248618
     10     11     1   0.12252 487602.327766
     12     13     1   0.13872 301905.092579
     13     14     1   0.13872 301905.092579
     13     33     1   0.10854 332422.631675
     14     34     1   0.10854 332422.631675
     15     25     1   0.13872 301905.092579
      6     15     1   0.13872 301905.092579
     15     16     1   0.14546 233580.248618
     16     17     1   0.13872 301905.092579
     17     35     1   0.10854 332422.631675
     17     18     1   0.13872 301905.092579
     18     19     1   0.14986 242452.869388
     19     36     1   0.10939 309655.084322
     19     20     1   0.15219 221435.259290
     20     38     1   0.10939 309655.084322
     20     37     1   0.10939 309655.084322
     21     40     1   0.10195 422704.914414
     19     21     1   0.14501 294600.927776
     18     22     1   0.13872 301905.092579
     23     24     1   0.13872 301905.092579
     22     23     1   0.13872 301905.092579
     16     24     1   0.13872 301905.092579
      3     25     1   0.13872 301905.092579
      1     27     1   0.10939 309655.084322
      8     31     1   0.10854 332422.631675
     12     32     1   0.10854 332422.631675
     20     39     1   0.10939 309655.084322
     22     41     1   0.10854 332422.631675
     23     42     1   0.10854 332422.631675
     24     43     1   0.10854 332422.631675
     25     44     1   0.10854 332422.631675
     45     70     1   0.10939 309655.084322
     45     71     1   0.10939 309655.084322
     45     46     1   0.14259 306888.771877
     46     47     1   0.13629 356218.264001
     47     48     1   0.13872 301905.092579
     48     73     1   0.10854 332422.631675
     48     49     1   0.13872 301905.092579
     49     74     1   0.10854 332422.631675
     49     50     1   0.13872 301905.092579
     50     51     1   0.14546 233580.248618
     51     52     1   0.13872 301905.092579
     52     75     1   0.10854 332422.631675
     52     53     1   0.13872 301905.092579
     53     54     1   0.14546 233580.248618
     54     55     1   0.12252 487602.327766
     21     54     1   0.13819 412347.817359
     53     56     1   0.13872 301905.092579
     56     76     1   0.10854 332422.631675
     56     57     1   0.13872 301905.092579
     51     58     1   0.13872 301905.092579
     57     58     1   0.13872 301905.092579
     50     59     1   0.13872 301905.092579
     59     60     1   0.14546 233580.248618
     60     68     1   0.13872 301905.092579
     60     61     1   0.13872 301905.092579
     61     62     1   0.13872 301905.092579
     62     66     1   0.13872 301905.092579
     63     80     1   0.10939 309655.084322
     63     64     1   0.15219 221435.259290
     62     63     1   0.14986 242452.869388
     64     82     1   0.10939 309655.084322
     64     83     1   0.10939 309655.084322
     65     98     1   0.13819 412347.817359
     63     65     1   0.14501 294600.927776
     66     67     1   0.13872 301905.092579
     67     68     1   0.13872 301905.092579
     67     86     1   0.10854 332422.631675
     68     87     1   0.10854 332422.631675
     47     69     1   0.13872 301905.092579
     59     69     1   0.13872 301905.092579
     45     72     1   0.10939 309655.084322
     57     77     1   0.10854 332422.631675
     58     78     1   0.10854 332422.631675
     61     79     1   0.10854 332422.631675
     64     81     1   0.10939 309655.084322
     65     84     1   0.10195 422704.914414
     66     85     1   0.10854 332422.631675
     69     88     1   0.10854 332422.631675
     89    116     1   0.10939 309655.084322
     89    114     1   0.10939 309655.084322
     89     90     1   0.14259 306888.771877
     91     92     1   0.13872 301905.092579
     90     91     1   0.13629 356218.264001
     92    117     1   0.10854 332422.631675
     93    118     1   0.10854 332422.631675
     92     93     1   0.13872 301905.092579
     93     94     1   0.13872 301905.092579
     95    102     1   0.13872 301905.092579
     94     95     1   0.14546 233580.248618
     95     96     1   0.13872 301905.092579
     97    100     1   0.13872 301905.092579
     96     97     1   0.13872 301905.092579
     97     98     1   0.14546 233580.248618
     98     99     1   0.12252 487602.327766
    100    101     1   0.13872 301905.092579
    101    121     1   0.10854 332422.631675
    101    102     1   0.13872 301905.092579
    102    122     1   0.10854 332422.631675
     94    103     1   0.13872 301905.092579
    103    113     1   0.13872 301905.092579
    104    105     1   0.13872 301905.092579
    103    104     1   0.14546 233580.248618
    105    123     1   0.10854 332422.631675
    106    107     1   0.14986 242452.869388
    105    106     1   0.13872 301905.092579
    107    108     1   0.15219 221435.259290
    107    124     1   0.10939 309655.084322
    108    125     1   0.10939 309655.084322
    108    126     1   0.10939 309655.084322
    109    128     1   0.10195 422704.914414
    107    109     1   0.14501 294600.927776
    106    110     1   0.13872 301905.092579
    110    111     1   0.13872 301905.092579
    111    112     1   0.13872 301905.092579
    104    112     1   0.13872 301905.092579
     91    113     1   0.13872 301905.092579
     89    115     1   0.10939 309655.084322
     96    119     1   0.10854 332422.631675
    100    120     1   0.10854 332422.631675
    108    127     1   0.10939 309655.084322
    110    129     1   0.10854 332422.631675
    111    130     1   0.10854 332422.631675
    112    131     1   0.10854 332422.631675
    113    132     1   0.10854 332422.631675
    133    134     1   0.14259 306888.771877
    133    158     1   0.10939 309655.084322
    133    159     1   0.10939 309655.084322
    134    135     1   0.13629 356218.264001
    135    157     1   0.13872 301905.092579
    135    136     1   0.13872 301905.092579
    136    137     1   0.13872 301905.092579
    137    138     1   0.13872 301905.092579
    137    162     1   0.10854 332422.631675
    138    139     1   0.14546 233580.248618
    139    146     1   0.13872 301905.092579
    139    140     1   0.13872 301905.092579
    140    141     1   0.13872 301905.092579
    141    144     1   0.13872 301905.092579
    141    142     1   0.14546 233580.248618
    109    142     1   0.13819 412347.817359
    142    143     1   0.12252 487602.327766
    144    164     1   0.10854 332422.631675
    145    165     1   0.10854 332422.631675
    144    145     1   0.13872 301905.092579
    145    146     1   0.13872 301905.092579
    147    148     1   0.14546 233580.248618
    138    147     1   0.13872 301905.092579
    148    156     1   0.13872 301905.092579
    149    150     1   0.13872 301905.092579
    148    149     1   0.13872 301905.092579
    150    154     1   0.13872 301905.092579
    151    168     1   0.10939 309655.084322
    151    152     1   0.15219 221435.259290
    150    151     1   0.14986 242452.869388
    152    170     1   0.10939 309655.084322
    152    171     1   0.10939 309655.084322
    151    153     1   0.14501 294600.927776
    153    187     1   0.13819 412347.817359
    154    173     1   0.10854 332422.631675
    154    155     1   0.13872 301905.092579
    155    174     1   0.10854 332422.631675
    155    156     1   0.13872 301905.092579
    156    175     1   0.10854 332422.631675
    147    157     1   0.13872 301905.092579
    133    160     1   0.10939 309655.084322
    136    161     1   0.10854 332422.631675
    140    163     1   0.10854 332422.631675
    146    166     1   0.10854 332422.631675
    149    167     1   0.10854 332422.631675
    152    169     1   0.10939 309655.084322
    153    172     1   0.10195 422704.914414
    157    176     1   0.10854 332422.631675
    177    178     1   0.14259 306888.771877
    177    179     1   0.10939 309655.084322
    177    180     1   0.10939 309655.084322
    177    181     1   0.10939 309655.084322
    182    189     1   0.10939 309655.084322
    182    183     1   0.15219 221435.259290
    183    185     1   0.15219 221435.259290
    183    184     1   0.15219 221435.259290
    184    194     1   0.10939 309655.084322
    184    193     1   0.10939 309655.084322
    185    197     1   0.10939 309655.084322
    185    196     1   0.10939 309655.084322
    186    187     1   0.13457 252005.673257
    183    186     1   0.14259 306888.771877
    187    188     1   0.12252 487602.327766
    182    190     1   0.10939 309655.084322
    182    191     1   0.10939 309655.084322
    184    192     1   0.10939 309655.084322
    185    195     1   0.10939 309655.084322

[ pairs ]
;    ai     aj funct         c0         c1         c2         c3
      3      6     1
    151    155     1
    146    163     1
     52     76     1
     63     85     1
    149    157     1
     98    101     1
    137    157     1
    139    162     1
    106    128     1
      9     14     1
     47     72     1
    124    128     1
      5      8     1
    184    187     1
     95    118     1
     62     84     1
     17     21     1
    186    190     1
     58     59     1
     95    100     1
    107    143     1
     41     42     1
     12    178     1
      2      5     1
    107    123     1
    108    110     1
    103    118     1
     36     39     1
    154    167     1
     19     23     1
    139    148     1
      6     31     1
    153    169     1
     14     31     1
     21     39     1
     10     32     1
     65    100     1
     17     25     1
      8    178     1
      5     25     1
    130    131     1
      5     14     1
    147    167     1
    150    174     1
     60     88     1
     93    102     1
    109    125     1
      3     16     1
    138    161     1
     10    181     1
    148    151     1
    140    166     1
    103    131     1
    165    166     1
     55     56     1
     86     87     1
    168    169     1
    106    125     1
    103    111     1
    102    120     1
      6     44     1
      8     13     1
    185    191     1
     96    122     1
      6     24     1
      4      7     1
    150    187     1
     95    104     1
    182    195     1
    186    196     1
     64     66     1
    105    113     1
     52     55     1
    107    129     1
     11    177     1
     15     35     1
     18     42     1
    129    130     1
    184    197     1
      6     17     1
    124    127     1
     62     83     1
     90    132     1
     98    120     1
     61     85     1
    186    189     1
    150    171     1
     61     65     1
     65     66     1
     59     87     1
     52     59     1
     59     67     1
    139    165     1
     21     56     1
    135    160     1
     24     25     1
    140    145     1
    100    122     1
     50     78     1
    184    190     1
     91    116     1
     49     60     1
     94    119     1
    109    144     1
     96    101     1
    149    173     1
     10    180     1
      1     25     1
    149    153     1
     19     53     1
    147    150     1
     25     29     1
     84     97     1
      8     32     1
     80     83     1
      7     25     1
      6     34     1
    185    190     1
     94    132     1
     21     22     1
     58     75     1
     65     83     1
    186    195     1
    182    194     1
     94    112     1
      3     28     1
    174    175     1
    104    132     1
     51     74     1
     92    103     1
    172    186     1
    168    172     1
     51     54     1
     54     57     1
    137    148     1
    102    103     1
     48     59     1
    185    194     1
    139    144     1
    100    119     1
     50     75     1
     17     41     1
    184    196     1
     66     87     1
    151    188     1
    148    174     1
     65     96     1
     62     82     1
     64     98     1
    148    154     1
    182    187     1
    150    170     1
     94    105     1
     89    113     1
     52     78     1
    138    166     1
    109    110     1
     63     67     1
    106    130     1
    149    152     1
     24     35     1
    141    146     1
     50     88     1
     47     74     1
    185    187     1
     15     18     1
     50     68     1
    184    189     1
    152    172     1
     62     86     1
     66     80     1
     91    115     1
     12     31     1
    186    192     1
     40     53     1
    142    164     1
    105    129     1
     59     79     1
     20     54     1
    173    174     1
    105    109     1
      1      4     1
     51     60     1
     33     34     1
    134    176     1
     22     43     1
     80     82     1
    136    147     1
     18     38     1
    153    171     1
     96    120     1
      6     13     1
     50     61     1
     95    113     1
     45     69     1
     94    122     1
     65     82     1
      5     16     1
     90    117     1
     68     69     1
     93    104     1
    109    127     1
     46     49     1
    138    163     1
    150    156     1
    168    171     1
    106    127     1
      9     33     1
     89     92     1
     21     52     1
     20     40     1
     24     41     1
    138    145     1
      8     15     1
     22     36     1
     47     71     1
    128    141     1
    185    193     1
     47     60     1
    184    195     1
     16     42     1
     17     20     1
    182    197     1
     16     22     1
     73     74     1
    151    167     1
    109    140     1
      2     44     1
     63     97     1
    150    169     1
    138    176     1
     97    102     1
     99    100     1
     60     63     1
    138    156     1
     51     77     1
     91     94     1
    112    123     1
     52     57     1
    144    166     1
     29     30     1
     36     38     1
    107    111     1
    138    149     1
     32     33     1
    103    106     1
    154    175     1
      7     30     1
     48     51     1
     21     38     1
     18     24     1
     46     73     1
     10     31     1
     49     69     1
     61     87     1
    183    188     1
    186    191     1
     69     73     1
    110    131     1
      4     15     1
     61     67     1
     90    103     1
     96     99     1
    142    163     1
    108    142     1
     45     48     1
     94    101     1
    105    108     1
    133    157     1
    102    119     1
    156    157     1
     77     78     1
     19     35     1
    140    147     1
     15     30     1
     18     37     1
     62     98     1
     91    118     1
     12     34     1
    151    173     1
     16     19     1
     47     50     1
     68     79     1
    110    124     1
    149    175     1
     56     75     1
    109    126     1
    104    130     1
    149    155     1
     19     55     1
     59     62     1
    144    163     1
    103    123     1
    104    110     1
     93     96     1
    157    161     1
    106    126     1
     48     88     1
      8     34     1
     22     35     1
    136    139     1
     47     70     1
    135    148     1
     50     73     1
    153    154     1
    124    126     1
     96    103     1
     46     59     1
     50     53     1
     98    119     1
    182    196     1
    186    197     1
     97    121     1
      3     30     1
     61     64     1
    149    168     1
     95     98     1
    107    141     1
    108    128     1
    172    188     1
    112    113     1
     90     93     1
    143    144     1
     51     56     1
    146    147     1
     36     37     1
    135    159     1
    134    161     1
     80     98     1
     19     41     1
    133    136     1
      6     29     1
     17     43     1
     21     37     1
    148    176     1
     50     57     1
     17     23     1
     91    104     1
     68     85     1
    150    172     1
     60     86     1
     10    179     1
     53     58     1
     60     66     1
    117    118     1
    120    121     1
    168    187     1
     51     69     1
    140    164     1
     18     54     1
    104    107     1
    139    157     1
    156    167     1
    138    141     1
    106    112     1
      7     33     1
      6      9     1
      8     11     1
     76     77     1
    185    189     1
     17     36     1
    134    147     1
    184    191     1
    152    154     1
     62     68     1
     49     52     1
    182    193     1
    186    194     1
     64     84     1
     93    113     1
    110    123     1
      3     27     1
     40     55     1
    105    131     1
      2     29     1
    113    117     1
    136    176     1
    105    111     1
     54     76     1
     92     95     1
     80     84     1
     18     40     1
    152    187     1
      7     10     1
    135    138     1
    124    125     1
     14     15     1
     62     81     1
     58     76     1
    147    162     1
    146    164     1
     36     54     1
     56     78     1
    105    124     1
     59     74     1
     94     97     1
    156    173     1
    135    158     1
    137    140     1
     20     22     1
    140    143     1
    128    143     1
     16     44     1
      4     44     1
     66     79     1
     91    114     1
     49     58     1
    147    175     1
     94    117     1
     53     77     1
     63     99     1
    147    155     1
    121    122     1
     11     12     1
     63     79     1
    141    165     1
      2     15     1
    106    142     1
     36     40     1
    135    162     1
    164    165     1
    142    145     1
    154    168     1
     80     81     1
    153    170     1
    124    142     1
      7     12     1
     14     32     1
     95    121     1
      9    177     1
    134    137     1
     10     13     1
     65     81     1
     61     80     1
    182    192     1
    186    193     1
     61     69     1
     92    132     1
      3     26     1
    112    129     1
     42     43     1
     54     75     1
    161    162     1
    168    170     1
     84     99     1
     85     86     1
    137    146     1
     15     43     1
    153    183     1
     18     39     1
     46     88     1
      7     16     1
     15     23     1
    185    192     1
    139    142     1
    151    186     1

[ angles ]
;    ai     aj     ak funct         c0         c1         c2         c3
     60     59     69     1   126.8062420 484.492885
    138    147    148     1   126.8062420 484.492885
    141    144    145     1   126.8062420 484.492885
    114     89    115     1   115.6031000 408.161690
     15     25     44     1   129.1835930 285.070775
    134    135    157     1   126.8062420 484.492885
    158    133    160     1   115.6031000 408.161690
    107    108    125     1   116.5475863 445.222087
     13     12     32     1   129.1835930 285.070775
     91     92    117     1   129.1835930 285.070775
    110    111    130     1   129.1835930 285.070775
     94    103    113     1   126.8062420 484.492885
    183    182    191     1   116.5475863 445.222087
    178    177    181     1   116.5475863 445.222087
     63     64     81     1   116.5475863 445.222087
     65     98     97     1   126.8062420 484.492885
     95     96     97     1   126.8062420 484.492885
     58     57     77     1   129.1835930 285.070775
     18     17     35     1   129.1835930 285.070775
    101    102    122     1   129.1835930 285.070775
    138    139    140     1   126.8062420 484.492885
    104    103    113     1   126.8062420 484.492885
     61     60     68     1   126.8062420 484.492885
     27      1     28     1   115.6031000 408.161690
     19     21     54     1   117.3465571 463.769802
    183    184    193     1   116.5475863 445.222087
     51     58     57     1   126.8062420 484.492885
      7     14     34     1   129.1835930 285.070775
     62     66     85     1   129.1835930 285.070775
    109    142    141     1   126.8062420 484.492885
     48     49     50     1   126.8062420 484.492885
      4      5      6     1   126.8062420 484.492885
     57     56     76     1   129.1835930 285.070775
    134    133    158     1   116.5475863 445.222087
     51     50     59     1   126.8062420 484.492885
    102    101    121     1   129.1835930 285.070775
    150    151    168     1   116.5475863 445.222087
     61     62     66     1   126.8062420 484.492885
    151    153    172     1   115.5071328 530.901283
    179    177    181     1   115.6031000 408.161690
     15     16     24     1   126.8062420 484.492885
     64     63     80     1   116.5475863 445.222087
    184    183    186     1   116.5475863 445.222087
     13     14     34     1   129.1835930 285.070775
    134    135    136     1   126.8062420 484.492885
    185    183    186     1   116.5475863 445.222087
     97     98     99     1   126.8062420 484.492885
     22     23     42     1   129.1835930 285.070775
     62     63     64     1   116.5475863 445.222087
     37     20     38     1   115.6031000 408.161690
     19     21     40     1   115.5071328 530.901283
     17     18     22     1   126.8062420 484.492885
      7      8      9     1   126.8062420 484.492885
     20     19     21     1   116.5475863 445.222087
      6      5     30     1   129.1835930 285.070775
      9     10    178     1   126.8062420 484.492885
     46     45     71     1   116.5475863 445.222087
    138    139    146     1   126.8062420 484.492885
     16     15     25     1   126.8062420 484.492885
     48     49     74     1   129.1835930 285.070775
     15     16     17     1   126.8062420 484.492885
    135    157    176     1   129.1835930 285.070775
    135    136    161     1   129.1835930 285.070775
     67     68     87     1   129.1835930 285.070775
     63     65     98     1   117.3465571 463.769802
    105    106    110     1   126.8062420 484.492885
     62     61     79     1   129.1835930 285.070775
    108    107    124     1   116.5475863 445.222087
    140    141    144     1   126.8062420 484.492885
    170    152    171     1   115.6031000 408.161690
      3     25     44     1   129.1835930 285.070775
    183    184    192     1   116.5475863 445.222087
     14     13     33     1   129.1835930 285.070775
    149    148    156     1   126.8062420 484.492885
    183    185    197     1   116.5475863 445.222087
     51     52     53     1   126.8062420 484.492885
     57     58     78     1   129.1835930 285.070775
     95    102    122     1   129.1835930 285.070775
     66     67     86     1   129.1835930 285.070775
    115     89    116     1   115.6031000 408.161690
      2      1     28     1   116.5475863 445.222087
      5      6     15     1   126.8062420 484.492885
     81     64     82     1   115.6031000 408.161690
     92     91    113     1   126.8062420 484.492885
     62     63     65     1   116.5475863 445.222087
     50     51     52     1   126.8062420 484.492885
    169    152    170     1   115.6031000 408.161690
     96     97     98     1   126.8062420 484.492885
    195    185    197     1   115.6031000 408.161690
    147    157    176     1   129.1835930 285.070775
    150    154    155     1   126.8062420 484.492885
    137    138    147     1   126.8062420 484.492885
    139    146    166     1   129.1835930 285.070775
     23     22     41     1   129.1835930 285.070775
    136    135    157     1   126.8062420 484.492885
     52     53     54     1   126.8062420 484.492885
     90     89    115     1   116.5475863 445.222087
    148    156    175     1   129.1835930 285.070775
     18     19     20     1   116.5475863 445.222087
    148    156    155     1   126.8062420 484.492885
     46     45     70     1   116.5475863 445.222087
     18     22     23     1   126.8062420 484.492885
    133    134    135     1   110.3538806 544.678275
     92     93    118     1   129.1835930 285.070775
    151    152    169     1   116.5475863 445.222087
    186    187    188     1   127.4691416 1685.413543
    159    133    160     1   115.6031000 408.161690
    148    147    157     1   126.8062420 484.492885
    106    105    123     1   129.1835930 285.070775
     97    100    120     1   129.1835930 285.070775
    150    151    153     1   116.5475863 445.222087
    182    183    184     1   116.5475863 445.222087
    107    108    127     1   116.5475863 445.222087
     49     50     59     1   126.8062420 484.492885
    192    184    194     1   115.6031000 408.161690
     21     19     36     1   116.5475863 445.222087
     95    102    101     1   126.8062420 484.492885
     19     20     38     1   116.5475863 445.222087
     94     95    102     1   126.8062420 484.492885
     91    113    103     1   126.8062420 484.492885
     62     63     80     1   116.5475863 445.222087
    153    187    186     1   126.8062420 484.492885
    110    111    112     1   126.8062420 484.492885
    135    136    137     1   126.8062420 484.492885
    152    151    168     1   116.5475863 445.222087
     63     64     83     1   116.5475863 445.222087
    180    177    181     1   115.6031000 408.161690
     65     98     99     1   126.8062420 484.492885
      8      9     10     1   126.8062420 484.492885
     23     24     43     1   129.1835930 285.070775
    149    150    151     1   126.8062420 484.492885
    109    107    124     1   116.5475863 445.222087
    139    146    145     1   126.8062420 484.492885
     45     46     47     1   110.3538806 544.678275
     82     64     83     1   115.6031000 408.161690
      9     12     32     1   129.1835930 285.070775
    195    185    196     1   115.6031000 408.161690
    109    142    143     1   126.8062420 484.492885
     26      1     28     1   115.6031000 408.161690
     62     66     67     1   126.8062420 484.492885
     93     94    103     1   126.8062420 484.492885
     67     66     85     1   129.1835930 285.070775
    144    145    165     1   129.1835930 285.070775
      8      7     14     1   126.8062420 484.492885
     19     18     22     1   126.8062420 484.492885
     21     54     53     1   126.8062420 484.492885
    134    133    160     1   116.5475863 445.222087
     12     13     14     1   126.8062420 484.492885
    107    109    142     1   117.3465571 463.769802
      7      8     31     1   129.1835930 285.070775
     90     89    114     1   116.5475863 445.222087
    136    137    138     1   126.8062420 484.492885
    158    133    159     1   115.6031000 408.161690
    137    136    161     1   129.1835930 285.070775
     97     96    119     1   129.1835930 285.070775
    125    108    127     1   115.6031000 408.161690
     10      9     12     1   126.8062420 484.492885
     59     60     68     1   126.8062420 484.492885
    141    144    164     1   129.1835930 285.070775
     54     53     56     1   126.8062420 484.492885
    106    110    129     1   129.1835930 285.070775
     60     68     67     1   126.8062420 484.492885
    142    141    144     1   126.8062420 484.492885
    154    155    174     1   129.1835930 285.070775
     22     23     24     1   126.8062420 484.492885
    183    182    190     1   116.5475863 445.222087
     89     90     91     1   110.3538806 544.678275
    178    177    180     1   116.5475863 445.222087
      9     10     11     1   126.8062420 484.492885
     65     63     80     1   116.5475863 445.222087
      8      9     12     1   126.8062420 484.492885
    153    151    168     1   116.5475863 445.222087
    114     89    116     1   115.6031000 408.161690
    139    140    141     1   126.8062420 484.492885
      2      3     25     1   126.8062420 484.492885
    106    107    109     1   116.5475863 445.222087
    145    144    164     1   129.1835930 285.070775
     49     48     73     1   129.1835930 285.070775
      7      6     15     1   126.8062420 484.492885
    192    184    193     1   115.6031000 408.161690
     46     47     69     1   126.8062420 484.492885
     19     20     37     1   116.5475863 445.222087
     59     60     61     1   126.8062420 484.492885
    136    137    162     1   129.1835930 285.070775
      7     14     13     1   126.8062420 484.492885
     92     93     94     1   126.8062420 484.492885
    101    100    120     1   129.1835930 285.070775
    126    108    127     1   115.6031000 408.161690
     47     69     59     1   126.8062420 484.492885
     18     19     36     1   116.5475863 445.222087
    103    104    112     1   126.8062420 484.492885
    104    112    131     1   129.1835930 285.070775
    107    109    128     1   115.5071328 530.901283
    155    154    173     1   129.1835930 285.070775
    104    112    111     1   126.8062420 484.492885
    150    149    167     1   129.1835930 285.070775
    147    148    156     1   126.8062420 484.492885
      6     15     16     1   126.8062420 484.492885
    179    177    180     1   115.6031000 408.161690
    184    183    185     1   116.5475863 445.222087
     51     58     78     1   129.1835930 285.070775
     53     54     55     1   126.8062420 484.492885
     56     57     58     1   126.8062420 484.492885
    147    148    149     1   126.8062420 484.492885
    128    109    142     1   115.5071328 530.901283
     51     52     75     1   129.1835930 285.070775
    193    184    194     1   115.6031000 408.161690
     24     23     42     1   129.1835930 285.070775
     63     65     84     1   115.5071328 530.901283
     90     91    113     1   126.8062420 484.492885
    111    110    129     1   129.1835930 285.070775
    134    133    159     1   116.5475863 445.222087
     59     69     88     1   129.1835930 285.070775
    141    140    163     1   129.1835930 285.070775
     93     94     95     1   126.8062420 484.492885
    103    104    105     1   126.8062420 484.492885
      9      8     31     1   129.1835930 285.070775
     50     59     60     1   126.8062420 484.492885
     66     67     68     1   126.8062420 484.492885
    145    146    166     1   129.1835930 285.070775
     96     97    100     1   126.8062420 484.492885
    125    108    126     1   115.6031000 408.161690
      3      4     29     1   129.1835930 285.070775
    138    147    157     1   126.8062420 484.492885
    111    112    131     1   129.1835930 285.070775
     46     47     48     1   126.8062420 484.492885
    183    182    189     1   116.5475863 445.222087
    178    177    179     1   116.5475863 445.222087
     93     92    117     1   129.1835930 285.070775
    149    150    154     1   126.8062420 484.492885
     52     53     56     1   126.8062420 484.492885
    152    151    153     1   116.5475863 445.222087
     16     24     43     1   129.1835930 285.070775
    106    107    108     1   116.5475863 445.222087
     52     51     58     1   126.8062420 484.492885
     46     45     72     1   116.5475863 445.222087
     16     24     23     1   126.8062420 484.492885
     98     97    100     1   126.8062420 484.492885
    189    182    191     1   115.6031000 408.161690
     50     51     58     1   126.8062420 484.492885
      2      3      4     1   126.8062420 484.492885
    155    156    175     1   129.1835930 285.070775
     91    113    132     1   129.1835930 285.070775
     96     95    102     1   126.8062420 484.492885
    104    105    123     1   129.1835930 285.070775
    151    152    171     1   116.5475863 445.222087
     64     63     65     1   116.5475863 445.222087
     70     45     72     1   115.6031000 408.161690
     53     56     57     1   126.8062420 484.492885
     94    103    104     1   126.8062420 484.492885
    183    186    187     1   110.3538806 544.678275
    148    149    150     1   126.8062420 484.492885
    138    137    162     1   129.1835930 285.070775
    183    185    196     1   116.5475863 445.222087
     47     48     49     1   126.8062420 484.492885
     11     10    178     1   127.4691416 1685.413543
    112    111    130     1   129.1835930 285.070775
    182    183    186     1   116.5475863 445.222087
      2      1     27     1   116.5475863 445.222087
     90     91     92     1   126.8062420 484.492885
     56     57     77     1   129.1835930 285.070775
     16     17     35     1   129.1835930 285.070775
     40     21     54     1   115.5071328 530.901283
    153    187    188     1   126.8062420 484.492885
    146    145    165     1   129.1835930 285.070775
     95     96    119     1   129.1835930 285.070775
      4      5     30     1   129.1835930 285.070775
     17     16     24     1   126.8062420 484.492885
    190    182    191     1   115.6031000 408.161690
      6      7      8     1   126.8062420 484.492885
    103    113    132     1   129.1835930 285.070775
      4      3     25     1   126.8062420 484.492885
    108    107    109     1   116.5475863 445.222087
     60     61     62     1   126.8062420 484.492885
     71     45     72     1   115.6031000 408.161690
     81     64     83     1   115.6031000 408.161690
    150    151    152     1   116.5475863 445.222087
    169    152    171     1   115.6031000 408.161690
     47     48     73     1   129.1835930 285.070775
     60     68     87     1   129.1835930 285.070775
    140    139    146     1   126.8062420 484.492885
     50     49     74     1   129.1835930 285.070775
    100    101    102     1   126.8062420 484.492885
    135    157    147     1   126.8062420 484.492885
     21     54     55     1   126.8062420 484.492885
    137    138    139     1   126.8062420 484.492885
    140    141    142     1   126.8062420 484.492885
      6      7     14     1   126.8062420 484.492885
     95     94    103     1   126.8062420 484.492885
     90     89    116     1   116.5475863 445.222087
      5      6      7     1   126.8062420 484.492885
     84     65     98     1   115.5071328 530.901283
     18     19     21     1   116.5475863 445.222087
    151    153    187     1   117.3465571 463.769802
      1      2      3     1   110.3538806 544.678275
     48     47     69     1   126.8062420 484.492885
    107    108    126     1   116.5475863 445.222087
    189    182    190     1   115.6031000 408.161690
     97    100    101     1   126.8062420 484.492885
    148    149    167     1   129.1835930 285.070775
    151    152    170     1   116.5475863 445.222087
     53     52     75     1   129.1835930 285.070775
     53     56     76     1   129.1835930 285.070775
     70     45     71     1   115.6031000 408.161690
    183    185    195     1   116.5475863 445.222087
    106    110    111     1   126.8062420 484.492885
     47     69     88     1   129.1835930 285.070775
    154    155    156     1   126.8062420 484.492885
     63     62     66     1   126.8062420 484.492885
     20     19     36     1   116.5475863 445.222087
     60     61     79     1   129.1835930 285.070775
     63     64     82     1   116.5475863 445.222087
    105    104    112     1   126.8062420 484.492885
    156    155    174     1   129.1835930 285.070775
      3     25     15     1   126.8062420 484.492885
    182    183    185     1   116.5475863 445.222087
      2      1     26     1   116.5475863 445.222087
      6     15     25     1   126.8062420 484.492885
     61     62     63     1   126.8062420 484.492885
     94     93    118     1   129.1835930 285.070775
     49     50     51     1   126.8062420 484.492885
     19     20     39     1   116.5475863 445.222087
    107    106    110     1   126.8062420 484.492885
    183    184    194     1   116.5475863 445.222087
    104    105    106     1   126.8062420 484.492885
     68     67     86     1   129.1835930 285.070775
    150    154    173     1   129.1835930 285.070775
      3      4      5     1   126.8062420 484.492885
    172    153    187     1   115.5071328 530.901283
    139    140    163     1   129.1835930 285.070775
     26      1     27     1   115.6031000 408.161690
    151    150    154     1   126.8062420 484.492885
     91     92     93     1   126.8062420 484.492885
     94     95     96     1   126.8062420 484.492885
     12     13     33     1   129.1835930 285.070775
    196    185    197     1   115.6031000 408.161690
     17     18     19     1   126.8062420 484.492885
    106    107    124     1   116.5475863 445.222087
     38     20     39     1   115.6031000 408.161690
     10    178    177     1   110.3538806 544.678275
     18     22     41     1   129.1835930 285.070775
    141    142    143     1   126.8062420 484.492885
    144    145    146     1   126.8062420 484.492885
     50     59     69     1   126.8062420 484.492885
    139    138    147     1   126.8062420 484.492885
      5      4     29     1   129.1835930 285.070775
     16     17     18     1   126.8062420 484.492885
      9     12     13     1   126.8062420 484.492885
    100    101    121     1   129.1835930 285.070775
     37     20     39     1   115.6031000 408.161690
    105    106    107     1   126.8062420 484.492885

[ dihedrals ]
;    ai     aj     ak     al funct         c0         c1         c2         c3         c4         c5
     21     54     53     52     1  180.0000000  4.1731909  2
    110    111    112    131     1  180.0000000  15.3215155  2
      1      2      3      4     1  180.0000000  6.4108617  2
     47     69     59     60     1  180.0000000  15.3215155  2
     97     96     95    102     1  180.0000000  15.3215155  2
     46     47     69     88     1  180.0000000  15.3215155  2
    172    153    187    188     1  180.0000000  2.0338395  2
    172    153    187    188     1  0.0000000  3.7308670  1
    108    107    109    142     1  180.0000000  -0.6228629  4
    108    107    109    142     1  180.0000000  -0.5147696  3
    108    107    109    142     1  0.0000000  1.2298012  2
    108    107    109    142     1  0.0000000  -1.2652947  1
    138    137    136    161     1  180.0000000  15.3215155  2
     65     63     62     66     1  0.0000000  0.1115010  3
     52     53     56     57     1  180.0000000  15.3215155  2
    140    141    144    145     1  180.0000000  15.3215155  2
    184    183    185    195     1  0.0000000  0.4354138  3
      9     12     13     14     1  180.0000000  15.3215155  2
      6      7     14     13     1  180.0000000  15.3215155  2
     60     61     62     63     1  180.0000000  15.3215155  2
    161    136    137    162     1  180.0000000  15.3215155  2
     50     51     58     57     1  180.0000000  15.3215155  2
     17     18     19     20     1  0.0000000  0.1115010  3
    109    107    108    126     1  0.0000000  0.4834079  3
     29      4      5     30     1  180.0000000  15.3215155  2
    140    139    146    145     1  180.0000000  15.3215155  2
    109    142    141    144     1  180.0000000  4.1731909  2
    182    183    185    195     1  0.0000000  0.4354138  3
     68     60     61     79     1  180.0000000  15.3215155  2
      8      9     12     32     1  180.0000000  15.3215155  2
    150    151    152    169     1  0.0000000  0.4834079  3
    168    151    152    170     1  0.0000000  0.7999501  3
     96     95    102    122     1  180.0000000  15.3215155  2
     36     19     21     40     1  0.0000000  0.7624859  2
     36     19     21     40     1  0.0000000  0.1243628  3
    110    106    107    124     1  0.0000000  0.1115010  3
    106    107    108    125     1  0.0000000  0.4834079  3
    112    104    103    113     1  180.0000000  4.8669776  2
      6     15     16     24     1  180.0000000  4.8669776  2
     95     96     97     98     1  180.0000000  15.3215155  2
    135    134    133    159     1  0.0000000  0.1982205  3
     62     66     67     68     1  180.0000000  15.3215155  2
    147    148    149    167     1  180.0000000  15.3215155  2
    105    104    112    131     1  180.0000000  15.3215155  2
    152    151    153    187     1  180.0000000  -0.6228629  4
    152    151    153    187     1  180.0000000  -0.5147696  3
    152    151    153    187     1  0.0000000  1.2298012  2
    152    151    153    187     1  0.0000000  -1.2652947  1
    133    134    135    136     1  180.0000000  6.4108617  2
    139    138    147    148     1  180.0000000  15.3215155  2
    105    104    112    111     1  180.0000000  15.3215155  2
     49     50     59     69     1  180.0000000  15.3215155  2
     47     46     45     71     1  0.0000000  0.1982205  3
     76     56     57     77     1  180.0000000  15.3215155  2
    135    136    137    162     1  180.0000000  15.3215155  2
     41     22     23     42     1  180.0000000  15.3215155  2
     65     63     64     81     1  0.0000000  0.4834079  3
      3      4      5      6     1  180.0000000  15.3215155  2
    138    139    140    141     1  180.0000000  15.3215155  2
    109    107    106    110     1  0.0000000  0.1115010  3
     33     13     14     34     1  180.0000000  15.3215155  2
     18     19     20     39     1  0.0000000  0.4834079  3
     18     22     23     42     1  180.0000000  15.3215155  2
     58     51     52     75     1  180.0000000  15.3215155  2
    186    183    184    193     1  0.0000000  0.4667359  3
    186    183    184    193     1  0.0000000  1.4361539  1
    108    107    109    128     1  0.0000000  0.7624859  2
    108    107    109    128     1  0.0000000  0.1243628  3
      8      9     10     11     1  180.0000000  4.1731909  2
     52     51     58     57     1  180.0000000  15.3215155  2
     62     63     64     82     1  0.0000000  0.4834079  3
     98     97    100    101     1  180.0000000  15.3215155  2
      6     15     16     17     1  180.0000000  4.8669776  2
     51     50     49     74     1  180.0000000  15.3215155  2
      7     14     13     12     1  180.0000000  15.3215155  2
     50     51     52     53     1  180.0000000  15.3215155  2
     17     16     15     25     1  180.0000000  4.8669776  2
     51     58     57     77     1  180.0000000  15.3215155  2
    112    111    110    129     1  180.0000000  15.3215155  2
    186    183    185    197     1  0.0000000  0.4667359  3
    186    183    185    197     1  0.0000000  1.4361539  1
     68     60     59     69     1  180.0000000  4.8669776  2
      7      6     15     25     1  180.0000000  15.3215155  2
     46     47     48     49     1  180.0000000  15.3215155  2
      9     12     13     33     1  180.0000000  15.3215155  2
    157    135    136    161     1  180.0000000  15.3215155  2
      8      7     14     34     1  180.0000000  15.3215155  2
    107    106    110    111     1  180.0000000  15.3215155  2
     96     95    102    101     1  180.0000000  15.3215155  2
    142    141    144    164     1  180.0000000  15.3215155  2
     51     52     53     54     1  180.0000000  15.3215155  2
     18     19     21     54     1  180.0000000  -2.8834993  2
     18     19     21     54     1  0.0000000  1.1413309  1
     66     62     61     79     1  180.0000000  15.3215155  2
    109    107    108    125     1  0.0000000  0.4834079  3
    139    140    141    142     1  180.0000000  15.3215155  2
     93     94    103    104     1  180.0000000  15.3215155  2
    151    150    154    155     1  180.0000000  15.3215155  2
    124    107    108    125     1  0.0000000  0.7999501  3
    146    145    144    164     1  180.0000000  15.3215155  2
    100     97     96    119     1  180.0000000  15.3215155  2
    104    103    113    132     1  180.0000000  15.3215155  2
     49     48     47     69     1  180.0000000  15.3215155  2
    134    135    157    147     1  180.0000000  15.3215155  2
      7      6      5     30     1  180.0000000  15.3215155  2
     20     19     18     22     1  0.0000000  0.1115010  3
    107    106    105    123     1  180.0000000  15.3215155  2
    142    141    140    163     1  180.0000000  15.3215155  2
     61     60     68     67     1  180.0000000  15.3215155  2
    168    151    153    172     1  0.0000000  0.7624859  2
    168    151    153    172     1  0.0000000  0.1243628  3
     60     61     62     66     1  180.0000000  15.3215155  2
     84     65     98     97     1  180.0000000  7.5690543  2
     84     65     98     97     1  0.0000000  -0.2015131  1
     10      9     12     32     1  180.0000000  15.3215155  2
     66     67     68     87     1  180.0000000  15.3215155  2
    135    134    133    158     1  0.0000000  0.1982205  3
     19     18     22     41     1  180.0000000  15.3215155  2
    105    106    107    109     1  0.0000000  0.1115010  3
     15      6      5     30     1  180.0000000  15.3215155  2
    184    183    182    191     1  0.0000000  0.4354138  3
    105    104    103    113     1  180.0000000  4.8669776  2
     47     46     45     70     1  0.0000000  0.1982205  3
     18     19     21     40     1  0.0000000  0.7624859  2
     18     19     21     40     1  0.0000000  0.1243628  3
     51     50     59     60     1  180.0000000  15.3215155  2
     19     21     54     55     1  180.0000000  12.9785537  2
     19     21     54     55     1  0.0000000  -1.7791009  1
    130    111    112    131     1  180.0000000  15.3215155  2
     64     63     65     98     1  180.0000000  -0.6228629  4
     64     63     65     98     1  180.0000000  -0.5147696  3
     64     63     65     98     1  0.0000000  1.2298012  2
     64     63     65     98     1  0.0000000  -1.2652947  1
      6     15     25     44     1  180.0000000  15.3215155  2
    150    149    148    156     1  180.0000000  15.3215155  2
     48     47     69     59     1  180.0000000  15.3215155  2
    105    106    110    129     1  180.0000000  15.3215155  2
     55     54     53     56     1  180.0000000  4.1731909  2
     62     63     64     81     1  0.0000000  0.4834079  3
    141    144    145    146     1  180.0000000  15.3215155  2
    153    151    152    171     1  0.0000000  0.4834079  3
    149    150    151    168     1  0.0000000  0.1115010  3
     59     50     49     74     1  180.0000000  15.3215155  2
    182    183    184    193     1  0.0000000  0.4354138  3
     68     67     66     85     1  180.0000000  15.3215155  2
     10    178    177    180     1  0.0000000  0.1982205  3
    185    183    182    190     1  0.0000000  0.4354138  3
     94    103    104    112     1  180.0000000  4.8669776  2
    102    101    100    120     1  180.0000000  15.3215155  2
    109    142    141    140     1  180.0000000  4.1731909  2
     54     53     56     76     1  180.0000000  15.3215155  2
    128    109    142    141     1  180.0000000  7.5690543  2
    128    109    142    141     1  0.0000000  -0.2015131  1
    138    147    148    156     1  180.0000000  4.8669776  2
    156    155    154    173     1  180.0000000  15.3215155  2
     51     58     57     56     1  180.0000000  15.3215155  2
    154    150    149    167     1  180.0000000  15.3215155  2
    138    147    148    149     1  180.0000000  4.8669776  2
    135    136    137    138     1  180.0000000  15.3215155  2
      5      6     15     16     1  180.0000000  15.3215155  2
    135    157    147    138     1  180.0000000  15.3215155  2
     48     49     50     59     1  180.0000000  15.3215155  2
    144    141    140    163     1  180.0000000  15.3215155  2
    137    138    147    157     1  180.0000000  15.3215155  2
     24     16     15     25     1  180.0000000  4.8669776  2
      3      2      1     27     1  0.0000000  0.1982205  3
    185    183    184    192     1  0.0000000  0.4354138  3
     11     10    178    177     1  180.0000000  4.8693776  2
     11     10    178    177     1  180.0000000  0.7025718  1
     21     19     18     22     1  0.0000000  0.1115010  3
     21     19     20     38     1  0.0000000  0.4834079  3
    149    150    154    173     1  180.0000000  15.3215155  2
     19     18     17     35     1  180.0000000  15.3215155  2
    124    107    109    142     1  0.0000000  0.7624859  2
    124    107    109    142     1  0.0000000  0.1243628  3
     94    103    104    105     1  180.0000000  4.8669776  2
    106    110    111    130     1  180.0000000  15.3215155  2
     54     53     52     75     1  180.0000000  15.3215155  2
      7      8      9     10     1  180.0000000  15.3215155  2
     12     13     14     34     1  180.0000000  15.3215155  2
    121    101    102    122     1  180.0000000  15.3215155  2
    148    156    155    174     1  180.0000000  15.3215155  2
    148    156    155    154     1  180.0000000  15.3215155  2
     36     19     20     38     1  0.0000000  0.7999501  3
     64     63     65     84     1  0.0000000  0.7624859  2
     64     63     65     84     1  0.0000000  0.1243628  3
     95     94     93    118     1  180.0000000  15.3215155  2
     42     23     24     43     1  180.0000000  15.3215155  2
    184    183    185    197     1  0.0000000  0.4354138  3
     80     63     64     81     1  0.0000000  0.7999501  3
      4      3     25     15     1  180.0000000  15.3215155  2
     60     59     69     88     1  180.0000000  15.3215155  2
     12      9     10    178     1  180.0000000  4.1731909  2
     94     95    102    122     1  180.0000000  15.3215155  2
    184    183    182    190     1  0.0000000  0.4354138  3
    182    183    185    197     1  0.0000000  0.4354138  3
     14      7      8     31     1  180.0000000  15.3215155  2
    150    151    152    171     1  0.0000000  0.4834079  3
     89     90     91    113     1  180.0000000  6.4108617  2
     53     56     57     77     1  180.0000000  15.3215155  2
    186    183    182    190     1  0.0000000  0.4667359  3
    186    183    182    190     1  0.0000000  1.4361539  1
    102     95     94    103     1  180.0000000  4.8669776  2
    151    153    187    186     1  180.0000000  7.5690543  2
    151    153    187    186     1  0.0000000  -0.2015131  1
    102     95     96    119     1  180.0000000  15.3215155  2
    173    154    155    174     1  180.0000000  15.3215155  2
      5      4      3     25     1  180.0000000  15.3215155  2
     61     62     63     65     1  0.0000000  0.1115010  3
    103    104    112    131     1  180.0000000  15.3215155  2
    106    107    108    127     1  0.0000000  0.4834079  3
    154    155    156    175     1  180.0000000  15.3215155  2
    150    151    153    187     1  180.0000000  -2.8834993  2
    150    151    153    187     1  0.0000000  1.1413309  1
      4      5      6      7     1  180.0000000  15.3215155  2
     90     91    113    103     1  180.0000000  15.3215155  2
    153    187    186    183     1  180.0000000  11.6309081  2
    103    104    112    111     1  180.0000000  15.3215155  2
     95     96     97    100     1  180.0000000  15.3215155  2
    139    138    147    157     1  180.0000000  15.3215155  2
    103     94     93    118     1  180.0000000  15.3215155  2
    143    142    141    144     1  180.0000000  4.1731909  2
     40     21     54     53     1  180.0000000  7.5690543  2
     40     21     54     53     1  0.0000000  -0.2015131  1
     22     18     17     35     1  180.0000000  15.3215155  2
    129    110    111    130     1  180.0000000  15.3215155  2
    182    183    184    192     1  0.0000000  0.4354138  3
     52     51     50     59     1  180.0000000  4.8669776  2
    136    135    157    176     1  180.0000000  15.3215155  2
    165    145    146    166     1  180.0000000  15.3215155  2
     10    178    177    179     1  0.0000000  0.1982205  3
     92     93     94    103     1  180.0000000  15.3215155  2
    185    183    182    189     1  0.0000000  0.4354138  3
    124    107    109    128     1  0.0000000  0.7624859  2
    124    107    109    128     1  0.0000000  0.1243628  3
     66     62     63     80     1  0.0000000  0.1115010  3
     49     50     51     52     1  180.0000000  4.8669776  2
     65     63     64     83     1  0.0000000  0.4834079  3
     94     93     92    117     1  180.0000000  15.3215155  2
    141    144    145    165     1  180.0000000  15.3215155  2
     63     65     98     97     1  180.0000000  7.5690543  2
     63     65     98     97     1  0.0000000  -0.2015131  1
    107    109    142    141     1  180.0000000  7.5690543  2
    107    109    142    141     1  0.0000000  -0.2015131  1
     95    102    101    121     1  180.0000000  15.3215155  2
     52     53     56     76     1  180.0000000  15.3215155  2
    152    151    150    154     1  0.0000000  0.1115010  3
     18     22     23     24     1  180.0000000  15.3215155  2
    150    154    155    174     1  180.0000000  15.3215155  2
     14      7      6     15     1  180.0000000  4.8669776  2
     16     17     18     19     1  180.0000000  15.3215155  2
    117     92     93    118     1  180.0000000  15.3215155  2
    135    157    147    148     1  180.0000000  15.3215155  2
    151    150    149    167     1  180.0000000  15.3215155  2
     58     57     56     76     1  180.0000000  15.3215155  2
     99     98     97    100     1  180.0000000  4.1731909  2
    141    140    139    146     1  180.0000000  15.3215155  2
      3      2      1     26     1  0.0000000  0.1982205  3
     94    103    113    132     1  180.0000000  15.3215155  2
     32     12     13     33     1  180.0000000  15.3215155  2
     62     61     60     68     1  180.0000000  15.3215155  2
    103    104    105    123     1  180.0000000  15.3215155  2
    138    139    140    163     1  180.0000000  15.3215155  2
    148    149    150    151     1  180.0000000  15.3215155  2
     21     19     20     37     1  0.0000000  0.4834079  3
     96     97     98     99     1  180.0000000  4.1731909  2
     63     62     66     85     1  180.0000000  15.3215155  2
    104    112    111    130     1  180.0000000  15.3215155  2
     94     95     96     97     1  180.0000000  15.3215155  2
    136    137    138    147     1  180.0000000  15.3215155  2
     95     94    103    104     1  180.0000000  15.3215155  2
      5      6      7      8     1  180.0000000  4.8669776  2
    185    183    186    187     1  0.0000000  0.8026052  3
    185    183    186    187     1  180.0000000  3.8501921  1
     93     94    103    113     1  180.0000000  15.3215155  2
    104    112    111    110     1  180.0000000  15.3215155  2
    168    151    152    169     1  0.0000000  0.7999501  3
    154    150    151    168     1  0.0000000  0.1115010  3
     94     95    102    101     1  180.0000000  15.3215155  2
    140    141    144    164     1  180.0000000  15.3215155  2
      9     10    178    177     1  180.0000000  11.6309081  2
     91     90     89    116     1  0.0000000  0.1982205  3
      3     25     15     16     1  180.0000000  15.3215155  2
    147    148    156    175     1  180.0000000  15.3215155  2
     36     19     20     37     1  0.0000000  0.7999501  3
     61     62     66     85     1  180.0000000  15.3215155  2
     91    113    103    104     1  180.0000000  15.3215155  2
     80     63     65     98     1  0.0000000  0.7624859  2
     80     63     65     98     1  0.0000000  0.1243628  3
    147    148    156    155     1  180.0000000  15.3215155  2
     61     60     68     87     1  180.0000000  15.3215155  2
     16     15     25     44     1  180.0000000  15.3215155  2
     89     90     91     92     1  180.0000000  6.4108617  2
     92     91    113    103     1  180.0000000  15.3215155  2
    184    183    186    187     1  0.0000000  0.8026052  3
    184    183    186    187     1  180.0000000  3.8501921  1
    184    183    185    196     1  0.0000000  0.4354138  3
     96     97    100    101     1  180.0000000  15.3215155  2
     48     49     50     51     1  180.0000000  15.3215155  2
     15     16     24     43     1  180.0000000  15.3215155  2
     96     95     94    103     1  180.0000000  4.8669776  2
     51     52     53     56     1  180.0000000  15.3215155  2
     17     18     19     21     1  0.0000000  0.1115010  3
    109    107    108    127     1  0.0000000  0.4834079  3
     15     16     24     23     1  180.0000000  15.3215155  2
     50     59     60     68     1  180.0000000  4.8669776  2
    120    100    101    121     1  180.0000000  15.3215155  2
    139    140    141    144     1  180.0000000  15.3215155  2
     49     50     51     58     1  180.0000000  4.8669776  2
    182    183    185    196     1  0.0000000  0.4354138  3
    124    107    108    127     1  0.0000000  0.7999501  3
      6      5      4     29     1  180.0000000  15.3215155  2
      5      6      7     14     1  180.0000000  4.8669776  2
    150    151    152    170     1  0.0000000  0.4834079  3
     51     50     59     69     1  180.0000000  15.3215155  2
     48     47     69     88     1  180.0000000  15.3215155  2
    186    183    182    189     1  0.0000000  0.4667359  3
    186    183    182    189     1  0.0000000  1.4361539  1
      8      7      6     15     1  180.0000000  4.8669776  2
      8      9     12     13     1  180.0000000  15.3215155  2
     18     19     20     38     1  0.0000000  0.4834079  3
    112    104    105    123     1  180.0000000  15.3215155  2
    186    183    184    192     1  0.0000000  0.4667359  3
    186    183    184    192     1  0.0000000  1.4361539  1
     17     18     22     41     1  180.0000000  15.3215155  2
    156    148    149    167     1  180.0000000  15.3215155  2
     59     60     61     62     1  180.0000000  15.3215155  2
      2      3     25     15     1  180.0000000  15.3215155  2
    106    107    109    142     1  180.0000000  -2.8834993  2
    106    107    109    142     1  0.0000000  1.1413309  1
     95    102    101    100     1  180.0000000  15.3215155  2
     84     65     98     99     1  180.0000000  9.8256037  2
     84     65     98     99     1  0.0000000  5.2557574  1
    135    134    133    160     1  0.0000000  0.1982205  3
    146    139    140    163     1  180.0000000  15.3215155  2
     45     46     47     69     1  180.0000000  6.4108617  2
     19     18     22     23     1  180.0000000  15.3215155  2
      6      7      8      9     1  180.0000000  15.3215155  2
     50     59     60     61     1  180.0000000  4.8669776  2
     63     62     61     79     1  180.0000000  15.3215155  2
     47     46     45     72     1  0.0000000  0.1982205  3
    182    183    186    187     1  0.0000000  0.8026052  3
    182    183    186    187     1  180.0000000  3.8501921  1
     15     16     17     35     1  180.0000000  15.3215155  2
      2      3      4      5     1  180.0000000  15.3215155  2
    146    139    138    147     1  180.0000000  4.8669776  2
     92     93     94     95     1  180.0000000  15.3215155  2
    186    183    185    196     1  0.0000000  0.4667359  3
    186    183    185    196     1  0.0000000  1.4361539  1
     98     97    100    120     1  180.0000000  15.3215155  2
     98     97     96    119     1  180.0000000  15.3215155  2
    149    148    156    175     1  180.0000000  15.3215155  2
    172    153    187    186     1  180.0000000  7.5690543  2
    172    153    187    186     1  0.0000000  -0.2015131  1
     22     23     24     43     1  180.0000000  15.3215155  2
      5      6     15     25     1  180.0000000  15.3215155  2
      9      8      7     14     1  180.0000000  15.3215155  2
    149    148    156    155     1  180.0000000  15.3215155  2
     62     63     64     83     1  0.0000000  0.4834079  3
     80     63     65     84     1  0.0000000  0.7624859  2
     80     63     65     84     1  0.0000000  0.1243628  3
    105    106    110    111     1  180.0000000  15.3215155  2
     58     51     50     59     1  180.0000000  4.8669776  2
      7     14     13     33     1  180.0000000  15.3215155  2
      8      7     14     13     1  180.0000000  15.3215155  2
     50     49     48     73     1  180.0000000  15.3215155  2
     91    113    103     94     1  180.0000000  15.3215155  2
    105    106    107    124     1  0.0000000  0.1115010  3
    142    141    144    145     1  180.0000000  15.3215155  2
    152    151    153    172     1  0.0000000  0.7624859  2
    152    151    153    172     1  0.0000000  0.1243628  3
     17     16     24     23     1  180.0000000  15.3215155  2
    137    138    139    140     1  180.0000000  4.8669776  2
      2      3      4     29     1  180.0000000  15.3215155  2
     73     48     49     74     1  180.0000000  15.3215155  2
    144    145    146    166     1  180.0000000  15.3215155  2
    149    148    147    157     1  180.0000000  4.8669776  2
    128    109    142    143     1  180.0000000  9.8256037  2
    128    109    142    143     1  0.0000000  5.2557574  1
     86     67     68     87     1  180.0000000  15.3215155  2
     91     90     89    115     1  0.0000000  0.1982205  3
     59     60     61     79     1  180.0000000  15.3215155  2
     59     60     68     87     1  180.0000000  15.3215155  2
     16     17     18     22     1  180.0000000  15.3215155  2
     60     68     67     86     1  180.0000000  15.3215155  2
     65     98     97     96     1  180.0000000  4.1731909  2
     85     66     67     86     1  180.0000000  15.3215155  2
     46     47     69     59     1  180.0000000  15.3215155  2
      4      3     25     44     1  180.0000000  15.3215155  2
    138    147    157    176     1  180.0000000  15.3215155  2
     59     60     68     67     1  180.0000000  15.3215155  2
     62     66     67     86     1  180.0000000  15.3215155  2
     60     68     67     66     1  180.0000000  15.3215155  2
    150    151    153    172     1  0.0000000  0.7624859  2
    150    151    153    172     1  0.0000000  0.1243628  3
     22     18     19     36     1  0.0000000  0.1115010  3
    183    186    187    188     1  180.0000000  4.8693776  2
    183    186    187    188     1  180.0000000  0.7025718  1
    106    107    109    128     1  0.0000000  0.7624859  2
    106    107    109    128     1  0.0000000  0.1243628  3
     61     60     59     69     1  180.0000000  4.8669776  2
    185    183    184    194     1  0.0000000  0.4354138  3
     47     48     49     74     1  180.0000000  15.3215155  2
    105    106    107    108     1  0.0000000  0.1115010  3
    103    104    105    106     1  180.0000000  15.3215155  2
    136    137    138    139     1  180.0000000  15.3215155  2
    149    150    154    155     1  180.0000000  15.3215155  2
    134    135    136    137     1  180.0000000  15.3215155  2
     21     54     53     56     1  180.0000000  4.1731909  2
     97    100    101    102     1  180.0000000  15.3215155  2
    124    107    108    126     1  0.0000000  0.7999501  3
     93     94     95     96     1  180.0000000  4.8669776  2
     45     46     47     48     1  180.0000000  6.4108617  2
    106    110    111    112     1  180.0000000  15.3215155  2
      3     25     15      6     1  180.0000000  15.3215155  2
    100    101    102    122     1  180.0000000  15.3215155  2
    137    136    135    157     1  180.0000000  15.3215155  2
     18     19     20     37     1  0.0000000  0.4834079  3
     10      9      8     31     1  180.0000000  15.3215155  2
     96     97    100    120     1  180.0000000  15.3215155  2
     90     91    113    132     1  180.0000000  15.3215155  2
     62     63     65     98     1  180.0000000  -2.8834993  2
     62     63     65     98     1  0.0000000  1.1413309  1
     90     91     92    117     1  180.0000000  15.3215155  2
     65     98     97    100     1  180.0000000  4.1731909  2
    153    151    152    170     1  0.0000000  0.4834079  3
    148    149    150    154     1  180.0000000  15.3215155  2
     80     63     64     83     1  0.0000000  0.7999501  3
     50     59     69     88     1  180.0000000  15.3215155  2
      8      9     10    178     1  180.0000000  4.1731909  2
    156    148    147    157     1  180.0000000  4.8669776  2
     10      9     12     13     1  180.0000000  15.3215155  2
    108    107    106    110     1  0.0000000  0.1115010  3
    137    138    139    146     1  180.0000000  4.8669776  2
     49     50     59     60     1  180.0000000  15.3215155  2
      7      8      9     12     1  180.0000000  15.3215155  2
      3      4      5     30     1  180.0000000  15.3215155  2
    186    183    185    195     1  0.0000000  0.4667359  3
    186    183    185    195     1  0.0000000  1.4361539  1
    151    153    187    188     1  180.0000000  7.5690543  2
    151    153    187    188     1  0.0000000  -0.2015131  1
    136    135    157    147     1  180.0000000  15.3215155  2
    107    106    110    129     1  180.0000000  15.3215155  2
     47     69     59     50     1  180.0000000  15.3215155  2
    174    155    156    175     1  180.0000000  15.3215155  2
    138    139    146    166     1  180.0000000  15.3215155  2
    134    135    136    161     1  180.0000000  15.3215155  2
     40     21     54     55     1  180.0000000  9.8256037  2
     40     21     54     55     1  0.0000000  5.2557574  1
     50     51     52     75     1  180.0000000  15.3215155  2
     25      3      4     29     1  180.0000000  15.3215155  2
    182    183    184    194     1  0.0000000  0.4354138  3
    139    138    137    162     1  180.0000000  15.3215155  2
     95     94    103    113     1  180.0000000  15.3215155  2
    153    151    150    154     1  0.0000000  0.1115010  3
    151    150    154    173     1  180.0000000  15.3215155  2
     10    178    177    181     1  0.0000000  0.1982205  3
     93     92     91    113     1  180.0000000  15.3215155  2
    185    183    182    191     1  0.0000000  0.4354138  3
    104    105    106    110     1  180.0000000  15.3215155  2
      1      2      3     25     1  180.0000000  6.4108617  2
     16     24     23     42     1  180.0000000  15.3215155  2
     20     19     21     54     1  180.0000000  -0.6228629  4
     20     19     21     54     1  180.0000000  -0.5147696  3
     20     19     21     54     1  0.0000000  1.2298012  2
     20     19     21     54     1  0.0000000  -1.2652947  1
     54     53     56     57     1  180.0000000  15.3215155  2
     24     23     22     41     1  180.0000000  15.3215155  2
     11     10      9     12     1  180.0000000  4.1731909  2
     15     16     17     18     1  180.0000000  15.3215155  2
     63     65     98     99     1  180.0000000  12.9785537  2
     63     65     98     99     1  0.0000000  -1.7791009  1
    107    109    142    143     1  180.0000000  12.9785537  2
    107    109    142    143     1  0.0000000  -1.7791009  1
    148    147    157    176     1  180.0000000  15.3215155  2
     16     24     23     22     1  180.0000000  15.3215155  2
     91     90     89    114     1  0.0000000  0.1982205  3
     61     62     63     80     1  0.0000000  0.1115010  3
     92     91    113    132     1  180.0000000  15.3215155  2
      7      6     15     16     1  180.0000000  15.3215155  2
     62     63     65     84     1  0.0000000  0.7624859  2
     62     63     65     84     1  0.0000000  0.1243628  3
    110    106    105    123     1  180.0000000  15.3215155  2
    150    154    155    156     1  180.0000000  15.3215155  2
      6      7     14     34     1  180.0000000  15.3215155  2
     50     51     58     78     1  180.0000000  15.3215155  2
      4      5      6     15     1  180.0000000  15.3215155  2
    139    146    145    165     1  180.0000000  15.3215155  2
    149    150    151    153     1  0.0000000  0.1115010  3
      3      2      1     28     1  0.0000000  0.1982205  3
    185    183    184    193     1  0.0000000  0.4354138  3
     21     19     20     39     1  0.0000000  0.4834079  3
     93     94     95    102     1  180.0000000  4.8669776  2
     97    100    101    121     1  180.0000000  15.3215155  2
    184    183    182    189     1  0.0000000  0.4354138  3
    134    135    157    176     1  180.0000000  15.3215155  2
     63     62     66     67     1  180.0000000  15.3215155  2
     91     92     93     94     1  180.0000000  15.3215155  2
    168    151    152    171     1  0.0000000  0.7999501  3
     19     21     54     53     1  180.0000000  7.5690543  2
     19     21     54     53     1  0.0000000  -0.2015131  1
     14     13     12     32     1  180.0000000  15.3215155  2
     52     53     54     55     1  180.0000000  4.1731909  2
     36     19     20     39     1  0.0000000  0.7999501  3
      2      3     25     44     1  180.0000000  15.3215155  2
     20     19     21     40     1  0.0000000  0.7624859  2
     20     19     21     40     1  0.0000000  0.1243628  3
     61     62     63     64     1  0.0000000  0.1115010  3
    106    107    108    126     1  0.0000000  0.4834079  3
    164    144    145    165     1  180.0000000  15.3215155  2
     61     62     66     67     1  180.0000000  15.3215155  2
     94     95     96    119     1  180.0000000  15.3215155  2
    153    151    152    169     1  0.0000000  0.4834079  3
    140    139    146    166     1  180.0000000  15.3215155  2
     80     63     64     82     1  0.0000000  0.7999501  3
     24     16     17     35     1  180.0000000  15.3215155  2
    138    139    146    145     1  180.0000000  15.3215155  2
     46     47     48     73     1  180.0000000  15.3215155  2
      6      7      8     31     1  180.0000000  15.3215155  2
    104    105    106    107     1  180.0000000  15.3215155  2
     56     53     52     75     1  180.0000000  15.3215155  2
    147    148    149    150     1  180.0000000  15.3215155  2
    147    138    137    162     1  180.0000000  15.3215155  2
     65     63     64     82     1  0.0000000  0.4834079  3
    106    105    104    112     1  180.0000000  15.3215155  2
     47     48     49     50     1  180.0000000  15.3215155  2
     12      9      8     31     1  180.0000000  15.3215155  2
    186    183    182    191     1  0.0000000  0.4667359  3
    186    183    182    191     1  0.0000000  1.4361539  1
    113     91     92    117     1  180.0000000  15.3215155  2
     52     51     58     78     1  180.0000000  15.3215155  2
     53     56     57     58     1  180.0000000  15.3215155  2
    140    139    138    147     1  180.0000000  4.8669776  2
    186    183    184    194     1  0.0000000  0.4667359  3
    186    183    184    194     1  0.0000000  1.4361539  1
     56     57     58     78     1  180.0000000  15.3215155  2
     64     63     62     66     1  0.0000000  0.1115010  3
    133    134    135    157     1  180.0000000  6.4108617  2
     17     18     22     23     1  180.0000000  15.3215155  2
     18     17     16     24     1  180.0000000  15.3215155  2
    168    151    153    187     1  0.0000000  0.7624859  2
    168    151    153    187     1  0.0000000  0.1243628  3
     69     47     48     73     1  180.0000000  15.3215155  2
     53     52     51     58     1  180.0000000  15.3215155  2
     17     18     19     36     1  0.0000000  0.1115010  3
     91     92     93    118     1  180.0000000  15.3215155  2
     90     91     92     93     1  180.0000000  15.3215155  2
    140    141    142    143     1  180.0000000  4.1731909  2
     17     16     24     43     1  180.0000000  15.3215155  2
     77     57     58     78     1  180.0000000  15.3215155  2
    137    138    147    148     1  180.0000000  15.3215155  2
    149    150    151    152     1  0.0000000  0.1115010  3
     36     19     21     54     1  0.0000000  0.7624859  2
     36     19     21     54     1  0.0000000  0.1243628  3
    139    146    145    144     1  180.0000000  15.3215155  2
     58     51     57     78     4  180.0000000  1.5341333  2
    146    166    139    145     4  180.0000000  1.5341333  2
     56     76     53     57     4  180.0000000  1.5341333  2
    102     95    101    122     4  180.0000000  1.5341333  2
     91     90     92    113     4  180.0000000  1.5341333  2
     60     59     61     68     4  180.0000000  1.5341333  2
    136    137    161    135     4  180.0000000  1.5341333  2
    157    176    135    147     4  180.0000000  1.5341333  2
     25     44      3     15     4  180.0000000  1.5341333  2
     52     51     53     75     4  180.0000000  1.5341333  2
    150    154    149    151     4  180.0000000  1.5341333  2
     97     96     98    100     4  180.0000000  1.5341333  2
    112    104    111    131     4  180.0000000  1.5341333  2
    150    151    154    149     4  180.0000000  1.5341333  2
     14     34      7     13     4  180.0000000  1.5341333  2
    106    107    110    105     4  180.0000000  1.5341333  2
    140    139    141    163     4  180.0000000  1.5341333  2
    135    134    136    157     4  180.0000000  1.5341333  2
     65     98     63     84     4  180.0000000  1.3946667  2
     50     59     49     51     4  180.0000000  1.5341333  2
      6     15      5      7     4  180.0000000  1.5341333  2
     58     78     51     57     4  180.0000000  1.5341333  2
    106    105    107    110     4  180.0000000  1.5341333  2
    139    140    146    138     4  180.0000000  1.5341333  2
     50     49     51     59     4  180.0000000  1.5341333  2
     53     56     52     54     4  180.0000000  1.5341333  2
      4     29      3      5     4  180.0000000  1.5341333  2
    187    186    188    153     4  180.0000000  14.6440000  2
     93    118     92     94     4  180.0000000  1.5341333  2
     10      9     11    178     4  180.0000000  14.6440000  2
    111    130    110    112     4  180.0000000  1.5341333  2
     95     94     96    102     4  180.0000000  1.5341333  2
     92     91     93    117     4  180.0000000  1.5341333  2
     51     52     58     50     4  180.0000000  1.5341333  2
    142    141    143    109     4  180.0000000  1.5341333  2
     10    178      9     11     4  180.0000000  14.6440000  2
     21     54     19     40     4  180.0000000  1.3946667  2
    103     94    104    113     4  180.0000000  1.5341333  2
      7      6      8     14     4  180.0000000  1.5341333  2
      5     30      4      6     4  180.0000000  1.5341333  2
    153    151    172    187     4  180.0000000  1.3946667  2
     69     59     88     47     4  180.0000000  1.5341333  2
     22     41     18     23     4  180.0000000  1.5341333  2
     49     50     74     48     4  180.0000000  1.5341333  2
     61     62     79     60     4  180.0000000  1.5341333  2
     66     62     67     85     4  180.0000000  1.5341333  2
    100    120     97    101     4  180.0000000  1.5341333  2
     47     48     69     46     4  180.0000000  1.5341333  2
     48     47     49     73     4  180.0000000  1.5341333  2
     93     92     94    118     4  180.0000000  1.5341333  2
     18     22     17     19     4  180.0000000  1.5341333  2
     23     24     42     22     4  180.0000000  1.5341333  2
     16     17     24     15     4  180.0000000  1.5341333  2
     47     46     48     69     4  180.0000000  1.5341333  2
    142    109    141    143     4  180.0000000  1.5341333  2
     94    103     93     95     4  180.0000000  1.5341333  2
     54     21     53     55     4  180.0000000  1.5341333  2
    102    122     95    101     4  180.0000000  1.5341333  2
     22     23     41     18     4  180.0000000  1.5341333  2
     21     40     54     19     4  180.0000000  1.3946667  2
    156    148    155    175     4  180.0000000  1.5341333  2
    101    100    102    121     4  180.0000000  1.5341333  2
     10     11    178      9     4  180.0000000  14.6440000  2
     68     60     67     87     4  180.0000000  1.5341333  2
     50     51     59     49     4  180.0000000  1.5341333  2
     95     96    102     94     4  180.0000000  1.5341333  2
     68     87     60     67     4  180.0000000  1.5341333  2
    103    104    113     94     4  180.0000000  1.5341333  2
     24     23     43     16     4  180.0000000  1.5341333  2
     52     75     51     53     4  180.0000000  1.5341333  2
      4      3      5     29     4  180.0000000  1.5341333  2
     61     79     60     62     4  180.0000000  1.5341333  2
     62     61     63     66     4  180.0000000  1.5341333  2
     12     13     32      9     4  180.0000000  1.5341333  2
      5      4      6     30     4  180.0000000  1.5341333  2
     61     60     62     79     4  180.0000000  1.5341333  2
    104    112    103    105     4  180.0000000  1.5341333  2
      8     31      7      9     4  180.0000000  1.5341333  2
    149    150    167    148     4  180.0000000  1.5341333  2
     21     19     40     54     4  180.0000000  1.3946667  2
    104    105    112    103     4  180.0000000  1.5341333  2
     14     13     34      7     4  180.0000000  1.5341333  2
     25      3     15     44     4  180.0000000  1.5341333  2
     57     77     56     58     4  180.0000000  1.5341333  2
    113     91    103    132     4  180.0000000  1.5341333  2
    113    103    132     91     4  180.0000000  1.5341333  2
     96     97    119     95     4  180.0000000  1.5341333  2
     97    100     96     98     4  180.0000000  1.5341333  2
    103    113     94    104     4  180.0000000  1.5341333  2
      3      4     25      2     4  180.0000000  1.5341333  2
     65     84     98     63     4  180.0000000  1.3946667  2
    100     97    101    120     4  180.0000000  1.5341333  2
    145    165    144    146     4  180.0000000  1.5341333  2
    139    138    140    146     4  180.0000000  1.5341333  2
     66     67     85     62     4  180.0000000  1.5341333  2
     13     33     12     14     4  180.0000000  1.5341333  2
    112    111    131    104     4  180.0000000  1.5341333  2
      9     12      8     10     4  180.0000000  1.5341333  2
     48     73     47     49     4  180.0000000  1.5341333  2
    146    139    145    166     4  180.0000000  1.5341333  2
    150    149    151    154     4  180.0000000  1.5341333  2
     67     66     68     86     4  180.0000000  1.5341333  2
     18     17     19     22     4  180.0000000  1.5341333  2
    148    147    149    156     4  180.0000000  1.5341333  2
    144    164    141    145     4  180.0000000  1.5341333  2
     59     50     60     69     4  180.0000000  1.5341333  2
    141    142    144    140     4  180.0000000  1.5341333  2
    138    139    147    137     4  180.0000000  1.5341333  2
     59     69     50     60     4  180.0000000  1.5341333  2
      6      5      7     15     4  180.0000000  1.5341333  2
     54     53     55     21     4  180.0000000  1.5341333  2
     59     60     69     50     4  180.0000000  1.5341333  2
    109    128    142    107     4  180.0000000  1.3946667  2
     53     52     54     56     4  180.0000000  1.5341333  2
     57     56     58     77     4  180.0000000  1.5341333  2
     95    102     94     96     4  180.0000000  1.5341333  2
    145    146    165    144     4  180.0000000  1.5341333  2
    137    138    162    136     4  180.0000000  1.5341333  2
    113    132     91    103     4  180.0000000  1.5341333  2
     91     92    113     90     4  180.0000000  1.5341333  2
    141    144    140    142     4  180.0000000  1.5341333  2
    111    110    112    130     4  180.0000000  1.5341333  2
     94     95    103     93     4  180.0000000  1.5341333  2
     92     93    117     91     4  180.0000000  1.5341333  2
      8      9     31      7     4  180.0000000  1.5341333  2
     14      7     13     34     4  180.0000000  1.5341333  2
     49     74     48     50     4  180.0000000  1.5341333  2
     23     42     22     24     4  180.0000000  1.5341333  2
     18     19     22     17     4  180.0000000  1.5341333  2
    110    106    111    129     4  180.0000000  1.5341333  2
    111    112    130    110     4  180.0000000  1.5341333  2
     12     32      9     13     4  180.0000000  1.5341333  2
     58     57     78     51     4  180.0000000  1.5341333  2
     97     98    100     96     4  180.0000000  1.5341333  2
      9     10     12      8     4  180.0000000  1.5341333  2
     16     24     15     17     4  180.0000000  1.5341333  2
    105    106    123    104     4  180.0000000  1.5341333  2
    136    135    137    161     4  180.0000000  1.5341333  2
    110    129    106    111     4  180.0000000  1.5341333  2
      3     25      2      4     4  180.0000000  1.5341333  2
     57     58     77     56     4  180.0000000  1.5341333  2
     56     53     57     76     4  180.0000000  1.5341333  2
     53     54     56     52     4  180.0000000  1.5341333  2
     17     18     35     16     4  180.0000000  1.5341333  2
      7     14      6      8     4  180.0000000  1.5341333  2
     22     18     23     41     4  180.0000000  1.5341333  2
    154    155    173    150     4  180.0000000  1.5341333  2
    155    154    156    174     4  180.0000000  1.5341333  2
     98     97     99     65     4  180.0000000  1.5341333  2
     91    113     90     92     4  180.0000000  1.5341333  2
     67     68     86     66     4  180.0000000  1.5341333  2
    106    110    105    107     4  180.0000000  1.5341333  2
    101    102    121    100     4  180.0000000  1.5341333  2
    155    156    174    154     4  180.0000000  1.5341333  2
      4      5     29      3     4  180.0000000  1.5341333  2
    138    137    139    147     4  180.0000000  1.5341333  2
    156    155    175    148     4  180.0000000  1.5341333  2
      3      2      4     25     4  180.0000000  1.5341333  2
    144    145    164    141     4  180.0000000  1.5341333  2
    187    188    153    186     4  180.0000000  14.6440000  2
    154    150    155    173     4  180.0000000  1.5341333  2
    109    107    128    142     4  180.0000000  1.3946667  2
     12      9     13     32     4  180.0000000  1.5341333  2
     17     35     16     18     4  180.0000000  1.5341333  2
    146    145    166    139     4  180.0000000  1.5341333  2
      5      6     30      4     4  180.0000000  1.5341333  2
    102    101    122     95     4  180.0000000  1.5341333  2
    110    111    129    106     4  180.0000000  1.5341333  2
     24     16     23     43     4  180.0000000  1.5341333  2
     47     69     46     48     4  180.0000000  1.5341333  2
    139    146    138    140     4  180.0000000  1.5341333  2
     60     68     59     61     4  180.0000000  1.5341333  2
    105    123    104    106     4  180.0000000  1.5341333  2
     15     25      6     16     4  180.0000000  1.5341333  2
    138    147    137    139     4  180.0000000  1.5341333  2
     65     63     84     98     4  180.0000000  1.3946667  2
    187    153    186    188     4  180.0000000  14.6440000  2
     51     58     50     52     4  180.0000000  1.5341333  2
     69     88     47     59     4  180.0000000  1.5341333  2
     94     93     95    103     4  180.0000000  1.5341333  2
     51     50     52     58     4  180.0000000  1.5341333  2
     13     14     33     12     4  180.0000000  1.5341333  2
     56     57     76     53     4  180.0000000  1.5341333  2
    136    161    135    137     4  180.0000000  1.5341333  2
     17     16     18     35     4  180.0000000  1.5341333  2
     25     15     44      3     4  180.0000000  1.5341333  2
    135    136    157    134     4  180.0000000  1.5341333  2
     49     48     50     74     4  180.0000000  1.5341333  2
      7      8     14      6     4  180.0000000  1.5341333  2
     66     85     62     67     4  180.0000000  1.5341333  2
     60     61     68     59     4  180.0000000  1.5341333  2
    100    101    120     97     4  180.0000000  1.5341333  2
    147    157    138    148     4  180.0000000  1.5341333  2
    112    131    104    111     4  180.0000000  1.5341333  2
     69     47     59     88     4  180.0000000  1.5341333  2
     62     63     66     61     4  180.0000000  1.5341333  2
     67     86     66     68     4  180.0000000  1.5341333  2
    142    143    109    141     4  180.0000000  1.5341333  2
     24     43     16     23     4  180.0000000  1.5341333  2
     23     22     24     42     4  180.0000000  1.5341333  2
    149    148    150    167     4  180.0000000  1.5341333  2
     92    117     91     93     4  180.0000000  1.5341333  2
    156    175    148    155     4  180.0000000  1.5341333  2
    157    147    176    135     4  180.0000000  1.5341333  2
    148    149    156    147     4  180.0000000  1.5341333  2
    141    140    142    144     4  180.0000000  1.5341333  2
    153    187    151    172     4  180.0000000  1.3946667  2
    104    103    105    112     4  180.0000000  1.5341333  2
    145    144    146    165     4  180.0000000  1.5341333  2
    147    138    148    157     4  180.0000000  1.5341333  2
     13     12     14     33     4  180.0000000  1.5341333  2
    137    162    136    138     4  180.0000000  1.5341333  2
      6      7     15      5     4  180.0000000  1.5341333  2
     54     55     21     53     4  180.0000000  1.5341333  2
    101    121    100    102     4  180.0000000  1.5341333  2
    147    148    157    138     4  180.0000000  1.5341333  2
    153    172    187    151     4  180.0000000  1.3946667  2
    105    104    106    123     4  180.0000000  1.5341333  2
     48     49     73     47     4  180.0000000  1.5341333  2
    135    157    134    136     4  180.0000000  1.5341333  2
    109    142    107    128     4  180.0000000  1.3946667  2
     96    119     95     97     4  180.0000000  1.5341333  2
     52     53     75     51     4  180.0000000  1.5341333  2
     98     65     97     99     4  180.0000000  1.5341333  2
     93     94    118     92     4  180.0000000  1.5341333  2
     98     99     65     97     4  180.0000000  1.5341333  2
     15      6     16     25     4  180.0000000  1.5341333  2
     68     67     87     60     4  180.0000000  1.5341333  2
    140    141    163    139     4  180.0000000  1.5341333  2
      8      7      9     31     4  180.0000000  1.5341333  2
     62     66     61     63     4  180.0000000  1.5341333  2
    148    156    147    149     4  180.0000000  1.5341333  2
     16     15     17     24     4  180.0000000  1.5341333  2
    144    141    145    164     4  180.0000000  1.5341333  2
     96     95     97    119     4  180.0000000  1.5341333  2
      9      8     10     12     4  180.0000000  1.5341333  2
    140    163    139    141     4  180.0000000  1.5341333  2
     15     16     25      6     4  180.0000000  1.5341333  2
    137    136    138    162     4  180.0000000  1.5341333  2
    149    167    148    150     4  180.0000000  1.5341333  2
    155    174    154    156     4  180.0000000  1.5341333  2
    154    173    150    155     4  180.0000000  1.5341333  2
    157    135    147    176     4  180.0000000  1.5341333  2


[ moleculetype ]
; Name            nrexcl
MOL1          3

[ atoms ]
;   nr       type  resnr residue  atom   cgnr    charge       mass  typeB    chargeB      massB
; residue    1 MOL1 rtp MOL1 q -0.0
    1     MOL1_0      1   MOL1     Cl      1 -0.11398000  35.453200   ; qtot -0.113980
    2     MOL1_1      1   MOL1      C      2 0.22337000   9.994886   ; qtot 0.109390
    3     MOL1_2      1   MOL1     Cl      3 -0.11398000  35.453200   ; qtot -0.004590
    4     MOL1_3      1   MOL1     Cl      4 -0.11398000  35.453200   ; qtot -0.118570
    5     MOL1_4      1   MOL1      H      5 0.11857000   3.023841   ; qtot -0.000000

[ bonds ]
;    ai     aj funct         c0         c1         c2         c3
      1      2     1   0.17915 144269.526419
      2      3     1   0.17915 144269.526419
      2      4     1   0.17915 144269.526419
      2      5     1   0.10939 309655.084322

[ angles ]
;    ai     aj     ak funct         c0         c1         c2         c3
      1      2      4     1   116.5475863 445.222087
      1      2      5     1   116.5475863 445.222087
      3      2      4     1   116.5475863 445.222087
      3      2      5     1   116.5475863 445.222087
      1      2      3     1   116.5475863 445.222087
      4      2      5     1   116.5475863 445.222087

[ system ]
; Name
FOO

[ molecules ]
; Compound       #mols
mom_tetramer.pdb      1
MOL1               634
