Generated by Interchange
3367
    1mom_t    C    1   1.148   1.495   0.357
    1mom_t    O    2   1.048   1.479   0.456
    1mom_t    C    3   0.951   1.385   0.432
    1mom_t    C    4   0.938   1.307   0.318
    1mom_t    C    5   0.830   1.217   0.307
    1mom_t    C    6   0.735   1.204   0.409
    1mom_t    C    7   0.622   1.110   0.388
    1mom_t    C    8   0.643   0.973   0.364
    1mom_t    C    9   0.535   0.885   0.348
    1mom_t    C   10   0.565   0.743   0.310
    1mom_t    O   11   0.678   0.699   0.299
    1mom_t    C   12   0.403   0.932   0.358
    1mom_t    C   13   0.381   1.067   0.380
    1mom_t    C   14   0.489   1.155   0.395
    1mom_t    C   15   0.749   1.284   0.526
    1mom_t    C   16   0.656   1.271   0.641
    1mom_t    C   17   0.583   1.381   0.689
    1mom_t    C   18   0.486   1.364   0.790
    1mom_t    C   19   0.411   1.483   0.847
    1mom_t    C   20   0.262   1.478   0.812
    1mom_t    N   21   0.435   1.505   0.991
    1mom_t    C   22   0.459   1.234   0.834
    1mom_t    C   23   0.538   1.126   0.796
    1mom_t    C   24   0.637   1.145   0.701
    1mom_t    C   25   0.856   1.373   0.534
    1mom_t    H   26   1.105   1.531   0.263
    1mom_t    H   27   1.205   1.404   0.342
    1mom_t    H   28   1.217   1.573   0.392
    1mom_t    H   29   1.009   1.312   0.237
    1mom_t    H   30   0.823   1.156   0.216
    1mom_t    H   31   0.744   0.935   0.357
    1mom_t    H   32   0.318   0.865   0.346
    1mom_t    H   33   0.279   1.104   0.389
    1mom_t    H   34   0.467   1.260   0.414
    1mom_t    H   35   0.600   1.479   0.647
    1mom_t    H   36   0.452   1.574   0.800
    1mom_t    H   37   0.211   1.569   0.845
    1mom_t    H   38   0.247   1.468   0.704
    1mom_t    H   39   0.212   1.393   0.861
    1mom_t    H   40   0.402   1.599   1.012
    1mom_t    H   41   0.379   1.215   0.905
    1mom_t    H   42   0.522   1.029   0.840
    1mom_t    H   43   0.696   1.060   0.670
    1mom_t    H   44   0.868   1.434   0.623
    1mom_t    C   45   0.074   0.619   1.512
    1mom_t    O   46   0.190   0.686   1.559
    1mom_t    C   47   0.244   0.783   1.478
    1mom_t    C   48   0.197   0.822   1.353
    1mom_t    C   49   0.263   0.922   1.282
    1mom_t    C   50   0.378   0.986   1.333
    1mom_t    C   51   0.447   1.089   1.251
    1mom_t    C   52   0.382   1.206   1.209
    1mom_t    C   53   0.451   1.306   1.137
    1mom_t    C   54   0.374   1.423   1.085
    1mom_t    O   55   0.261   1.448   1.125
    1mom_t    C   56   0.587   1.290   1.110
    1mom_t    C   57   0.653   1.173   1.148
    1mom_t    C   58   0.583   1.074   1.217
    1mom_t    C   59   0.424   0.948   1.462
    1mom_t    C   60   0.539   1.014   1.527
    1mom_t    C   61   0.652   0.941   1.571
    1mom_t    C   62   0.766   1.007   1.620
    1mom_t    C   63   0.885   0.929   1.673
    1mom_t    C   64   1.008   0.952   1.585
    1mom_t    N   65   0.914   0.953   1.816
    1mom_t    C   66   0.766   1.147   1.618
    1mom_t    C   67   0.652   1.220   1.588
    1mom_t    C   68   0.539   1.154   1.544
    1mom_t    C   69   0.356   0.846   1.531
    1mom_t    H   70   0.094   0.564   1.420
    1mom_t    H   71  -0.009   0.689   1.500
    1mom_t    H   72   0.045   0.546   1.589
    1mom_t    H   73   0.109   0.777   1.308
    1mom_t    H   74   0.225   0.950   1.183
    1mom_t    H   75   0.276   1.220   1.231
    1mom_t    H   76   0.642   1.365   1.053
    1mom_t    H   77   0.757   1.159   1.123
    1mom_t    H   78   0.637   0.984   1.248
    1mom_t    H   79   0.652   0.833   1.562
    1mom_t    H   80   0.861   0.822   1.668
    1mom_t    H   81   1.092   0.889   1.618
    1mom_t    H   82   0.987   0.927   1.480
    1mom_t    H   83   1.042   1.056   1.588
    1mom_t    H   84   0.979   0.880   1.844
    1mom_t    H   85   0.855   1.202   1.647
    1mom_t    H   86   0.653   1.328   1.598
    1mom_t    H   87   0.451   1.212   1.517
    1mom_t    H   88   0.391   0.816   1.630
    1mom_t    C   89   1.141   2.013   1.933
    1mom_t    O   90   1.070   1.944   2.035
    1mom_t    C   91   1.025   1.818   2.006
    1mom_t    C   92   1.042   1.750   1.886
    1mom_t    C   93   0.989   1.620   1.871
    1mom_t    C   94   0.919   1.557   1.976
    1mom_t    C   95   0.860   1.422   1.953
    1mom_t    C   96   0.941   1.312   1.918
    1mom_t    C   97   0.886   1.183   1.904
    1mom_t    C   98   0.973   1.072   1.856
    1mom_t    O   99   1.095   1.084   1.855
    1mom_t    C  100   0.749   1.164   1.927
    1mom_t    C  101   0.667   1.272   1.958
    1mom_t    C  102   0.723   1.400   1.971
    1mom_t    C  103   0.905   1.626   2.099
    1mom_t    C  104   0.841   1.564   2.217
    1mom_t    C  105   0.729   1.623   2.281
    1mom_t    C  106   0.661   1.556   2.383
    1mom_t    C  107   0.545   1.622   2.456
    1mom_t    C  108   0.413   1.550   2.428
    1mom_t    N  109   0.568   1.642   2.601
    1mom_t    C  110   0.701   1.426   2.415
    1mom_t    C  111   0.817   1.371   2.362
    1mom_t    C  112   0.887   1.441   2.265
    1mom_t    C  113   0.957   1.756   2.111
    1mom_t    H  114   1.078   2.029   1.844
    1mom_t    H  115   1.234   1.961   1.907
    1mom_t    H  116   1.168   2.112   1.972
    1mom_t    H  117   1.095   1.793   1.802
    1mom_t    H  118   1.002   1.569   1.776
    1mom_t    H  119   1.047   1.326   1.900
    1mom_t    H  120   0.703   1.066   1.913
    1mom_t    H  121   0.560   1.258   1.971
    1mom_t    H  122   0.657   1.482   1.998
    1mom_t    H  123   0.694   1.720   2.247
    1mom_t    H  124   0.534   1.724   2.417
    1mom_t    H  125   0.329   1.604   2.473
    1mom_t    H  126   0.395   1.542   2.320
    1mom_t    H  127   0.412   1.448   2.469
    1mom_t    H  128   0.497   1.707   2.632
    1mom_t    H  129   0.646   1.366   2.487
    1mom_t    H  130   0.853   1.274   2.397
    1mom_t    H  131   0.976   1.395   2.222
    1mom_t    H  132   0.948   1.810   2.205
    1mom_t    C  133   0.714   0.659   3.043
    1mom_t    O  134   0.789   0.770   3.090
    1mom_t    C  135   0.783   0.886   3.018
    1mom_t    C  136   0.713   0.906   2.900
    1mom_t    C  137   0.718   1.031   2.836
    1mom_t    C  138   0.793   1.138   2.888
    1mom_t    C  139   0.798   1.266   2.814
    1mom_t    C  140   0.682   1.340   2.786
    1mom_t    C  141   0.689   1.465   2.724
    1mom_t    C  142   0.562   1.534   2.687
    1mom_t    O  143   0.454   1.499   2.734
    1mom_t    C  144   0.814   1.518   2.689
    1mom_t    C  145   0.930   1.444   2.711
    1mom_t    C  146   0.922   1.319   2.772
    1mom_t    C  147   0.864   1.118   3.010
    1mom_t    C  148   0.939   1.227   3.077
    1mom_t    C  149   1.077   1.214   3.108
    1mom_t    C  150   1.149   1.321   3.165
    1mom_t    C  151   1.298   1.307   3.197
    1mom_t    C  152   1.386   1.378   3.093
    1mom_t    N  153   1.327   1.346   3.335
    1mom_t    C  154   1.081   1.441   3.189
    1mom_t    C  155   0.945   1.454   3.163
    1mom_t    C  156   0.875   1.347   3.109
    1mom_t    C  157   0.858   0.991   3.072
    1mom_t    H  158   0.749   0.627   2.944
    1mom_t    H  159   0.607   0.681   3.042
    1mom_t    H  160   0.730   0.576   3.112
    1mom_t    H  161   0.653   0.828   2.855
    1mom_t    H  162   0.663   1.043   2.743
    1mom_t    H  163   0.584   1.299   2.814
    1mom_t    H  164   0.822   1.614   2.637
    1mom_t    H  165   1.026   1.483   2.679
    1mom_t    H  166   1.014   1.263   2.790
    1mom_t    H  167   1.127   1.121   3.084
    1mom_t    H  168   1.324   1.200   3.193
    1mom_t    H  169   1.492   1.364   3.116
    1mom_t    H  170   1.366   1.342   2.992
    1mom_t    H  171   1.368   1.486   3.090
    1mom_t    H  172   1.382   1.284   3.393
    1mom_t    H  173   1.132   1.528   3.228
    1mom_t    H  174   0.894   1.548   3.184
    1mom_t    H  175   0.769   1.360   3.088
    1mom_t    H  176   0.910   0.975   3.166
    1mom_t    C  177   0.468   0.584   0.171
    1mom_t    O  178   0.450   0.680   0.274
    1mom_t    H  179   0.472   0.637   0.076
    1mom_t    H  180   0.381   0.518   0.169
    1mom_t    H  181   0.558   0.523   0.184
    1mom_t    C  182   1.235   1.619   3.700
    1mom_t    C  183   1.278   1.629   3.553
    1mom_t    C  184   1.165   1.702   3.477
    1mom_t    C  185   1.409   1.707   3.546
    1mom_t    O  186   1.299   1.492   3.506
    1mom_t    C  187   1.331   1.478   3.374
    1mom_t    O  188   1.352   1.570   3.298
    1mom_t    H  189   1.222   1.718   3.744
    1mom_t    H  190   1.140   1.565   3.710
    1mom_t    H  191   1.309   1.564   3.759
    1mom_t    H  192   1.072   1.643   3.478
    1mom_t    H  193   1.189   1.721   3.372
    1mom_t    H  194   1.144   1.800   3.522
    1mom_t    H  195   1.490   1.651   3.593
    1mom_t    H  196   1.441   1.726   3.443
    1mom_t    H  197   1.400   1.805   3.594
    2MOL1    Cl  198   4.175   0.394   2.690
    2MOL1     C  199   4.345   0.343   2.681
    2MOL1    Cl  200   4.389   0.302   2.515
    2MOL1    Cl  201   4.451   0.470   2.744
    2MOL1     H  202   4.357   0.254   2.744
    2MOL1    Cl  203   1.842   2.483   4.403
    2MOL1     C  204   1.679   2.496   4.335
    2MOL1    Cl  205   1.645   2.360   4.226
    2MOL1    Cl  206   1.558   2.503   4.465
    2MOL1     H  207   1.673   2.589   4.278
    2MOL1    Cl  208   1.805   2.561   0.988
    2MOL1     C  209   1.834   2.390   0.953
    2MOL1    Cl  210   1.912   2.311   1.091
    2MOL1    Cl  211   1.682   2.308   0.913
    2MOL1     H  212   1.901   2.383   0.867
    2MOL1    Cl  213   2.599   0.861   3.798
    2MOL1     C  214   2.603   0.685   3.782
    2MOL1    Cl  215   2.712   0.614   3.902
    2MOL1    Cl  216   2.440   0.617   3.799
    2MOL1     H  217   2.640   0.660   3.682
    2MOL1    Cl  218   2.175   1.614   2.767
    2MOL1     C  219   2.257   1.767   2.802
    2MOL1    Cl  220   2.159   1.867   2.910
    2MOL1    Cl  221   2.417   1.737   2.872
    2MOL1     H  222   2.271   1.821   2.708
    2MOL1    Cl  223   5.112   1.219   0.699
    2MOL1     C  224   5.042   1.277   0.547
    2MOL1    Cl  225   4.867   1.249   0.544
    2MOL1    Cl  226   5.079   1.449   0.524
    2MOL1     H  227   5.088   1.221   0.465
    2MOL1    Cl  228   2.848   0.743   2.422
    2MOL1     C  229   2.909   0.839   2.557
    2MOL1    Cl  230   3.058   0.923   2.511
    2MOL1    Cl  231   2.787   0.955   2.612
    2MOL1     H  232   2.932   0.772   2.640
    2MOL1    Cl  233   3.902   3.964   4.804
    2MOL1     C  234   3.765   4.050   4.730
    2MOL1    Cl  235   3.808   4.218   4.697
    2MOL1    Cl  236   3.713   3.968   4.582
    2MOL1     H  237   3.682   4.049   4.801
    2MOL1    Cl  238   0.798   4.248   3.334
    2MOL1     C  239   0.777   4.144   3.477
    2MOL1    Cl  240   0.753   3.976   3.428
    2MOL1    Cl  241   0.917   4.159   3.584
    2MOL1     H  242   0.688   4.178   3.531
    2MOL1    Cl  243   3.989   1.254   2.478
    2MOL1     C  244   3.924   1.379   2.584
    2MOL1    Cl  245   3.866   1.517   2.490
    2MOL1    Cl  246   3.795   1.314   2.686
    2MOL1     H  247   4.005   1.414   2.650
    2MOL1    Cl  248   4.987   3.184   4.348
    2MOL1     C  249   4.893   3.100   4.472
    2MOL1    Cl  250   4.818   2.954   4.406
    2MOL1    Cl  251   4.996   3.060   4.611
    2MOL1     H  252   4.814   3.167   4.506
    2MOL1    Cl  253   0.505   2.748   1.533
    2MOL1     C  254   0.547   2.887   1.432
    2MOL1    Cl  255   0.671   2.843   1.313
    2MOL1    Cl  256   0.403   2.951   1.351
    2MOL1     H  257   0.588   2.966   1.496
    2MOL1    Cl  258   1.667   2.191   2.322
    2MOL1     C  259   1.533   2.084   2.365
    2MOL1    Cl  260   1.394   2.179   2.422
    2MOL1    Cl  261   1.487   1.983   2.227
    2MOL1     H  262   1.565   2.019   2.446
    2MOL1    Cl  263   4.401   4.463   0.825
    2MOL1     C  264   4.288   4.441   0.690
    2MOL1    Cl  265   4.254   4.269   0.665
    2MOL1    Cl  266   4.138   4.530   0.720
    2MOL1     H  267   4.334   4.480   0.600
    2MOL1    Cl  268   2.542   5.142   3.888
    2MOL1     C  269   2.629   5.262   3.791
    2MOL1    Cl  270   2.767   5.188   3.709
    2MOL1    Cl  271   2.520   5.338   3.673
    2MOL1     H  272   2.666   5.340   3.858
    2MOL1    Cl  273   2.953   1.771   3.216
    2MOL1     C  274   2.846   1.886   3.135
    2MOL1    Cl  275   2.855   1.868   2.959
    2MOL1    Cl  276   2.679   1.866   3.191
    2MOL1     H  277   2.879   1.987   3.161
    2MOL1    Cl  278   0.605   2.989   5.098
    2MOL1     C  279   0.677   3.114   4.995
    2MOL1    Cl  280   0.640   3.276   5.057
    2MOL1    Cl  281   0.852   3.090   4.982
    2MOL1     H  282   0.634   3.105   4.895
    2MOL1    Cl  283   4.624   3.389   2.208
    2MOL1     C  284   4.589   3.555   2.159
    2MOL1    Cl  285   4.701   3.607   2.032
    2MOL1    Cl  286   4.421   3.569   2.103
    2MOL1     H  287   4.602   3.620   2.245
    2MOL1    Cl  288   2.065   1.202   3.631
    2MOL1     C  289   2.159   1.144   3.493
    2MOL1    Cl  290   2.052   1.088   3.363
    2MOL1    Cl  291   2.268   1.270   3.434
    2MOL1     H  292   2.219   1.059   3.526
    2MOL1    Cl  293   1.465   2.085   2.986
    2MOL1     C  294   1.407   2.035   2.827
    2MOL1    Cl  295   1.342   1.870   2.833
    2MOL1    Cl  296   1.284   2.147   2.767
    2MOL1     H  297   1.491   2.036   2.758
    2MOL1    Cl  298   3.142   4.587   4.961
    2MOL1     C  299   3.147   4.679   4.810
    2MOL1    Cl  300   3.068   4.836   4.830
    2MOL1    Cl  301   3.314   4.699   4.754
    2MOL1     H  302   3.092   4.622   4.733
    2MOL1    Cl  303   2.610   2.364   1.929
    2MOL1     C  304   2.708   2.477   2.023
    2MOL1    Cl  305   2.872   2.486   1.958
    2MOL1    Cl  306   2.633   2.638   2.024
    2MOL1     H  307   2.713   2.441   2.126
    2MOL1    Cl  308   2.844   1.961   5.187
    2MOL1     C  309   2.736   2.030   5.065
    2MOL1    Cl  310   2.591   2.098   5.140
    2MOL1    Cl  311   2.821   2.155   4.970
    2MOL1     H  312   2.706   1.950   4.996
    2MOL1    Cl  313   4.883   0.263   1.423
    2MOL1     C  314   4.860   0.305   1.252
    2MOL1    Cl  315   4.721   0.218   1.185
    2MOL1    Cl  316   4.839   0.480   1.234
    2MOL1     H  317   4.950   0.275   1.197
    2MOL1    Cl  318   3.069   1.033   1.182
    2MOL1     C  319   3.053   0.875   1.260
    2MOL1    Cl  320   3.119   0.878   1.424
    2MOL1    Cl  321   2.883   0.824   1.262
    2MOL1     H  322   3.109   0.802   1.201
    2MOL1    Cl  323   4.024   3.356   1.832
    2MOL1     C  324   3.900   3.243   1.889
    2MOL1    Cl  325   3.969   3.082   1.913
    2MOL1    Cl  326   3.826   3.303   2.038
    2MOL1     H  327   3.822   3.236   1.812
    2MOL1    Cl  328   0.935   0.768   3.698
    2MOL1     C  329   1.064   0.888   3.687
    2MOL1    Cl  330   1.043   1.013   3.811
    2MOL1    Cl  331   1.223   0.810   3.704
    2MOL1     H  332   1.059   0.935   3.589
    2MOL1    Cl  333   0.530   5.110   4.195
    2MOL1     C  334   0.691   5.170   4.153
    2MOL1    Cl  335   0.780   5.049   4.058
    2MOL1    Cl  336   0.679   5.323   4.063
    2MOL1     H  337   0.746   5.189   4.245
    2MOL1    Cl  338   2.959   3.550   3.459
    2MOL1     C  339   2.843   3.684   3.450
    2MOL1    Cl  340   2.867   3.777   3.301
    2MOL1    Cl  341   2.677   3.623   3.459
    2MOL1     H  342   2.860   3.750   3.535
    2MOL1    Cl  343   0.403   0.803   2.339
    2MOL1     C  344   0.377   0.902   2.484
    2MOL1    Cl  345   0.493   1.035   2.491
    2MOL1    Cl  346   0.210   0.963   2.488
    2MOL1     H  347   0.392   0.838   2.572
    2MOL1    Cl  348   4.836   2.075   2.193
    2MOL1     C  349   4.985   1.993   2.142
    2MOL1    Cl  350   4.949   1.867   2.023
    2MOL1    Cl  351   5.101   2.110   2.077
    2MOL1     H  352   5.030   1.945   2.230
    2MOL1    Cl  353   1.415   3.645   2.278
    2MOL1     C  354   1.261   3.558   2.278
    2MOL1    Cl  355   1.193   3.552   2.442
    2MOL1    Cl  356   1.146   3.635   2.166
    2MOL1     H  357   1.278   3.456   2.244
    2MOL1    Cl  358   4.063   1.396   1.972
    2MOL1     C  359   3.915   1.439   2.059
    2MOL1    Cl  360   3.788   1.487   1.946
    2MOL1    Cl  361   3.861   1.304   2.160
    2MOL1     H  362   3.937   1.524   2.124
    2MOL1    Cl  363   0.644   2.121   2.180
    2MOL1     C  364   0.803   2.180   2.131
    2MOL1    Cl  365   0.868   2.082   1.998
    2MOL1    Cl  366   0.795   2.351   2.085
    2MOL1     H  367   0.871   2.170   2.217
    2MOL1    Cl  368   2.224   3.944   1.826
    2MOL1     C  369   2.162   3.787   1.772
    2MOL1    Cl  370   2.241   3.738   1.621
    2MOL1    Cl  371   2.187   3.665   1.898
    2MOL1     H  372   2.055   3.797   1.754
    2MOL1    Cl  373   0.944   4.395   1.250
    2MOL1     C  374   0.997   4.532   1.152
    2MOL1    Cl  375   1.034   4.672   1.254
    2MOL1    Cl  376   1.138   4.488   1.053
    2MOL1     H  377   0.915   4.560   1.084
    2MOL1    Cl  378   0.107   1.371   4.884
    2MOL1     C  379   0.241   1.293   4.799
    2MOL1    Cl  380   0.374   1.258   4.910
    2MOL1    Cl  381   0.186   1.146   4.717
    2MOL1     H  382   0.278   1.363   4.723
    2MOL1    Cl  383   1.177   3.815   4.789
    2MOL1     C  384   1.334   3.896   4.788
    2MOL1    Cl  385   1.462   3.784   4.739
    2MOL1    Cl  386   1.331   4.037   4.680
    2MOL1     H  387   1.356   3.931   4.889
    2MOL1    Cl  388   0.480   0.794   4.907
    2MOL1     C  389   0.319   0.745   4.851
    2MOL1    Cl  390   0.205   0.880   4.864
    2MOL1    Cl  391   0.326   0.685   4.685
    2MOL1     H  392   0.283   0.664   4.915
    2MOL1    Cl  393   1.209   4.429   2.181
    2MOL1     C  394   1.088   4.310   2.231
    2MOL1    Cl  395   1.153   4.205   2.358
    2MOL1    Cl  396   0.941   4.391   2.287
    2MOL1     H  397   1.063   4.248   2.145
    2MOL1    Cl  398   3.731   3.957   0.208
    2MOL1     C  399   3.684   4.126   0.179
    2MOL1    Cl  400   3.804   4.206   0.075
    2MOL1    Cl  401   3.523   4.135   0.106
    2MOL1     H  402   3.682   4.178   0.275
    2MOL1    Cl  403   1.621   1.643   1.369
    2MOL1     C  404   1.600   1.486   1.448
    2MOL1    Cl  405   1.755   1.404   1.466
    2MOL1    Cl  406   1.522   1.507   1.606
    2MOL1     H  407   1.535   1.425   1.386
    2MOL1    Cl  408   3.537   0.515   2.273
    2MOL1     C  409   3.436   0.659   2.297
    2MOL1    Cl  410   3.536   0.798   2.340
    2MOL1    Cl  411   3.341   0.693   2.151
    2MOL1     H  412   3.367   0.639   2.379
    2MOL1    Cl  413   0.102   0.544   1.854
    2MOL1     C  414   0.148   0.625   2.004
    2MOL1    Cl  415   0.319   0.670   2.001
    2MOL1    Cl  416   0.047   0.768   2.031
    2MOL1     H  417   0.132   0.556   2.087
    2MOL1    Cl  418   3.732   2.671   1.144
    2MOL1     C  419   3.889   2.593   1.117
    2MOL1    Cl  420   3.911   2.557   0.945
    2MOL1    Cl  421   4.021   2.695   1.177
    2MOL1     H  422   3.890   2.499   1.172
    2MOL1    Cl  423   4.975   1.618   3.379
    2MOL1     C  424   4.933   1.788   3.404
    2MOL1    Cl  425   4.795   1.802   3.514
    2MOL1    Cl  426   5.072   1.878   3.466
    2MOL1     H  427   4.904   1.831   3.308
    2MOL1    Cl  428   1.857   3.495   2.403
    2MOL1     C  429   2.005   3.591   2.380
    2MOL1    Cl  430   1.997   3.680   2.227
    2MOL1    Cl  431   2.029   3.702   2.515
    2MOL1     H  432   2.090   3.522   2.375
    2MOL1    Cl  433   0.498   0.328   4.738
    2MOL1     C  434   0.571   0.268   4.887
    2MOL1    Cl  435   0.504   0.110   4.931
    2MOL1    Cl  436   0.747   0.258   4.871
    2MOL1     H  437   0.548   0.338   4.968
    2MOL1    Cl  438   4.400   0.619   4.347
    2MOL1     C  439   4.504   0.538   4.465
    2MOL1    Cl  440   4.664   0.616   4.470
    2MOL1    Cl  441   4.430   0.540   4.626
    2MOL1     H  442   4.517   0.434   4.434
    2MOL1    Cl  443   3.933   4.611   1.658
    2MOL1     C  444   3.873   4.721   1.533
    2MOL1    Cl  445   3.992   4.740   1.403
    2MOL1    Cl  446   3.719   4.663   1.468
    2MOL1     H  447   3.856   4.819   1.578
    2MOL1    Cl  448   4.495   4.533   4.735
    2MOL1     C  449   4.480   4.573   4.907
    2MOL1    Cl  450   4.496   4.427   5.007
    2MOL1    Cl  451   4.600   4.694   4.954
    2MOL1     H  452   4.380   4.615   4.924
    2MOL1    Cl  453   4.188   4.447   1.736
    2MOL1     C  454   4.037   4.361   1.772
    2MOL1    Cl  455   4.070   4.215   1.867
    2MOL1    Cl  456   3.924   4.467   1.858
    2MOL1     H  457   3.991   4.331   1.678
    2MOL1    Cl  458   3.855   3.890   3.333
    2MOL1     C  459   3.847   4.065   3.358
    2MOL1    Cl  460   3.770   4.102   3.514
    2MOL1    Cl  461   4.009   4.137   3.350
    2MOL1     H  462   3.786   4.109   3.279
    2MOL1    Cl  463   0.275   0.727   3.405
    2MOL1     C  464   0.380   0.869   3.407
    2MOL1    Cl  465   0.356   0.962   3.556
    2MOL1    Cl  466   0.550   0.822   3.390
    2MOL1     H  467   0.354   0.933   3.322
    2MOL1    Cl  468   3.190   2.671   2.768
    2MOL1     C  469   3.041   2.655   2.863
    2MOL1    Cl  470   2.983   2.814   2.915
    2MOL1    Cl  471   2.916   2.571   2.770
    2MOL1     H  472   3.063   2.596   2.952
    2MOL1    Cl  473   3.660   2.234   2.359
    2MOL1     C  474   3.722   2.383   2.432
    2MOL1    Cl  475   3.612   2.518   2.400
    2MOL1    Cl  476   3.745   2.362   2.606
    2MOL1     H  477   3.818   2.406   2.387
    2MOL1    Cl  478   4.952   0.551   2.377
    2MOL1     C  479   5.020   0.705   2.429
    2MOL1    Cl  480   5.189   0.720   2.376
    2MOL1    Cl  481   4.923   0.840   2.367
    2MOL1     H  482   5.018   0.709   2.538
    2MOL1    Cl  483   0.292   0.001   3.172
    2MOL1     C  484   0.403   0.108   3.086
    2MOL1    Cl  485   0.480   0.024   2.951
    2MOL1    Cl  486   0.319   0.253   3.030
    2MOL1     H  487   0.481   0.139   3.156
    2MOL1    Cl  488   5.292   3.718   1.359
    2MOL1     C  489   5.118   3.695   1.337
    2MOL1    Cl  490   5.040   3.656   1.492
    2MOL1    Cl  491   5.044   3.838   1.264
    2MOL1     H  492   5.103   3.610   1.269
    2MOL1    Cl  493   1.597   3.252   1.086
    2MOL1     C  494   1.525   3.309   0.935
    2MOL1    Cl  495   1.650   3.372   0.826
    2MOL1    Cl  496   1.434   3.179   0.856
    2MOL1     H  497   1.456   3.390   0.958
    2MOL1    Cl  498   4.845   0.279   2.208
    2MOL1     C  499   4.867   0.107   2.174
    2MOL1    Cl  500   4.747   0.050   2.056
    2MOL1    Cl  501   5.031   0.075   2.115
    2MOL1     H  502   4.853   0.051   2.267
    2MOL1    Cl  503   2.862   4.427   4.349
    2MOL1     C  504   2.764   4.424   4.202
    2MOL1    Cl  505   2.629   4.538   4.214
    2MOL1    Cl  506   2.864   4.461   4.060
    2MOL1     H  507   2.723   4.323   4.190
    2MOL1    Cl  508   4.612   1.676   0.476
    2MOL1     C  509   4.697   1.722   0.328
    2MOL1    Cl  510   4.622   1.646   0.186
    2MOL1    Cl  511   4.699   1.898   0.309
    2MOL1     H  512   4.800   1.687   0.335
    2MOL1    Cl  513   3.056   4.616   4.415
    2MOL1     C  514   2.923   4.733   4.427
    2MOL1    Cl  515   2.769   4.649   4.452
    2MOL1    Cl  516   2.953   4.848   4.558
    2MOL1     H  517   2.918   4.788   4.333
    2MOL1    Cl  518   3.940   4.246   2.078
    2MOL1     C  519   3.800   4.141   2.053
    2MOL1    Cl  520   3.677   4.224   1.955
    2MOL1    Cl  521   3.848   3.989   1.977
    2MOL1     H  522   3.756   4.118   2.151
    2MOL1    Cl  523   0.948   0.092   3.358
    2MOL1     C  524   0.969   0.264   3.392
    2MOL1    Cl  525   0.836   0.325   3.491
    2MOL1    Cl  526   1.125   0.294   3.472
    2MOL1     H  527   0.969   0.318   3.297
    2MOL1    Cl  528   1.015   1.413   2.450
    2MOL1     C  529   1.155   1.324   2.510
    2MOL1    Cl  530   1.213   1.209   2.388
    2MOL1    Cl  531   1.285   1.436   2.557
    2MOL1     H  532   1.125   1.268   2.599
    2MOL1    Cl  533   0.951   0.578   2.429
    2MOL1     C  534   1.097   0.676   2.405
    2MOL1    Cl  535   1.215   0.590   2.305
    2MOL1    Cl  536   1.055   0.832   2.332
    2MOL1     H  537   1.142   0.695   2.503
    2MOL1    Cl  538   2.812   1.284   3.982
    2MOL1     C  539   2.878   1.123   3.951
    2MOL1    Cl  540   2.939   1.050   4.101
    2MOL1    Cl  541   2.755   1.018   3.877
    2MOL1     H  542   2.961   1.133   3.881
    2MOL1    Cl  543   4.759   5.233   1.286
    2MOL1     C  544   4.620   5.125   1.279
    2MOL1    Cl  545   4.524   5.155   1.133
    2MOL1    Cl  546   4.673   4.956   1.285
    2MOL1     H  547   4.557   5.144   1.366
    2MOL1    Cl  548   0.373   4.505   0.332
    2MOL1     C  549   0.531   4.427   0.313
    2MOL1    Cl  550   0.638   4.471   0.446
    2MOL1    Cl  551   0.512   4.252   0.302
    2MOL1     H  552   0.575   4.463   0.220
    2MOL1    Cl  553   2.317   3.497   2.144
    2MOL1     C  554   2.430   3.420   2.256
    2MOL1    Cl  555   2.466   3.527   2.393
    2MOL1    Cl  556   2.364   3.266   2.314
    2MOL1     H  557   2.523   3.399   2.203
    2MOL1    Cl  558   0.515   3.205   1.190
    2MOL1     C  559   0.377   3.137   1.103
    2MOL1    Cl  560   0.225   3.209   1.162
    2MOL1    Cl  561   0.394   3.163   0.929
    2MOL1     H  562   0.373   3.030   1.122
    2MOL1    Cl  563   3.303   3.789   1.007
    2MOL1     C  564   3.375   3.629   1.024
    2MOL1    Cl  565   3.519   3.637   1.128
    2MOL1    Cl  566   3.257   3.514   1.090
    2MOL1     H  567   3.406   3.594   0.926
    2MOL1    Cl  568   3.294   3.219   4.932
    2MOL1     C  569   3.195   3.076   4.964
    2MOL1    Cl  570   3.263   2.982   5.097
    2MOL1    Cl  571   3.027   3.122   4.999
    2MOL1     H  572   3.195   3.013   4.874
    2MOL1    Cl  573   1.213   1.466   1.863
    2MOL1     C  574   1.260   1.300   1.826
    2MOL1    Cl  575   1.426   1.295   1.763
    2MOL1    Cl  576   1.245   1.197   1.969
    2MOL1     H  577   1.193   1.261   1.749
    2MOL1    Cl  578   1.841   2.768   4.754
    2MOL1     C  579   1.981   2.662   4.734
    2MOL1    Cl  580   2.127   2.738   4.799
    2MOL1    Cl  581   1.952   2.506   4.813
    2MOL1     H  582   1.995   2.644   4.628
    2MOL1    Cl  583   2.178   4.140   4.377
    2MOL1     C  584   2.268   4.086   4.235
    2MOL1    Cl  585   2.385   3.960   4.279
    2MOL1    Cl  586   2.158   4.028   4.109
    2MOL1     H  587   2.323   4.172   4.195
    2MOL1    Cl  588   0.759   0.472   0.047
    2MOL1     C  589   0.837   0.341   0.137
    2MOL1    Cl  590   0.935   0.407   0.269
    2MOL1    Cl  591   0.717   0.227   0.199
    2MOL1     H  592   0.904   0.287   0.068
    2MOL1    Cl  593   0.956   0.649   3.014
    2MOL1     C  594   1.127   0.633   2.970
    2MOL1    Cl  595   1.207   0.791   2.973
    2MOL1    Cl  596   1.209   0.519   3.077
    2MOL1     H  597   1.132   0.594   2.868
    2MOL1    Cl  598   4.590   3.330   3.313
    2MOL1     C  599   4.506   3.178   3.278
    2MOL1    Cl  600   4.335   3.209   3.240
    2MOL1    Cl  601   4.585   3.093   3.144
    2MOL1     H  602   4.510   3.115   3.367
    2MOL1    Cl  603   3.185   4.624   5.231
    2MOL1     C  604   3.173   4.794   5.183
    2MOL1    Cl  605   3.018   4.863   5.233
    2MOL1    Cl  606   3.307   4.888   5.250
    2MOL1     H  607   3.179   4.799   5.074
    2MOL1    Cl  608   1.951   0.168   3.409
    2MOL1     C  609   1.851   0.109   3.543
    2MOL1    Cl  610   1.920   0.158   3.699
    2MOL1    Cl  611   1.685   0.168   3.528
    2MOL1     H  612   1.850  -0.000   3.539
    2MOL1    Cl  613   1.096   0.880   3.978
    2MOL1     C  614   0.980   0.811   4.092
    2MOL1    Cl  615   0.821   0.888   4.074
    2MOL1    Cl  616   0.966   0.636   4.068
    2MOL1     H  617   1.016   0.829   4.193
    2MOL1    Cl  618   1.992   5.073   2.550
    2MOL1     C  619   2.056   5.140   2.399
    2MOL1    Cl  620   1.937   5.123   2.268
    2MOL1    Cl  621   2.100   5.310   2.420
    2MOL1     H  622   2.145   5.084   2.372
    2MOL1    Cl  623   1.338   1.244   2.169
    2MOL1     C  624   1.351   1.377   2.286
    2MOL1    Cl  625   1.427   1.320   2.435
    2MOL1    Cl  626   1.441   1.512   2.217
    2MOL1     H  627   1.250   1.411   2.310
    2MOL1    Cl  628   1.501   1.695   0.060
    2MOL1     C  629   1.632   1.644   0.168
    2MOL1    Cl  630   1.641   1.750   0.310
    2MOL1    Cl  631   1.610   1.476   0.217
    2MOL1     H  632   1.726   1.652   0.113
    2MOL1    Cl  633   4.344   3.212   2.385
    2MOL1     C  634   4.225   3.123   2.481
    2MOL1    Cl  635   4.116   3.031   2.375
    2MOL1    Cl  636   4.306   3.014   2.595
    2MOL1     H  637   4.166   3.195   2.537
    2MOL1    Cl  638   2.911   5.027   1.527
    2MOL1     C  639   2.959   4.866   1.470
    2MOL1    Cl  640   2.966   4.752   1.605
    2MOL1    Cl  641   2.848   4.809   1.344
    2MOL1     H  642   3.059   4.874   1.427
    2MOL1    Cl  643   4.195   2.603   3.392
    2MOL1     C  644   4.302   2.467   3.352
    2MOL1    Cl  645   4.227   2.363   3.229
    2MOL1    Cl  646   4.459   2.527   3.296
    2MOL1     H  647   4.317   2.408   3.442
    2MOL1    Cl  648   4.407   0.670   3.571
    2MOL1     C  649   4.322   0.780   3.680
    2MOL1    Cl  650   4.149   0.739   3.689
    2MOL1    Cl  651   4.394   0.777   3.842
    2MOL1     H  652   4.331   0.882   3.641
    2MOL1    Cl  653   4.173   1.179   3.361
    2MOL1     C  654   4.206   1.009   3.323
    2MOL1    Cl  655   4.192   0.980   3.149
    2MOL1    Cl  656   4.367   0.962   3.381
    2MOL1     H  657   4.132   0.947   3.374
    2MOL1    Cl  658   1.984   0.385   3.257
    2MOL1     C  659   2.099   0.335   3.382
    2MOL1    Cl  660   2.021   0.330   3.541
    2MOL1    Cl  661   2.169   0.177   3.342
    2MOL1     H  662   2.180   0.408   3.385
    2MOL1    Cl  663   0.358   4.537   3.750
    2MOL1     C  664   0.516   4.495   3.682
    2MOL1    Cl  665   0.496   4.401   3.533
    2MOL1    Cl  666   0.611   4.640   3.651
    2MOL1     H  667   0.569   4.433   3.755
    2MOL1    Cl  668   0.211   1.785   4.865
    2MOL1     C  669   0.296   1.931   4.814
    2MOL1    Cl  670   0.393   1.899   4.669
    2MOL1    Cl  671   0.182   2.063   4.784
    2MOL1     H  672   0.364   1.961   4.894
    2MOL1    Cl  673   1.120   5.226   5.072
    2MOL1     C  674   1.091   5.071   5.151
    2MOL1    Cl  675   1.231   5.022   5.248
    2MOL1    Cl  676   0.945   5.079   5.252
    2MOL1     H  677   1.075   4.995   5.073
    2MOL1    Cl  678   0.830   2.249   1.306
    2MOL1     C  679   0.869   2.256   1.133
    2MOL1    Cl  680   1.038   2.303   1.109
    2MOL1    Cl  681   0.836   2.100   1.056
    2MOL1     H  682   0.805   2.332   1.087
    2MOL1    Cl  683   4.861   1.851   2.387
    2MOL1     C  684   4.811   1.693   2.326
    2MOL1    Cl  685   4.677   1.709   2.211
    2MOL1    Cl  686   4.948   1.609   2.250
    2MOL1     H  687   4.777   1.632   2.410
    2MOL1    Cl  688   3.067   1.385   2.706
    2MOL1     C  689   2.924   1.348   2.608
    2MOL1    Cl  690   2.815   1.488   2.602
    2MOL1    Cl  691   2.971   1.299   2.445
    2MOL1     H  692   2.871   1.265   2.655
    2MOL1    Cl  693   3.380   0.604   2.701
    2MOL1     C  694   3.214   0.543   2.693
    2MOL1    Cl  695   3.114   0.648   2.591
    2MOL1    Cl  696   3.212   0.376   2.633
    2MOL1     H  697   3.173   0.544   2.794
    2MOL1    Cl  698   2.511   4.614   1.193
    2MOL1     C  699   2.379   4.693   1.105
    2MOL1    Cl  700   2.399   4.671   0.930
    2MOL1    Cl  701   2.222   4.629   1.158
    2MOL1     H  702   2.382   4.800   1.127
    2MOL1    Cl  703   0.414   3.448   3.979
    2MOL1     C  704   0.559   3.452   4.080
    2MOL1    Cl  705   0.529   3.373   4.236
    2MOL1    Cl  706   0.696   3.376   3.997
    2MOL1     H  707   0.585   3.557   4.099
    2MOL1    Cl  708   2.482   0.264   1.580
    2MOL1     C  709   2.434   0.114   1.661
    2MOL1    Cl  710   2.570   0.001   1.668
    2MOL1    Cl  711   2.372   0.148   1.824
    2MOL1     H  712   2.354   0.068   1.603
    2MOL1    Cl  713   2.757   4.953   3.591
    2MOL1     C  714   2.604   4.922   3.675
    2MOL1    Cl  715   2.486   5.049   3.638
    2MOL1    Cl  716   2.541   4.763   3.632
    2MOL1     H  717   2.624   4.924   3.783
    2MOL1    Cl  718   3.589   3.530   4.770
    2MOL1     C  719   3.685   3.678   4.762
    2MOL1    Cl  720   3.832   3.653   4.667
    2MOL1    Cl  721   3.590   3.812   4.695
    2MOL1     H  722   3.715   3.705   4.864
    2MOL1    Cl  723   1.821   0.180   4.674
    2MOL1     C  724   1.706   0.224   4.800
    2MOL1    Cl  725   1.789   0.305   4.935
    2MOL1    Cl  726   1.578   0.328   4.735
    2MOL1     H  727   1.659   0.133   4.838
    2MOL1    Cl  728   3.412   3.933   1.999
    2MOL1     C  729   3.405   3.797   1.886
    2MOL1    Cl  730   3.259   3.806   1.786
    2MOL1    Cl  731   3.550   3.793   1.784
    2MOL1     H  732   3.402   3.705   1.944
    2MOL1    Cl  733   0.376   2.740   2.084
    2MOL1     C  734   0.200   2.725   2.099
    2MOL1    Cl  735   0.157   2.571   2.176
    2MOL1    Cl  736   0.133   2.861   2.191
    2MOL1     H  737   0.156   2.727   1.999
    2MOL1    Cl  738   2.017   0.957   3.682
    2MOL1     C  739   1.852   0.934   3.625
    2MOL1    Cl  740   1.828   1.012   3.468
    2MOL1    Cl  741   1.813   0.761   3.615
    2MOL1     H  742   1.783   0.980   3.697
    2MOL1    Cl  743   1.563   4.456   3.738
    2MOL1     C  744   1.442   4.572   3.683
    2MOL1    Cl  745   1.519   4.710   3.603
    2MOL1    Cl  746   1.326   4.494   3.573
    2MOL1     H  747   1.387   4.608   3.770
    2MOL1    Cl  748   1.320   3.106   3.545
    2MOL1     C  749   1.312   3.281   3.572
    2MOL1    Cl  750   1.167   3.324   3.664
    2MOL1    Cl  751   1.458   3.338   3.655
    2MOL1     H  752   1.307   3.330   3.474
    2MOL1    Cl  753   5.007   2.271   2.531
    2MOL1     C  754   4.850   2.342   2.488
    2MOL1    Cl  755   4.807   2.471   2.601
    2MOL1    Cl  756   4.854   2.404   2.322
    2MOL1     H  757   4.774   2.264   2.494
    2MOL1    Cl  758   2.327   1.616   1.812
    2MOL1     C  759   2.362   1.459   1.886
    2MOL1    Cl  760   2.396   1.338   1.762
    2MOL1    Cl  761   2.497   1.472   2.000
    2MOL1     H  762   2.273   1.428   1.942
    2MOL1    Cl  763   1.167  -0.000   3.726
    2MOL1     C  764   1.230   0.163   3.755
    2MOL1    Cl  765   1.124   0.252   3.866
    2MOL1    Cl  766   1.395   0.156   3.818
    2MOL1     H  767   1.232   0.217   3.659
    2MOL1    Cl  768   4.418   3.802   2.611
    2MOL1     C  769   4.363   3.774   2.777
    2MOL1    Cl  770   4.397   3.916   2.878
    2MOL1    Cl  771   4.190   3.736   2.780
    2MOL1     H  772   4.418   3.689   2.818
    2MOL1    Cl  773   4.326   1.220   3.965
    2MOL1     C  774   4.408   1.312   4.093
    2MOL1    Cl  775   4.318   1.300   4.245
    2MOL1    Cl  776   4.574   1.254   4.114
    2MOL1     H  777   4.412   1.417   4.063
    2MOL1    Cl  778   3.627   2.030   2.586
    2MOL1     C  779   3.792   2.041   2.650
    2MOL1    Cl  780   3.910   2.044   2.518
    2MOL1    Cl  781   3.810   2.185   2.752
    2MOL1     H  782   3.811   1.953   2.711
    2MOL1    Cl  783   5.041   4.025   3.489
    2MOL1     C  784   4.988   3.971   3.329
    2MOL1    Cl  785   4.816   4.007   3.305
    2MOL1    Cl  786   5.085   4.046   3.202
    2MOL1     H  787   5.001   3.862   3.322
    2MOL1    Cl  788   0.428   2.008   0.628
    2MOL1     C  789   0.465   1.838   0.596
    2MOL1    Cl  790   0.347   1.769   0.483
    2MOL1    Cl  791   0.629   1.820   0.533
    2MOL1     H  792   0.458   1.783   0.690
    2MOL1    Cl  793   3.568   1.612   3.658
    2MOL1     C  794   3.639   1.774   3.662
    2MOL1    Cl  795   3.556   1.875   3.782
    2MOL1    Cl  796   3.812   1.765   3.698
    2MOL1     H  797   3.626   1.820   3.564
    2MOL1    Cl  798   1.279   2.402   3.101
    2MOL1     C  799   1.423   2.452   3.011
    2MOL1    Cl  800   1.563   2.466   3.120
    2MOL1    Cl  801   1.457   2.338   2.880
    2MOL1     H  802   1.404   2.550   2.967
    2MOL1    Cl  803   0.468   3.108   0.179
    2MOL1     C  804   0.310   3.050   0.125
    2MOL1    Cl  805   0.212   3.185   0.065
    2MOL1    Cl  806   0.327   2.926   0.000
    2MOL1     H  807   0.258   3.006   0.210
    2MOL1    Cl  808   0.835   4.808   5.050
    2MOL1     C  809   0.808   4.643   4.992
    2MOL1    Cl  810   0.888   4.526   5.098
    2MOL1    Cl  811   0.634   4.609   4.983
    2MOL1     H  812   0.850   4.634   4.892
    2MOL1    Cl  813   4.645   4.628   0.071
    2MOL1     C  814   4.710   4.769   0.155
    2MOL1    Cl  815   4.734   4.903   0.042
    2MOL1    Cl  816   4.603   4.817   0.288
    2MOL1     H  817   4.808   4.742   0.197
    2MOL1    Cl  818   0.888   1.829   0.655
    2MOL1     C  819   0.889   1.652   0.643
    2MOL1    Cl  820   0.765   1.583   0.749
    2MOL1    Cl  821   0.864   1.601   0.476
    2MOL1     H  822   0.987   1.616   0.676
    2MOL1    Cl  823   2.576   0.195   3.591
    2MOL1     C  824   2.461   0.327   3.565
    2MOL1    Cl  825   2.503   0.417   3.418
    2MOL1    Cl  826   2.296   0.265   3.555
    2MOL1     H  827   2.467   0.395   3.650
    2MOL1    Cl  828   0.558   1.675   3.208
    2MOL1     C  829   0.509   1.542   3.314
    2MOL1    Cl  830   0.502   1.596   3.483
    2MOL1    Cl  831   0.353   1.476   3.263
    2MOL1     H  832   0.584   1.462   3.306
    2MOL1    Cl  833   0.266   4.549   4.918
    2MOL1     C  834   0.353   4.450   5.036
    2MOL1    Cl  835   0.352   4.529   5.195
    2MOL1    Cl  836   0.281   4.288   5.047
    2MOL1     H  837   0.456   4.440   5.003
    2MOL1    Cl  838   4.184   1.562   2.238
    2MOL1     C  839   4.301   1.431   2.216
    2MOL1    Cl  840   4.228   1.298   2.125
    2MOL1    Cl  841   4.446   1.491   2.133
    2MOL1     H  842   4.330   1.394   2.315
    2MOL1    Cl  843   1.799   0.583   1.894
    2MOL1     C  844   1.650   0.677   1.875
    2MOL1    Cl  845   1.516   0.598   1.959
    2MOL1    Cl  846   1.672   0.842   1.935
    2MOL1     H  847   1.626   0.682   1.769
    2MOL1    Cl  848   2.149   1.938   3.676
    2MOL1     C  849   2.081   1.831   3.552
    2MOL1    Cl  850   1.993   1.697   3.627
    2MOL1    Cl  851   1.974   1.922   3.443
    2MOL1     H  852   2.163   1.790   3.493
    2MOL1    Cl  853   2.796   3.492   3.779
    2MOL1     C  854   2.627   3.545   3.774
    2MOL1    Cl  855   2.524   3.435   3.869
    2MOL1    Cl  856   2.612   3.711   3.835
    2MOL1     H  857   2.593   3.543   3.670
    2MOL1    Cl  858   1.017   1.352   3.754
    2MOL1     C  859   0.869   1.437   3.708
    2MOL1    Cl  860   0.727   1.356   3.777
    2MOL1    Cl  861   0.875   1.606   3.760
    2MOL1     H  862   0.860   1.435   3.599
    2MOL1    Cl  863   0.869   4.415   2.076
    2MOL1     C  864   0.788   4.433   1.920
    2MOL1    Cl  865   0.785   4.278   1.833
    2MOL1    Cl  866   0.624   4.495   1.941
    2MOL1     H  867   0.845   4.505   1.860
    2MOL1    Cl  868   3.766   4.241   2.732
    2MOL1     C  869   3.723   4.170   2.576
    2MOL1    Cl  870   3.863   4.088   2.505
    2MOL1    Cl  871   3.588   4.057   2.594
    2MOL1     H  872   3.692   4.250   2.509
    2MOL1    Cl  873   0.558   2.570   3.524
    2MOL1     C  874   0.716   2.515   3.582
    2MOL1    Cl  875   0.816   2.653   3.632
    2MOL1    Cl  876   0.697   2.400   3.715
    2MOL1     H  877   0.767   2.464   3.500
    2MOL1    Cl  878   1.848   3.946   1.636
    2MOL1     C  879   1.790   3.948   1.803
    2MOL1    Cl  880   1.620   3.896   1.811
    2MOL1    Cl  881   1.891   3.845   1.906
    2MOL1     H  882   1.796   4.051   1.841
    2MOL1    Cl  883   1.582   1.762   2.542
    2MOL1     C  884   1.724   1.661   2.572
    2MOL1    Cl  885   1.835   1.742   2.684
    2MOL1    Cl  886   1.677   1.502   2.634
    2MOL1     H  887   1.776   1.647   2.476
    2MOL1    Cl  888   3.868   0.064   3.896
    2MOL1     C  889   3.964   0.116   4.035
    2MOL1    Cl  890   3.943   0.290   4.064
    2MOL1    Cl  891   3.920   0.024   4.180
    2MOL1     H  892   4.070   0.097   4.013
    2MOL1    Cl  893   0.329   4.514   4.587
    2MOL1     C  894   0.161   4.564   4.566
    2MOL1    Cl  895   0.108   4.538   4.399
    2MOL1    Cl  896   0.055   4.476   4.678
    2MOL1     H  897   0.153   4.670   4.588
    2MOL1    Cl  898   1.172   1.684   0.774
    2MOL1     C  899   1.074   1.655   0.918
    2MOL1    Cl  900   1.014   1.488   0.920
    2MOL1    Cl  901   1.167   1.689   1.065
    2MOL1     H  902   0.988   1.722   0.916
    2MOL1    Cl  903   2.724   2.986   0.435
    2MOL1     C  904   2.724   2.819   0.377
    2MOL1    Cl  905   2.652   2.809   0.216
    2MOL1    Cl  906   2.888   2.753   0.376
    2MOL1     H  907   2.663   2.759   0.446
    2MOL1    Cl  908   3.762   1.346   3.573
    2MOL1     C  909   3.654   1.396   3.442
    2MOL1    Cl  910   3.696   1.558   3.385
    2MOL1    Cl  911   3.660   1.280   3.309
    2MOL1     H  912   3.552   1.399   3.481
    2MOL1    Cl  913   3.363   0.297   1.921
    2MOL1     C  914   3.524   0.332   1.985
    2MOL1    Cl  915   3.561   0.226   2.122
    2MOL1    Cl  916   3.647   0.315   1.859
    2MOL1     H  917   3.526   0.436   2.021
    2MOL1    Cl  918   4.289   2.645   1.451
    2MOL1     C  919   4.125   2.683   1.504
    2MOL1    Cl  920   4.077   2.579   1.639
    2MOL1    Cl  921   4.113   2.854   1.550
    2MOL1     H  922   4.057   2.665   1.421
    2MOL1    Cl  923   2.820   4.318   2.665
    2MOL1     C  924   2.973   4.229   2.684
    2MOL1    Cl  925   2.947   4.056   2.661
    2MOL1    Cl  926   3.094   4.290   2.571
    2MOL1     H  927   3.009   4.246   2.786
    2MOL1    Cl  928   4.292   1.242   2.754
    2MOL1     C  929   4.436   1.138   2.761
    2MOL1    Cl  930   4.541   1.187   2.895
    2MOL1    Cl  931   4.388   0.968   2.778
    2MOL1     H  932   4.491   1.149   2.667
    2MOL1    Cl  933   0.993   2.170   5.086
    2MOL1     C  934   1.064   2.105   4.938
    2MOL1    Cl  935   1.150   1.954   4.971
    2MOL1    Cl  936   0.940   2.080   4.814
    2MOL1     H  937   1.136   2.178   4.900
    2MOL1    Cl  938   2.471   4.558   4.721
    2MOL1     C  939   2.379   4.688   4.645
    2MOL1    Cl  940   2.478   4.834   4.631
    2MOL1    Cl  941   2.319   4.638   4.485
    2MOL1     H  942   2.292   4.711   4.708
    2MOL1    Cl  943   2.295   5.286   5.174
    2MOL1     C  944   2.357   5.138   5.098
    2MOL1    Cl  945   2.340   5.000   5.207
    2MOL1    Cl  946   2.273   5.107   4.945
    2MOL1     H  947   2.463   5.153   5.077
    2MOL1    Cl  948   2.160   1.401   3.056
    2MOL1     C  949   2.003   1.328   3.017
    2MOL1    Cl  950   1.914   1.430   2.903
    2MOL1    Cl  951   2.025   1.165   2.951
    2MOL1     H  952   1.945   1.320   3.110
    2MOL1    Cl  953   1.887   2.065   5.084
    2MOL1     C  954   1.931   2.220   5.156
    2MOL1    Cl  955   2.107   2.241   5.157
    2MOL1    Cl  956   1.853   2.354   5.070
    2MOL1     H  957   1.896   2.221   5.260
    2MOL1    Cl  958   2.291   1.709   1.605
    2MOL1     C  959   2.309   1.878   1.656
    2MOL1    Cl  960   2.460   1.947   1.592
    2MOL1    Cl  961   2.170   1.974   1.605
    2MOL1     H  962   2.314   1.880   1.765
    2MOL1    Cl  963   2.780   2.853   0.920
    2MOL1     C  964   2.729   2.685   0.895
    2MOL1    Cl  965   2.611   2.676   0.763
    2MOL1    Cl  966   2.868   2.581   0.862
    2MOL1     H  967   2.680   2.650   0.986
    2MOL1    Cl  968   2.934   1.860   1.886
    2MOL1     C  969   3.056   1.886   2.012
    2MOL1    Cl  970   3.116   1.732   2.074
    2MOL1    Cl  971   3.190   1.984   1.949
    2MOL1     H  972   3.009   1.941   2.094
    2MOL1    Cl  973   4.707   4.800   2.708
    2MOL1     C  974   4.700   4.629   2.754
    2MOL1    Cl  975   4.723   4.610   2.929
    2MOL1    Cl  976   4.546   4.557   2.703
    2MOL1     H  977   4.781   4.576   2.703
    2MOL1    Cl  978   3.363   0.426   4.791
    2MOL1     C  979   3.240   0.424   4.918
    2MOL1    Cl  980   3.316   0.424   5.078
    2MOL1    Cl  981   3.130   0.561   4.901
    2MOL1     H  982   3.182   0.332   4.908
    2MOL1    Cl  983   3.949   3.822   4.137
    2MOL1     C  984   3.956   3.999   4.136
    2MOL1    Cl  985   3.908   4.065   4.293
    2MOL1    Cl  986   4.119   4.054   4.093
    2MOL1     H  987   3.887   4.036   4.060
    2MOL1    Cl  988   2.010   1.564   2.612
    2MOL1     C  989   2.034   1.390   2.634
    2MOL1    Cl  990   2.175   1.359   2.736
    2MOL1    Cl  991   1.889   1.316   2.704
    2MOL1     H  992   2.051   1.346   2.536
    2MOL1    Cl  993   2.844   0.506   0.174
    2MOL1     C  994   2.668   0.495   0.151
    2MOL1    Cl  995   2.611   0.622   0.042
    2MOL1    Cl  996   2.624   0.335   0.089
    2MOL1     H  997   2.620   0.508   0.248
    2MOL1    Cl  998   2.350   2.850   2.181
    2MOL1     C  999   2.414   2.940   2.043
    2MOL1    Cl 1000   2.583   2.896   2.013
    2MOL1    Cl 1001   2.315   2.911   1.899
    2MOL1     H 1002   2.409   3.047   2.067
    2MOL1    Cl 1003   1.028   4.939   1.432
    2MOL1     C 1004   1.088   4.937   1.599
    2MOL1    Cl 1005   1.041   4.786   1.679
    2MOL1    Cl 1006   1.264   4.957   1.602
    2MOL1     H 1007   1.043   5.020   1.653
    2MOL1    Cl 1008   4.254   2.147   4.438
    2MOL1     C 1009   4.242   2.320   4.402
    2MOL1    Cl 1010   4.099   2.390   4.480
    2MOL1    Cl 1011   4.389   2.405   4.455
    2MOL1     H 1012   4.232   2.332   4.294
    2MOL1    Cl 1013   1.890   5.184   4.972
    2MOL1     C 1014   1.914   5.069   5.105
    2MOL1    Cl 1015   2.060   4.972   5.077
    2MOL1    Cl 1016   1.925   5.154   5.260
    2MOL1     H 1017   1.828   5.002   5.109
    2MOL1    Cl 1018   4.163   5.262   5.142
    2MOL1     C 1019   4.047   5.203   5.263
    2MOL1    Cl 1020   3.964   5.340   5.340
    2MOL1    Cl 1021   3.930   5.093   5.188
    2MOL1     H 1022   4.102   5.149   5.340
    2MOL1    Cl 1023   3.292   3.804   0.614
    2MOL1     C 1024   3.442   3.876   0.674
    2MOL1    Cl 1025   3.451   4.048   0.629
    2MOL1    Cl 1026   3.454   3.857   0.850
    2MOL1     H 1027   3.526   3.824   0.628
    2MOL1    Cl 1028   4.688   1.097   1.210
    2MOL1     C 1029   4.662   0.984   1.077
    2MOL1    Cl 1030   4.518   0.884   1.106
    2MOL1    Cl 1031   4.647   1.071   0.923
    2MOL1     H 1032   4.749   0.918   1.070
    2MOL1    Cl 1033   4.080   1.920   2.061
    2MOL1     C 1034   4.167   1.885   1.911
    2MOL1    Cl 1035   4.334   1.943   1.920
    2MOL1    Cl 1036   4.164   1.711   1.877
    2MOL1     H 1037   4.116   1.937   1.829
    2MOL1    Cl 1038   4.255   1.721   0.005
    2MOL1     C 1039   4.122   1.730   0.121
    2MOL1    Cl 1040   4.182   1.713   0.287
    2MOL1    Cl 1041   4.033   1.882   0.102
    2MOL1     H 1042   4.053   1.647   0.101
    2MOL1    Cl 1043   0.144   0.262   4.472
    2MOL1     C 1044   0.127   0.087   4.450
    2MOL1    Cl 1045   0.041   0.052   4.299
    2MOL1    Cl 1046   0.286   0.009   4.450
    2MOL1     H 1047   0.069   0.047   4.533
    2MOL1    Cl 1048   3.921   3.298   4.659
    2MOL1     C 1049   4.006   3.255   4.809
    2MOL1    Cl 1050   3.900   3.278   4.949
    2MOL1    Cl 1051   4.063   3.087   4.802
    2MOL1     H 1052   4.092   3.320   4.820
    2MOL1    Cl 1053   1.130   0.493   3.788
    2MOL1     C 1054   1.304   0.489   3.823
    2MOL1    Cl 1055   1.359   0.645   3.886
    2MOL1    Cl 1056   1.341   0.359   3.937
    2MOL1     H 1057   1.357   0.468   3.730
    2MOL1    Cl 1058   3.417   0.421   1.386
    2MOL1     C 1059   3.562   0.354   1.462
    2MOL1    Cl 1060   3.691   0.331   1.342
    2MOL1    Cl 1061   3.617   0.458   1.594
    2MOL1     H 1062   3.537   0.256   1.504
    2MOL1    Cl 1063   1.121   0.448   4.300
    2MOL1     C 1064   1.226   0.409   4.162
    2MOL1    Cl 1065   1.268   0.237   4.162
    2MOL1    Cl 1066   1.149   0.454   4.010
    2MOL1     H 1067   1.319   0.466   4.173
    2MOL1    Cl 1068   3.111   5.111   3.640
    2MOL1     C 1069   3.143   5.285   3.631
    2MOL1    Cl 1070   3.247   5.337   3.765
    2MOL1    Cl 1071   3.216   5.328   3.475
    2MOL1     H 1072   3.047   5.338   3.640
    2MOL1    Cl 1073   2.192   1.019   4.317
    2MOL1     C 1074   2.321   1.085   4.216
    2MOL1    Cl 1075   2.255   1.191   4.090
    2MOL1    Cl 1076   2.438   1.173   4.316
    2MOL1     H 1077   2.373   1.002   4.168
    2MOL1    Cl 1078   3.458   0.667   0.281
    2MOL1     C 1079   3.328   0.745   0.374
    2MOL1    Cl 1080   3.186   0.772   0.272
    2MOL1    Cl 1081   3.285   0.646   0.515
    2MOL1     H 1082   3.364   0.842   0.409
    2MOL1    Cl 1083   1.751   2.384   2.798
    2MOL1     C 1084   1.673   2.227   2.772
    2MOL1    Cl 1085   1.545   2.241   2.651
    2MOL1    Cl 1086   1.792   2.106   2.723
    2MOL1     H 1087   1.628   2.195   2.866
    2MOL1    Cl 1088   4.929   3.879   4.724
    2MOL1     C 1089   5.033   4.021   4.715
    2MOL1    Cl 1090   5.171   3.991   4.608
    2MOL1    Cl 1091   4.941   4.163   4.660
    2MOL1     H 1092   5.071   4.042   4.815
    2MOL1    Cl 1093   0.790   0.823   2.636
    2MOL1     C 1094   0.929   0.779   2.736
    2MOL1    Cl 1095   0.947   0.892   2.871
    2MOL1    Cl 1096   0.912   0.613   2.796
    2MOL1     H 1097   1.019   0.784   2.675
    2MOL1    Cl 1098   4.657   1.134   3.581
    2MOL1     C 1099   4.714   0.988   3.664
    2MOL1    Cl 1100   4.700   0.847   3.558
    2MOL1    Cl 1101   4.882   1.009   3.718
    2MOL1     H 1102   4.651   0.972   3.752
    2MOL1    Cl 1103   4.889   4.808   0.643
    2MOL1     C 1104   5.065   4.790   0.656
    2MOL1    Cl 1105   5.116   4.633   0.592
    2MOL1    Cl 1106   5.147   4.922   0.570
    2MOL1     H 1107   5.093   4.795   0.761
    2MOL1    Cl 1108   0.591   3.307   0.285
    2MOL1     C 1109   0.744   3.377   0.340
    2MOL1    Cl 1110   0.716   3.486   0.477
    2MOL1    Cl 1111   0.859   3.250   0.384
    2MOL1     H 1112   0.786   3.435   0.258
    2MOL1    Cl 1113   1.058   2.592   4.768
    2MOL1     C 1114   1.208   2.498   4.776
    2MOL1    Cl 1115   1.330   2.567   4.667
    2MOL1    Cl 1116   1.269   2.493   4.942
    2MOL1     H 1117   1.188   2.396   4.743
    2MOL1    Cl 1118   1.707   3.988   0.017
    2MOL1     C 1119   1.606   4.101   0.109
    2MOL1    Cl 1120   1.697   4.170   0.244
    2MOL1    Cl 1121   1.544   4.230   0.004
    2MOL1     H 1122   1.520   4.046   0.149
    2MOL1    Cl 1123   0.747   3.403   0.715
    2MOL1     C 1124   0.716   3.229   0.726
    2MOL1    Cl 1125   0.818   3.155   0.850
    2MOL1    Cl 1126   0.544   3.199   0.761
    2MOL1     H 1127   0.740   3.183   0.630
    2MOL1    Cl 1128   4.164   1.781   2.569
    2MOL1     C 1129   4.253   1.634   2.615
    2MOL1    Cl 1130   4.257   1.519   2.481
    2MOL1    Cl 1131   4.417   1.675   2.668
    2MOL1     H 1132   4.200   1.588   2.699
    2MOL1    Cl 1133   2.068   0.559   4.531
    2MOL1     C 1134   2.169   0.616   4.397
    2MOL1    Cl 1135   2.248   0.479   4.317
    2MOL1    Cl 1136   2.073   0.708   4.281
    2MOL1     H 1137   2.247   0.681   4.438
    2MOL1    Cl 1138   0.516   0.341   2.577
    2MOL1     C 1139   0.402   0.207   2.597
    2MOL1    Cl 1140   0.236   0.263   2.580
    2MOL1    Cl 1141   0.437   0.078   2.480
    2MOL1     H 1142   0.415   0.166   2.697
    2MOL1    Cl 1143   1.688   4.623   4.484
    2MOL1     C 1144   1.851   4.555   4.498
    2MOL1    Cl 1145   1.946   4.646   4.617
    2MOL1    Cl 1146   1.843   4.383   4.541
    2MOL1     H 1147   1.900   4.564   4.400
    2MOL1    Cl 1148   4.122   4.738   1.599
    2MOL1     C 1149   4.233   4.625   1.519
    2MOL1    Cl 1150   4.299   4.697   1.371
    2MOL1    Cl 1151   4.363   4.578   1.629
    2MOL1     H 1152   4.177   4.535   1.492
    2MOL1    Cl 1153   1.117   2.426   0.644
    2MOL1     C 1154   1.092   2.597   0.605
    2MOL1    Cl 1155   1.237   2.665   0.530
    2MOL1    Cl 1156   0.952   2.617   0.499
    2MOL1     H 1157   1.073   2.651   0.698
    2MOL1    Cl 1158   1.210   0.869   4.310
    2MOL1     C 1159   1.343   0.980   4.277
    2MOL1    Cl 1160   1.304   1.144   4.334
    2MOL1    Cl 1161   1.493   0.923   4.353
    2MOL1     H 1162   1.359   0.984   4.169
    2MOL1    Cl 1163   2.040   1.595   0.963
    2MOL1     C 1164   1.896   1.529   0.883
    2MOL1    Cl 1165   1.918   1.357   0.848
    2MOL1    Cl 1166   1.752   1.555   0.984
    2MOL1     H 1167   1.882   1.582   0.789
    2MOL1    Cl 1168   1.326   4.655   1.292
    2MOL1     C 1169   1.303   4.629   1.465
    2MOL1    Cl 1170   1.369   4.765   1.558
    2MOL1    Cl 1171   1.131   4.607   1.502
    2MOL1     H 1172   1.356   4.538   1.494
    2MOL1    Cl 1173   4.892   2.828   2.691
    2MOL1     C 1174   5.037   2.746   2.632
    2MOL1    Cl 1175   5.019   2.570   2.645
    2MOL1    Cl 1176   5.070   2.792   2.464
    2MOL1     H 1177   5.122   2.777   2.693
    2MOL1    Cl 1178   0.778   2.392   0.192
    2MOL1     C 1179   0.939   2.466   0.178
    2MOL1    Cl 1180   1.064   2.342   0.169
    2MOL1    Cl 1181   0.946   2.572   0.036
    2MOL1     H 1182   0.957   2.527   0.267
    2MOL1    Cl 1183   3.631   4.853   3.381
    2MOL1     C 1184   3.670   4.682   3.408
    2MOL1    Cl 1185   3.779   4.665   3.547
    2MOL1    Cl 1186   3.522   4.588   3.432
    2MOL1     H 1187   3.721   4.644   3.319
    2MOL1    Cl 1188   2.156   0.923   2.532
    2MOL1     C 1189   2.149   1.045   2.403
    2MOL1    Cl 1190   2.245   1.188   2.447
    2MOL1    Cl 1191   2.204   0.977   2.250
    2MOL1     H 1192   2.044   1.076   2.392
    2MOL1    Cl 1193   0.831   4.484   4.526
    2MOL1     C 1194   0.691   4.590   4.498
    2MOL1    Cl 1195   0.604   4.540   4.352
    2MOL1    Cl 1196   0.583   4.588   4.638
    2MOL1     H 1197   0.728   4.692   4.483
    2MOL1    Cl 1198   1.909   4.881   4.016
    2MOL1     C 1199   2.056   4.856   3.922
    2MOL1    Cl 1200   2.179   4.772   4.018
    2MOL1    Cl 1201   2.020   4.765   3.774
    2MOL1     H 1202   2.096   4.954   3.893
    2MOL1    Cl 1203   1.399   0.486   1.391
    2MOL1     C 1204   1.281   0.409   1.284
    2MOL1    Cl 1205   1.166   0.311   1.378
    2MOL1    Cl 1206   1.195   0.531   1.188
    2MOL1     H 1207   1.334   0.343   1.216
    2MOL1    Cl 1208   2.658   3.178   1.142
    2MOL1     C 1209   2.491   3.127   1.109
    2MOL1    Cl 1210   2.477   2.950   1.115
    2MOL1    Cl 1211   2.379   3.202   1.223
    2MOL1     H 1212   2.465   3.160   1.008
    2MOL1    Cl 1213   1.019   3.778   1.012
    2MOL1     C 1214   1.023   3.626   1.103
    2MOL1    Cl 1215   0.928   3.639   1.251
    2MOL1    Cl 1216   0.964   3.492   1.003
    2MOL1     H 1217   1.126   3.605   1.130
    2MOL1    Cl 1218   3.815   2.567   2.109
    2MOL1     C 1219   3.796   2.398   2.059
    2MOL1    Cl 1220   3.653   2.379   1.956
    2MOL1    Cl 1221   3.941   2.341   1.975
    2MOL1     H 1222   3.782   2.337   2.149
    2MOL1    Cl 1223   2.711   2.283   1.243
    2MOL1     C 1224   2.744   2.457   1.247
    2MOL1    Cl 1225   2.661   2.533   1.384
    2MOL1    Cl 1226   2.918   2.487   1.256
    2MOL1     H 1227   2.706   2.501   1.155
    2MOL1    Cl 1228   2.581   3.524   4.315
    2MOL1     C 1229   2.756   3.510   4.292
    2MOL1    Cl 1230   2.811   3.346   4.333
    2MOL1    Cl 1231   2.801   3.551   4.126
    2MOL1     H 1232   2.805   3.580   4.360
    2MOL1    Cl 1233   1.321   2.802   4.026
    2MOL1     C 1234   1.156   2.806   4.092
    2MOL1    Cl 1235   1.150   2.720   4.247
    2MOL1    Cl 1236   1.100   2.972   4.111
    2MOL1     H 1237   1.090   2.755   4.022
    2MOL1    Cl 1238   1.372   2.881   3.351
    2MOL1     C 1239   1.513   2.915   3.451
    2MOL1    Cl 1240   1.607   3.049   3.384
    2MOL1    Cl 1241   1.465   2.950   3.618
    2MOL1     H 1242   1.577   2.825   3.452
    2MOL1    Cl 1243   3.971   4.728   3.875
    2MOL1     C 1244   3.807   4.774   3.926
    2MOL1    Cl 1245   3.715   4.631   3.976
    2MOL1    Cl 1246   3.814   4.893   4.056
    2MOL1     H 1247   3.756   4.819   3.840
    2MOL1    Cl 1248   0.325   3.258   0.586
    2MOL1     C 1249   0.165   3.220   0.521
    2MOL1    Cl 1250   0.097   3.361   0.437
    2MOL1    Cl 1251   0.173   3.081   0.412
    2MOL1     H 1252   0.099   3.194   0.604
    2MOL1    Cl 1253   1.590   2.238   5.173
    2MOL1     C 1254   1.456   2.266   5.060
    2MOL1    Cl 1255   1.367   2.116   5.030
    2MOL1    Cl 1256   1.348   2.391   5.124
    2MOL1     H 1257   1.498   2.302   4.966
    2MOL1    Cl 1258   0.207   2.060   3.012
    2MOL1     C 1259   0.313   1.942   3.090
    2MOL1    Cl 1260   0.418   2.021   3.209
    2MOL1    Cl 1261   0.218   1.813   3.167
    2MOL1     H 1262   0.376   1.896   3.014
    2MOL1    Cl 1263   3.703   0.082   4.957
    2MOL1     C 1264   3.639   0.246   4.941
    2MOL1    Cl 1265   3.571   0.302   5.095
    2MOL1    Cl 1266   3.766   0.357   4.886
    2MOL1     H 1267   3.560   0.246   4.867
    2MOL1    Cl 1268   1.774   2.903   1.975
    2MOL1     C 1269   1.798   2.838   2.137
    2MOL1    Cl 1270   1.653   2.753   2.193
    2MOL1    Cl 1271   1.939   2.729   2.140
    2MOL1     H 1272   1.818   2.921   2.206
    2MOL1    Cl 1273   4.148   0.617   4.387
    2MOL1     C 1274   4.148   0.681   4.222
    2MOL1    Cl 1275   4.072   0.567   4.111
    2MOL1    Cl 1276   4.066   0.838   4.217
    2MOL1     H 1277   4.252   0.696   4.191
    2MOL1    Cl 1278   0.203   3.690   1.502
    2MOL1     C 1279   0.257   3.833   1.591
    2MOL1    Cl 1280   0.431   3.824   1.623
    2MOL1    Cl 1281   0.218   3.981   1.501
    2MOL1     H 1282   0.205   3.836   1.687
    2MOL1    Cl 1283   0.244   1.782   0.911
    2MOL1     C 1284   0.112   1.743   1.022
    2MOL1    Cl 1285   0.036   1.590   0.976
    2MOL1    Cl 1286   0.170   1.735   1.189
    2MOL1     H 1287   0.037   1.822   1.015
    2MOL1    Cl 1288   3.858   2.551   2.934
    2MOL1     C 1289   3.690   2.582   2.887
    2MOL1    Cl 1290   3.677   2.598   2.711
    2MOL1    Cl 1291   3.584   2.451   2.945
    2MOL1     H 1292   3.657   2.675   2.933
    2MOL1    Cl 1293   0.397   5.015   2.803
    2MOL1     C 1294   0.308   4.871   2.855
    2MOL1    Cl 1295   0.134   4.893   2.828
    2MOL1    Cl 1296   0.367   4.727   2.770
    2MOL1     H 1297   0.324   4.857   2.962
    2MOL1    Cl 1298   0.059   4.511   2.367
    2MOL1     C 1299   0.108   4.621   2.498
    2MOL1    Cl 1300   0.024   4.776   2.483
    2MOL1    Cl 1301   0.076   4.548   2.656
    2MOL1     H 1302   0.215   4.639   2.489
    2MOL1    Cl 1303   0.638   2.566   2.257
    2MOL1     C 1304   0.473   2.522   2.305
    2MOL1    Cl 1305   0.408   2.641   2.419
    2MOL1    Cl 1306   0.368   2.509   2.163
    2MOL1     H 1307   0.476   2.425   2.355
    2MOL1    Cl 1308   0.789   4.075   2.777
    2MOL1     C 1309   0.643   4.019   2.861
    2MOL1    Cl 1310   0.572   3.880   2.776
    2MOL1    Cl 1311   0.680   3.977   3.029
    2MOL1     H 1312   0.570   4.100   2.861
    2MOL1    Cl 1313   2.269   0.614   3.962
    2MOL1     C 1314   2.356   0.754   4.027
    2MOL1    Cl 1315   2.531   0.725   4.025
    2MOL1    Cl 1316   2.317   0.900   3.935
    2MOL1     H 1317   2.325   0.768   4.131
    2MOL1    Cl 1318   1.893   1.739   2.221
    2MOL1     C 1319   1.744   1.826   2.183
    2MOL1    Cl 1320   1.630   1.819   2.319
    2MOL1    Cl 1321   1.780   1.995   2.142
    2MOL1     H 1322   1.697   1.779   2.096
    2MOL1    Cl 1323   0.933   3.120   2.219
    2MOL1     C 1324   0.950   3.236   2.352
    2MOL1    Cl 1325   1.074   3.357   2.314
    2MOL1    Cl 1326   0.795   3.315   2.386
    2MOL1     H 1327   0.982   3.182   2.441
    2MOL1    Cl 1328   4.624   3.851   3.231
    2MOL1     C 1329   4.733   3.733   3.157
    2MOL1    Cl 1330   4.663   3.670   3.007
    2MOL1    Cl 1331   4.892   3.805   3.126
    2MOL1     H 1332   4.746   3.650   3.226
    2MOL1    Cl 1333   4.453   1.125   4.553
    2MOL1     C 1334   4.299   1.038   4.547
    2MOL1    Cl 1335   4.182   1.125   4.447
    2MOL1    Cl 1336   4.322   0.873   4.487
    2MOL1     H 1337   4.259   1.032   4.649
    2MOL1    Cl 1338   0.320   2.998   4.650
    2MOL1     C 1339   0.174   3.096   4.635
    2MOL1    Cl 1340   0.148   3.144   4.467
    2MOL1    Cl 1341   0.033   3.008   4.697
    2MOL1     H 1342   0.187   3.186   4.695
    2MOL1    Cl 1343   0.915   1.835   0.203
    2MOL1     C 1344   1.050   1.852   0.318
    2MOL1    Cl 1345   1.205   1.855   0.232
    2MOL1    Cl 1346   1.030   1.999   0.415
    2MOL1     H 1347   1.049   1.766   0.385
    2MOL1    Cl 1348   1.788   2.221   1.794
    2MOL1     C 1349   1.949   2.146   1.787
    2MOL1    Cl 1350   1.941   1.977   1.840
    2MOL1    Cl 1351   2.016   2.158   1.623
    2MOL1     H 1352   2.015   2.200   1.855
    2MOL1    Cl 1353   2.431   4.368   3.766
    2MOL1     C 1354   2.501   4.459   3.901
    2MOL1    Cl 1355   2.652   4.383   3.956
    2MOL1    Cl 1356   2.529   4.627   3.855
    2MOL1     H 1357   2.430   4.458   3.984
    2MOL1    Cl 1358   3.123   0.398   1.700
    2MOL1     C 1359   3.210   0.531   1.778
    2MOL1    Cl 1360   3.378   0.538   1.720
    2MOL1    Cl 1361   3.128   0.685   1.749
    2MOL1     H 1362   3.212   0.512   1.886
    2MOL1    Cl 1363   2.356   4.891   4.817
    2MOL1     C 1364   2.480   4.804   4.908
    2MOL1    Cl 1365   2.603   4.915   4.970
    2MOL1    Cl 1366   2.407   4.712   5.040
    2MOL1     H 1367   2.529   4.733   4.840
    2MOL1    Cl 1368   2.716   2.053   3.393
    2MOL1     C 1369   2.692   1.884   3.439
    2MOL1    Cl 1370   2.686   1.868   3.615
    2MOL1    Cl 1371   2.544   1.820   3.365
    2MOL1     H 1372   2.776   1.826   3.402
    2MOL1    Cl 1373   0.711   1.833   4.960
    2MOL1     C 1374   0.880   1.828   5.013
    2MOL1    Cl 1375   0.899   1.715   5.148
    2MOL1    Cl 1376   0.986   1.782   4.879
    2MOL1     H 1377   0.908   1.928   5.047
    2MOL1    Cl 1378   3.157   0.992   3.132
    2MOL1     C 1379   3.151   1.169   3.137
    2MOL1    Cl 1380   3.291   1.239   3.054
    2MOL1    Cl 1381   3.000   1.228   3.065
    2MOL1     H 1382   3.154   1.201   3.242
    2MOL1    Cl 1383   3.616   0.842   1.705
    2MOL1     C 1384   3.764   0.801   1.617
    2MOL1    Cl 1385   3.907   0.862   1.703
    2MOL1    Cl 1386   3.776   0.625   1.594
    2MOL1     H 1387   3.761   0.848   1.519
    2MOL1    Cl 1388   0.356   0.321   0.624
    2MOL1     C 1389   0.355   0.478   0.705
    2MOL1    Cl 1390   0.486   0.581   0.644
    2MOL1    Cl 1391   0.198   0.558   0.683
    2MOL1     H 1392   0.371   0.462   0.812
    2MOL1    Cl 1393   0.712   3.866   3.644
    2MOL1     C 1394   0.853   3.819   3.740
    2MOL1    Cl 1395   1.002   3.849   3.649
    2MOL1    Cl 1396   0.855   3.907   3.894
    2MOL1     H 1397   0.847   3.712   3.761
    2MOL1    Cl 1398   5.322   4.216   4.353
    2MOL1     C 1399   5.166   4.233   4.436
    2MOL1    Cl 1400   5.104   4.398   4.420
    2MOL1    Cl 1401   5.049   4.116   4.374
    2MOL1     H 1402   5.182   4.213   4.542
    2MOL1    Cl 1403   3.805   1.716   0.795
    2MOL1     C 1404   3.750   1.798   0.942
    2MOL1    Cl 1405   3.888   1.859   1.035
    2MOL1    Cl 1406   3.638   1.930   0.902
    2MOL1     H 1407   3.696   1.725   1.004
    2MOL1    Cl 1408   3.333   4.547   3.870
    2MOL1     C 1409   3.381   4.587   3.705
    2MOL1    Cl 1410   3.518   4.700   3.706
    2MOL1    Cl 1411   3.422   4.440   3.614
    2MOL1     H 1412   3.297   4.636   3.655
    2MOL1    Cl 1413   1.527   4.714   3.230
    2MOL1     C 1414   1.703   4.736   3.238
    2MOL1    Cl 1415   1.745   4.855   3.363
    2MOL1    Cl 1416   1.784   4.582   3.268
    2MOL1     H 1417   1.737   4.775   3.141
    2MOL1    Cl 1418   2.425   0.601   2.583
    2MOL1     C 1419   2.595   0.556   2.605
    2MOL1    Cl 1420   2.617   0.473   2.760
    2MOL1    Cl 1421   2.651   0.455   2.471
    2MOL1     H 1422   2.655   0.648   2.606
    2MOL1    Cl 1423   3.385   2.220   4.379
    2MOL1     C 1424   3.333   2.155   4.223
    2MOL1    Cl 1425   3.176   2.074   4.238
    2MOL1    Cl 1426   3.325   2.283   4.101
    2MOL1     H 1427   3.407   2.081   4.190
    2MOL1    Cl 1428   2.890   2.508   0.567
    2MOL1     C 1429   2.915   2.361   0.662
    2MOL1    Cl 1430   3.000   2.397   0.813
    2MOL1    Cl 1431   2.760   2.281   0.695
    2MOL1     H 1432   2.977   2.292   0.603
    2MOL1    Cl 1433   1.777   0.628   4.856
    2MOL1     C 1434   1.609   0.587   4.895
    2MOL1    Cl 1435   1.602   0.437   4.989
    2MOL1    Cl 1436   1.531   0.719   4.983
    2MOL1     H 1437   1.555   0.571   4.802
    2MOL1    Cl 1438   0.686   1.808   1.608
    2MOL1     C 1439   0.802   1.682   1.653
    2MOL1    Cl 1440   0.751   1.524   1.591
    2MOL1    Cl 1441   0.964   1.723   1.593
    2MOL1     H 1442   0.807   1.677   1.762
    2MOL1    Cl 1443   5.134   3.280   0.369
    2MOL1     C 1444   4.992   3.197   0.303
    2MOL1    Cl 1445   4.957   3.254   0.139
    2MOL1    Cl 1446   5.017   3.021   0.304
    2MOL1     H 1447   4.906   3.219   0.367
    2MOL1    Cl 1448   0.521   1.671   3.926
    2MOL1     C 1449   0.672   1.707   4.011
    2MOL1    Cl 1450   0.640   1.809   4.152
    2MOL1    Cl 1451   0.753   1.557   4.060
    2MOL1     H 1452   0.738   1.761   3.943
    2MOL1    Cl 1453   1.084   0.662   0.370
    2MOL1     C 1454   1.006   0.808   0.432
    2MOL1    Cl 1455   0.894   0.768   0.564
    2MOL1    Cl 1456   1.127   0.925   0.487
    2MOL1     H 1457   0.949   0.854   0.351
    2MOL1    Cl 1458   3.398   5.056   4.880
    2MOL1     C 1459   3.504   4.922   4.923
    2MOL1    Cl 1460   3.447   4.841   5.070
    2MOL1    Cl 1461   3.515   4.806   4.789
    2MOL1     H 1462   3.604   4.961   4.942
    2MOL1    Cl 1463   3.226   4.017   3.604
    2MOL1     C 1464   3.098   3.910   3.665
    2MOL1    Cl 1465   3.168   3.762   3.733
    2MOL1    Cl 1466   2.999   3.994   3.785
    2MOL1     H 1467   3.034   3.882   3.581
    2MOL1    Cl 1468   2.968   4.215   3.355
    2MOL1     C 1469   2.854   4.305   3.254
    2MOL1    Cl 1470   2.687   4.260   3.292
    2MOL1    Cl 1471   2.878   4.480   3.274
    2MOL1     H 1472   2.873   4.279   3.149
    2MOL1    Cl 1473   3.332   1.353   2.746
    2MOL1     C 1474   3.501   1.304   2.733
    2MOL1    Cl 1475   3.516   1.153   2.642
    2MOL1    Cl 1476   3.597   1.432   2.656
    2MOL1     H 1477   3.540   1.287   2.834
    2MOL1    Cl 1478   4.465   2.108   5.290
    2MOL1     C 1479   4.563   2.084   5.145
    2MOL1    Cl 1480   4.721   2.015   5.186
    2MOL1    Cl 1481   4.478   1.981   5.029
    2MOL1     H 1482   4.579   2.182   5.098
    2MOL1    Cl 1483   3.298   2.097   0.878
    2MOL1     C 1484   3.218   2.217   0.776
    2MOL1    Cl 1485   3.243   2.381   0.840
    2MOL1    Cl 1486   3.277   2.206   0.609
    2MOL1     H 1487   3.111   2.196   0.776
    2MOL1    Cl 1488   4.708   4.927   1.521
    2MOL1     C 1489   4.589   4.796   1.536
    2MOL1    Cl 1490   4.645   4.674   1.652
    2MOL1    Cl 1491   4.432   4.861   1.586
    2MOL1     H 1492   4.577   4.749   1.439
    2MOL1    Cl 1493   4.754   0.840   3.286
    2MOL1     C 1494   4.631   0.720   3.242
    2MOL1    Cl 1495   4.682   0.558   3.292
    2MOL1    Cl 1496   4.476   0.761   3.316
    2MOL1     H 1497   4.620   0.721   3.134
    2MOL1    Cl 1498   3.545   2.052   0.387
    2MOL1     C 1499   3.556   2.228   0.406
    2MOL1    Cl 1500   3.575   2.270   0.577
    2MOL1    Cl 1501   3.690   2.293   0.310
    2MOL1     H 1502   3.463   2.272   0.370
    2MOL1    Cl 1503   1.656   0.041   2.674
    2MOL1     C 1504   1.766   0.172   2.720
    2MOL1    Cl 1505   1.717   0.243   2.875
    2MOL1    Cl 1506   1.933   0.112   2.730
    2MOL1     H 1507   1.762   0.250   2.644
    2MOL1    Cl 1508   1.277   4.851   5.049
    2MOL1     C 1509   1.282   4.709   5.156
    2MOL1    Cl 1510   1.449   4.675   5.206
    2MOL1    Cl 1511   1.178   4.734   5.297
    2MOL1     H 1512   1.244   4.623   5.100
    2MOL1    Cl 1513   5.086   0.462   4.503
    2MOL1     C 1514   5.124   0.289   4.501
    2MOL1    Cl 1515   5.245   0.250   4.625
    2MOL1    Cl 1516   4.978   0.193   4.524
    2MOL1     H 1517   5.167   0.265   4.403
    2MOL1    Cl 1518   4.474   4.995   0.322
    2MOL1     C 1519   4.367   4.874   0.248
    2MOL1    Cl 1520   4.412   4.847   0.079
    2MOL1    Cl 1521   4.373   4.722   0.340
    2MOL1     H 1522   4.265   4.912   0.251
    2MOL1    Cl 1523   0.736   2.625   4.030
    2MOL1     C 1524   0.605   2.627   3.912
    2MOL1    Cl 1525   0.519   2.472   3.911
    2MOL1    Cl 1526   0.492   2.760   3.946
    2MOL1     H 1527   0.648   2.644   3.813
    2MOL1    Cl 1528   3.953   1.217   1.748
    2MOL1     C 1529   4.037   1.362   1.689
    2MOL1    Cl 1530   4.184   1.391   1.783
    2MOL1    Cl 1531   4.075   1.346   1.517
    2MOL1     H 1532   3.970   1.447   1.702
    2MOL1    Cl 1533   1.330   4.936   0.479
    2MOL1     C 1534   1.480   4.916   0.388
    2MOL1    Cl 1535   1.498   4.748   0.333
    2MOL1    Cl 1536   1.486   5.028   0.251
    2MOL1     H 1537   1.564   4.939   0.455
    2MOL1    Cl 1538   3.184   1.114   3.885
    2MOL1     C 1539   3.304   1.141   4.012
    2MOL1    Cl 1540   3.365   1.307   4.006
    2MOL1    Cl 1541   3.235   1.106   4.171
    2MOL1     H 1542   3.388   1.073   3.995
    2MOL1    Cl 1543   4.701   3.524   3.544
    2MOL1     C 1544   4.644   3.558   3.708
    2MOL1    Cl 1545   4.488   3.479   3.738
    2MOL1    Cl 1546   4.764   3.507   3.828
    2MOL1     H 1547   4.630   3.666   3.718
    2MOL1    Cl 1548   1.260   0.919   0.724
    2MOL1     C 1549   1.373   0.809   0.644
    2MOL1    Cl 1550   1.287   0.670   0.577
    2MOL1    Cl 1551   1.464   0.894   0.517
    2MOL1     H 1552   1.445   0.772   0.718
    2MOL1    Cl 1553   1.084   2.083   0.976
    2MOL1     C 1554   1.195   2.014   1.096
    2MOL1    Cl 1555   1.106   1.964   1.241
    2MOL1    Cl 1556   1.284   1.877   1.028
    2MOL1     H 1557   1.267   2.091   1.125
    2MOL1    Cl 1558   3.618   2.965   2.323
    2MOL1     C 1559   3.502   3.085   2.384
    2MOL1    Cl 1560   3.448   3.042   2.547
    2MOL1    Cl 1561   3.574   3.247   2.383
    2MOL1     H 1562   3.415   3.085   2.318
    2MOL1    Cl 1563   3.136   3.692   2.804
    2MOL1     C 1564   3.252   3.562   2.836
    2MOL1    Cl 1565   3.323   3.580   2.997
    2MOL1    Cl 1566   3.173   3.404   2.820
    2MOL1     H 1567   3.332   3.568   2.761
    2MOL1    Cl 1568   1.283   1.145   0.183
    2MOL1     C 1569   1.399   1.221   0.293
    2MOL1    Cl 1570   1.558   1.146   0.278
    2MOL1    Cl 1571   1.409   1.396   0.261
    2MOL1     H 1572   1.364   1.208   0.395
    2MOL1    Cl 1573   3.048   0.415   0.897
    2MOL1     C 1574   3.062   0.242   0.865
    2MOL1    Cl 1575   3.168   0.165   0.984
    2MOL1    Cl 1576   2.902   0.165   0.866
    2MOL1     H 1577   3.106   0.228   0.766
    2MOL1    Cl 1578   1.903   3.344   1.186
    2MOL1     C 1579   1.906   3.370   1.011
    2MOL1    Cl 1580   2.024   3.495   0.969
    2MOL1    Cl 1581   1.943   3.219   0.926
    2MOL1     H 1582   1.807   3.404   0.979
    2MOL1    Cl 1583   2.910   3.927   2.057
    2MOL1     C 1584   2.946   3.767   1.992
    2MOL1    Cl 1585   2.937   3.767   1.815
    2MOL1    Cl 1586   3.106   3.712   2.046
    2MOL1     H 1587   2.871   3.696   2.030
    2MOL1    Cl 1588   4.742   0.739   4.149
    2MOL1     C 1589   4.708   0.567   4.128
    2MOL1    Cl 1590   4.566   0.544   4.024
    2MOL1    Cl 1591   4.849   0.484   4.060
    2MOL1     H 1592   4.686   0.524   4.226
    2MOL1    Cl 1593   4.637   2.876   4.884
    2MOL1     C 1594   4.647   3.031   4.798
    2MOL1    Cl 1595   4.803   3.110   4.829
    2MOL1    Cl 1596   4.624   3.007   4.624
    2MOL1     H 1597   4.567   3.096   4.835
    2MOL1    Cl 1598   1.003   4.531   2.447
    2MOL1     C 1599   1.096   4.671   2.391
    2MOL1    Cl 1600   1.027   4.735   2.240
    2MOL1    Cl 1601   1.100   4.797   2.515
    2MOL1     H 1602   1.198   4.638   2.371
    2MOL1    Cl 1603   5.183   0.399   0.384
    2MOL1     C 1604   5.124   0.234   0.364
    2MOL1    Cl 1605   5.027   0.219   0.217
    2MOL1    Cl 1606   5.260   0.119   0.361
    2MOL1     H 1607   5.061   0.209   0.450
    2MOL1    Cl 1608   4.515   0.344   3.615
    2MOL1     C 1609   4.599   0.495   3.653
    2MOL1    Cl 1610   4.506   0.592   3.768
    2MOL1    Cl 1611   4.761   0.462   3.717
    2MOL1     H 1612   4.610   0.553   3.561
    2MOL1    Cl 1613   3.669   5.034   4.598
    2MOL1     C 1614   3.615   5.122   4.454
    2MOL1    Cl 1615   3.718   5.085   4.315
    2MOL1    Cl 1616   3.445   5.084   4.417
    2MOL1     H 1617   3.622   5.230   4.474
    2MOL1    Cl 1618   1.468   2.015   1.371
    2MOL1     C 1619   1.420   1.962   1.533
    2MOL1    Cl 1620   1.301   1.831   1.523
    2MOL1    Cl 1621   1.562   1.911   1.626
    2MOL1     H 1622   1.374   2.047   1.585
    2MOL1    Cl 1623   5.340   0.355   1.559
    2MOL1     C 1624   5.276   0.209   1.480
    2MOL1    Cl 1625   5.329   0.064   1.566
    2MOL1    Cl 1626   5.099   0.216   1.472
    2MOL1     H 1627   5.315   0.205   1.378
    2MOL1    Cl 1628   3.417   1.906   2.909
    2MOL1     C 1629   3.337   1.816   2.779
    2MOL1    Cl 1630   3.400   1.651   2.770
    2MOL1    Cl 1631   3.161   1.814   2.804
    2MOL1     H 1632   3.357   1.866   2.684
    2MOL1    Cl 1633   3.579   0.253   0.521
    2MOL1     C 1634   3.626   0.424   0.529
    2MOL1    Cl 1635   3.620   0.497   0.368
    2MOL1    Cl 1636   3.522   0.512   0.642
    2MOL1     H 1637   3.729   0.429   0.565
    2MOL1    Cl 1638   0.684   1.910   1.900
    2MOL1     C 1639   0.639   1.742   1.931
    2MOL1    Cl 1640   0.513   1.733   2.055
    2MOL1    Cl 1641   0.586   1.663   1.782
    2MOL1     H 1642   0.727   1.689   1.968
    2MOL1    Cl 1643   2.936   3.807   1.360
    2MOL1     C 1644   2.760   3.825   1.349
    2MOL1    Cl 1645   2.682   3.667   1.329
    2MOL1    Cl 1646   2.696   3.908   1.492
    2MOL1     H 1647   2.737   3.886   1.261
    2MOL1    Cl 1648   2.273   2.482   4.425
    2MOL1     C 1649   2.437   2.549   4.432
    2MOL1    Cl 1650   2.530   2.500   4.290
    2MOL1    Cl 1651   2.431   2.726   4.445
    2MOL1     H 1652   2.486   2.510   4.521
    2MOL1    Cl 1653   0.564   2.207   1.016
    2MOL1     C 1654   0.581   2.345   0.906
    2MOL1    Cl 1655   0.496   2.486   0.971
    2MOL1    Cl 1656   0.752   2.382   0.879
    2MOL1     H 1657   0.536   2.318   0.810
    2MOL1    Cl 1658   2.661   0.632   1.699
    2MOL1     C 1659   2.610   0.463   1.686
    2MOL1    Cl 1660   2.676   0.388   1.540
    2MOL1    Cl 1661   2.658   0.371   1.830
    2MOL1     H 1662   2.500   0.461   1.679
    2MOL1    Cl 1663   2.382   3.732   0.067
    2MOL1     C 1664   2.457   3.586   0.130
    2MOL1    Cl 1665   2.579   3.626   0.252
    2MOL1    Cl 1666   2.335   3.477   0.198
    2MOL1     H 1667   2.507   3.534   0.048
    2MOL1    Cl 1668   0.118   3.600   5.034
    2MOL1     C 1669   0.160   3.438   4.974
    2MOL1    Cl 1670   0.063   3.398   4.831
    2MOL1    Cl 1671   0.333   3.429   4.937
    2MOL1     H 1672   0.138   3.366   5.052
    2MOL1    Cl 1673   3.926   1.869   1.699
    2MOL1     C 1674   3.827   1.848   1.845
    2MOL1    Cl 1675   3.867   1.696   1.926
    2MOL1    Cl 1676   3.850   1.985   1.956
    2MOL1     H 1677   3.722   1.845   1.816
    2MOL1    Cl 1678   2.307   2.990   2.780
    2MOL1     C 1679   2.248   2.826   2.751
    2MOL1    Cl 1680   2.365   2.707   2.812
    2MOL1    Cl 1681   2.090   2.801   2.827
    2MOL1     H 1682   2.238   2.811   2.643
    2MOL1    Cl 1683   4.607   2.992   0.763
    2MOL1     C 1684   4.550   2.826   0.784
    2MOL1    Cl 1685   4.664   2.732   0.883
    2MOL1    Cl 1686   4.388   2.824   0.857
    2MOL1     H 1687   4.543   2.779   0.686
    2MOL1    Cl 1688   5.007   4.307   1.661
    2MOL1     C 1689   5.121   4.281   1.794
    2MOL1    Cl 1690   5.080   4.384   1.932
    2MOL1    Cl 1691   5.122   4.110   1.843
    2MOL1     H 1692   5.221   4.307   1.760
    2MOL1    Cl 1693   3.108   1.638   3.778
    2MOL1     C 1694   3.278   1.686   3.790
    2MOL1    Cl 1695   3.297   1.820   3.904
    2MOL1    Cl 1696   3.379   1.548   3.838
    2MOL1     H 1697   3.310   1.720   3.691
    2MOL1    Cl 1698   0.861   3.919   2.491
    2MOL1     C 1699   0.935   3.769   2.432
    2MOL1    Cl 1700   0.860   3.718   2.280
    2MOL1    Cl 1701   1.110   3.789   2.412
    2MOL1     H 1702   0.918   3.691   2.507
    2MOL1    Cl 1703   3.022   4.053   2.392
    2MOL1     C 1704   3.051   4.197   2.294
    2MOL1    Cl 1705   3.181   4.296   2.364
    2MOL1    Cl 1706   3.090   4.153   2.126
    2MOL1     H 1707   2.959   4.257   2.293
    2MOL1    Cl 1708   1.204   2.913   2.318
    2MOL1     C 1709   1.326   3.038   2.347
    2MOL1    Cl 1710   1.333   3.079   2.520
    2MOL1    Cl 1711   1.485   2.984   2.290
    2MOL1     H 1712   1.298   3.127   2.291
    2MOL1    Cl 1713   4.502   0.292   5.132
    2MOL1     C 1714   4.605   0.155   5.174
    2MOL1    Cl 1715   4.728   0.203   5.293
    2MOL1    Cl 1716   4.508   0.020   5.236
    2MOL1     H 1717   4.656   0.121   5.084
    2MOL1    Cl 1718   4.256   4.828   2.441
    2MOL1     C 1719   4.130   4.945   2.400
    2MOL1    Cl 1720   4.050   4.900   2.249
    2MOL1    Cl 1721   4.012   4.958   2.532
    2MOL1     H 1722   4.177   5.043   2.387
    2MOL1    Cl 1723   1.407   5.194   3.022
    2MOL1     C 1724   1.433   5.032   3.087
    2MOL1    Cl 1725   1.544   5.037   3.225
    2MOL1    Cl 1726   1.279   4.958   3.134
    2MOL1     H 1727   1.478   4.970   3.009
    2MOL1    Cl 1728   3.347   4.971   3.840
    2MOL1     C 1729   3.509   5.002   3.775
    2MOL1    Cl 1730   3.528   4.923   3.617
    2MOL1    Cl 1731   3.538   5.176   3.761
    2MOL1     H 1732   3.582   4.960   3.844
    2MOL1    Cl 1733   3.510   2.183   4.755
    2MOL1     C 1734   3.639   2.189   4.876
    2MOL1    Cl 1735   3.795   2.221   4.799
    2MOL1    Cl 1736   3.603   2.311   4.999
    2MOL1     H 1737   3.644   2.092   4.925
    2MOL1    Cl 1738   4.939   4.066   2.468
    2MOL1     C 1739   4.866   4.191   2.570
    2MOL1    Cl 1740   4.747   4.284   2.477
    2MOL1    Cl 1741   4.791   4.118   2.713
    2MOL1     H 1742   4.945   4.259   2.603
    2MOL1    Cl 1743   4.957   3.085   2.404
    2MOL1     C 1744   5.124   3.120   2.452
    2MOL1    Cl 1745   5.130   3.262   2.558
    2MOL1    Cl 1746   5.196   2.979   2.533
    2MOL1     H 1747   5.182   3.142   2.362
    2MOL1    Cl 1748   1.495   2.415   0.871
    2MOL1     C 1749   1.447   2.259   0.940
    2MOL1    Cl 1750   1.542   2.223   1.084
    2MOL1    Cl 1751   1.274   2.258   0.977
    2MOL1     H 1752   1.466   2.181   0.865
    2MOL1    Cl 1753   1.164   2.024   4.217
    2MOL1     C 1754   1.140   1.997   4.044
    2MOL1    Cl 1755   1.271   1.897   3.977
    2MOL1    Cl 1756   0.983   1.922   4.013
    2MOL1     H 1757   1.142   2.094   3.993
    2MOL1    Cl 1758   4.012   3.505   1.322
    2MOL1     C 1759   4.125   3.636   1.283
    2MOL1    Cl 1760   4.131   3.754   1.415
    2MOL1    Cl 1761   4.287   3.571   1.251
    2MOL1     H 1762   4.090   3.686   1.193
    2MOL1    Cl 1763   0.402   5.117   2.216
    2MOL1     C 1764   0.247   5.162   2.143
    2MOL1    Cl 1765   0.246   5.334   2.100
    2MOL1    Cl 1766   0.214   5.062   2.001
    2MOL1     H 1767   0.168   5.144   2.217
    2MOL1    Cl 1768   1.477   2.557   1.838
    2MOL1     C 1769   1.318   2.544   1.760
    2MOL1    Cl 1770   1.315   2.637   1.609
    2MOL1    Cl 1771   1.276   2.375   1.731
    2MOL1     H 1772   1.244   2.587   1.828
    2MOL1    Cl 1773   0.823   2.220   3.992
    2MOL1     C 1774   0.901   2.352   4.082
    2MOL1    Cl 1775   0.792   2.413   4.208
    2MOL1    Cl 1776   1.054   2.297   4.152
    2MOL1     H 1777   0.922   2.433   4.012
    2MOL1    Cl 1778   1.149   0.751   5.137
    2MOL1     C 1779   1.098   0.917   5.172
    2MOL1    Cl 1780   0.928   0.921   5.221
    2MOL1    Cl 1781   1.201   0.989   5.297
    2MOL1     H 1782   1.108   0.976   5.081
    2MOL1    Cl 1783   3.550   3.091   1.090
    2MOL1     C 1784   3.665   2.988   1.003
    2MOL1    Cl 1785   3.805   2.952   1.105
    2MOL1    Cl 1786   3.586   2.838   0.950
    2MOL1     H 1787   3.699   3.042   0.915
    2MOL1    Cl 1788   3.835   4.930   2.986
    2MOL1     C 1789   3.676   4.995   3.027
    2MOL1    Cl 1790   3.667   5.167   2.987
    2MOL1    Cl 1791   3.548   4.904   2.945
    2MOL1     H 1792   3.662   4.984   3.135
    2MOL1    Cl 1793   4.634   3.367   5.120
    2MOL1     C 1794   4.595   3.200   5.163
    2MOL1    Cl 1795   4.420   3.179   5.183
    2MOL1    Cl 1796   4.657   3.087   5.041
    2MOL1     H 1797   4.644   3.177   5.258
    2MOL1    Cl 1798   4.549   2.779   2.832
    2MOL1     C 1799   4.460   2.846   2.970
    2MOL1    Cl 1800   4.293   2.881   2.925
    2MOL1    Cl 1801   4.466   2.734   3.107
    2MOL1     H 1802   4.509   2.939   2.999
    2MOL1    Cl 1803   2.348   4.332   3.552
    2MOL1     C 1804   2.362   4.504   3.515
    2MOL1    Cl 1805   2.269   4.601   3.631
    2MOL1    Cl 1806   2.532   4.554   3.515
    2MOL1     H 1807   2.321   4.522   3.415
    2MOL1    Cl 1808   3.520   2.117   0.874
    2MOL1     C 1809   3.532   2.258   0.982
    2MOL1    Cl 1810   3.666   2.239   1.095
    2MOL1    Cl 1811   3.550   2.407   0.887
    2MOL1     H 1812   3.439   2.265   1.039
    2MOL1    Cl 1813   2.326   2.085   2.813
    2MOL1     C 1814   2.343   2.100   2.638
    2MOL1    Cl 1815   2.240   1.982   2.554
    2MOL1    Cl 1816   2.304   2.264   2.585
    2MOL1     H 1817   2.447   2.080   2.612
    2MOL1    Cl 1818   2.799   2.810   3.404
    2MOL1     C 1819   2.910   2.926   3.478
    2MOL1    Cl 1820   2.849   3.091   3.459
    2MOL1    Cl 1821   2.936   2.888   3.649
    2MOL1     H 1822   3.006   2.919   3.426
    2MOL1    Cl 1823   5.049   1.753   1.722
    2MOL1     C 1824   5.014   1.923   1.687
    2MOL1    Cl 1825   4.945   1.941   1.525
    2MOL1    Cl 1826   4.905   1.991   1.809
    2MOL1     H 1827   5.108   1.979   1.691
    2MOL1    Cl 1828   1.511   1.296   3.631
    2MOL1     C 1829   1.666   1.377   3.601
    2MOL1    Cl 1830   1.797   1.259   3.586
    2MOL1    Cl 1831   1.656   1.478   3.456
    2MOL1     H 1832   1.688   1.442   3.686
    2MOL1    Cl 1833   3.382   4.308   2.118
    2MOL1     C 1834   3.427   4.187   2.239
    2MOL1    Cl 1835   3.418   4.256   2.402
    2MOL1    Cl 1836   3.323   4.044   2.226
    2MOL1     H 1837   3.530   4.156   2.221
    2MOL1    Cl 1838   2.107   3.727   0.559
    2MOL1     C 1839   2.070   3.571   0.483
    2MOL1    Cl 1840   1.932   3.586   0.374
    2MOL1    Cl 1841   2.212   3.509   0.397
    2MOL1     H 1842   2.044   3.500   0.562
    2MOL1    Cl 1843   4.588   2.276   3.212
    2MOL1     C 1844   4.620   2.104   3.238
    2MOL1    Cl 1845   4.756   2.082   3.349
    2MOL1    Cl 1846   4.475   2.023   3.301
    2MOL1     H 1847   4.646   2.059   3.142
    2MOL1    Cl 1848   2.430   3.749   1.345
    2MOL1     C 1849   2.358   3.905   1.390
    2MOL1    Cl 1850   2.460   4.039   1.335
    2MOL1    Cl 1851   2.195   3.919   1.322
    2MOL1     H 1852   2.350   3.909   1.499
    2MOL1    Cl 1853   0.976   4.859   4.610
    2MOL1     C 1854   1.021   4.938   4.762
    2MOL1    Cl 1855   1.175   4.873   4.822
    2MOL1    Cl 1856   1.032   5.113   4.741
    2MOL1     H 1857   0.944   4.916   4.836
    2MOL1    Cl 1858   3.749   3.053   3.696
    2MOL1     C 1859   3.691   3.220   3.711
    2MOL1    Cl 1860   3.560   3.230   3.830
    2MOL1    Cl 1861   3.824   3.328   3.756
    2MOL1     H 1862   3.652   3.251   3.614
    2MOL1    Cl 1863   3.643   3.746   1.297
    2MOL1     C 1864   3.805   3.808   1.262
    2MOL1    Cl 1865   3.826   3.833   1.088
    2MOL1    Cl 1866   3.834   3.960   1.350
    2MOL1     H 1867   3.879   3.735   1.296
    2MOL1    Cl 1868   2.602   1.301   4.118
    2MOL1     C 1869   2.552   1.291   3.948
    2MOL1    Cl 1870   2.386   1.351   3.929
    2MOL1    Cl 1871   2.663   1.382   3.845
    2MOL1     H 1872   2.555   1.186   3.918
    2MOL1    Cl 1873   1.983   3.724   4.828
    2MOL1     C 1874   2.126   3.643   4.895
    2MOL1    Cl 1875   2.112   3.467   4.877
    2MOL1    Cl 1876   2.274   3.702   4.817
    2MOL1     H 1877   2.132   3.666   5.002
    2MOL1    Cl 1878   4.174   3.851   3.091
    2MOL1     C 1879   4.326   3.890   3.172
    2MOL1    Cl 1880   4.347   4.065   3.185
    2MOL1    Cl 1881   4.333   3.814   3.332
    2MOL1     H 1882   4.408   3.850   3.112
    2MOL1    Cl 1883   3.106   1.426   5.053
    2MOL1     C 1884   3.088   1.594   5.002
    2MOL1    Cl 1885   3.175   1.623   4.850
    2MOL1    Cl 1886   2.916   1.636   4.984
    2MOL1     H 1887   3.131   1.658   5.079
    2MOL1    Cl 1888   0.512   0.718   4.131
    2MOL1     C 1889   0.658   0.617   4.133
    2MOL1    Cl 1890   0.614   0.445   4.141
    2MOL1    Cl 1891   0.758   0.649   3.990
    2MOL1     H 1892   0.716   0.642   4.222
    2MOL1    Cl 1893   3.655   0.865   2.153
    2MOL1     C 1894   3.526   0.935   2.054
    2MOL1    Cl 1895   3.428   0.808   1.979
    2MOL1    Cl 1896   3.424   1.043   2.151
    2MOL1     H 1897   3.572   0.994   1.974
    2MOL1    Cl 1898   2.863   4.521   2.575
    2MOL1     C 1899   2.708   4.540   2.492
    2MOL1    Cl 1900   2.715   4.675   2.377
    2MOL1    Cl 1901   2.662   4.390   2.410
    2MOL1     H 1902   2.632   4.563   2.567
    2MOL1    Cl 1903   1.011   1.122   2.403
    2MOL1     C 1904   0.992   1.122   2.227
    2MOL1    Cl 1905   0.833   1.184   2.182
    2MOL1    Cl 1906   1.120   1.216   2.150
    2MOL1     H 1907   1.000   1.018   2.192
    2MOL1    Cl 1908   2.391   4.267   3.294
    2MOL1     C 1909   2.378   4.378   3.157
    2MOL1    Cl 1910   2.467   4.528   3.189
    2MOL1    Cl 1911   2.437   4.301   3.008
    2MOL1     H 1912   2.273   4.403   3.143
    2MOL1    Cl 1913   4.332   2.008   4.837
    2MOL1     C 1914   4.254   1.866   4.764
    2MOL1    Cl 1915   4.341   1.718   4.810
    2MOL1    Cl 1916   4.084   1.856   4.813
    2MOL1     H 1917   4.258   1.876   4.656
    2MOL1    Cl 1918   0.470   0.528   0.431
    2MOL1     C 1919   0.572   0.390   0.383
    2MOL1    Cl 1920   0.722   0.447   0.309
    2MOL1    Cl 1921   0.606   0.287   0.523
    2MOL1     H 1922   0.517   0.331   0.310
    2MOL1    Cl 1923   3.768   3.746   5.299
    2MOL1     C 1924   3.908   3.833   5.234
    2MOL1    Cl 1925   3.881   4.008   5.240
    2MOL1    Cl 1926   4.055   3.790   5.324
    2MOL1     H 1927   3.922   3.804   5.130
    2MOL1    Cl 1928   1.969   2.265   2.558
    2MOL1     C 1929   2.027   2.320   2.717
    2MOL1    Cl 1930   2.022   2.496   2.727
    2MOL1    Cl 1931   1.931   2.247   2.846
    2MOL1     H 1932   2.130   2.287   2.728
    2MOL1    Cl 1933   2.325   4.119   1.674
    2MOL1     C 1934   2.165   4.164   1.613
    2MOL1    Cl 1935   2.053   4.027   1.626
    2MOL1    Cl 1936   2.102   4.304   1.701
    2MOL1     H 1937   2.174   4.191   1.508
    2MOL1    Cl 1938   3.947   3.603   1.882
    2MOL1     C 1939   4.119   3.630   1.846
    2MOL1    Cl 1940   4.141   3.673   1.675
    2MOL1    Cl 1941   4.184   3.757   1.951
    2MOL1     H 1942   4.173   3.538   1.866
    2MOL1    Cl 1943   2.763   4.769   0.604
    2MOL1     C 1944   2.619   4.669   0.633
    2MOL1    Cl 1945   2.657   4.536   0.744
    2MOL1    Cl 1946   2.487   4.768   0.698
    2MOL1     H 1947   2.587   4.627   0.538
    2MOL1    Cl 1948   2.622   2.255   4.797
    2MOL1     C 1949   2.765   2.357   4.774
    2MOL1    Cl 1950   2.892   2.269   4.688
    2MOL1    Cl 1951   2.721   2.504   4.685
    2MOL1     H 1952   2.803   2.386   4.872
    2MOL1    Cl 1953   1.711   3.333   2.747
    2MOL1     C 1954   1.543   3.350   2.692
    2MOL1    Cl 1955   1.516   3.512   2.625
    2MOL1    Cl 1956   1.504   3.226   2.572
    2MOL1     H 1957   1.477   3.337   2.778
    2MOL1    Cl 1958   0.615   4.315   4.843
    2MOL1     C 1959   0.691   4.166   4.903
    2MOL1    Cl 1960   0.725   4.180   5.076
    2MOL1    Cl 1961   0.587   4.026   4.871
    2MOL1     H 1962   0.785   4.152   4.850
    2MOL1    Cl 1963   0.116   2.295   1.868
    2MOL1     C 1964   0.166   2.449   1.794
    2MOL1    Cl 1965   0.055   2.579   1.840
    2MOL1    Cl 1966   0.332   2.489   1.841
    2MOL1     H 1967   0.163   2.437   1.686
    2MOL1    Cl 1968   4.284   0.918   4.220
    2MOL1     C 1969   4.447   0.985   4.209
    2MOL1    Cl 1970   4.568   0.865   4.255
    2MOL1    Cl 1971   4.479   1.045   4.045
    2MOL1     H 1972   4.455   1.070   4.278
    2MOL1    Cl 1973   3.856   1.088   0.354
    2MOL1     C 1974   4.008   1.134   0.431
    2MOL1    Cl 1975   3.979   1.241   0.569
    2MOL1    Cl 1976   4.098   0.990   0.482
    2MOL1     H 1977   4.069   1.188   0.358
    2MOL1    Cl 1978   2.016   1.711   4.032
    2MOL1     C 1979   1.909   1.808   3.930
    2MOL1    Cl 1980   1.749   1.733   3.917
    2MOL1    Cl 1981   1.894   1.973   3.995
    2MOL1     H 1982   1.953   1.815   3.830
    2MOL1    Cl 1983   0.298   1.757   2.104
    2MOL1     C 1984   0.347   1.892   1.999
    2MOL1    Cl 1985   0.449   1.834   1.867
    2MOL1    Cl 1986   0.204   1.975   1.935
    2MOL1     H 1987   0.404   1.963   2.059
    2MOL1    Cl 1988   1.833   0.492   3.462
    2MOL1     C 1989   1.694   0.595   3.422
    2MOL1    Cl 1990   1.745   0.734   3.325
    2MOL1    Cl 1991   1.570   0.501   3.337
    2MOL1     H 1992   1.651   0.632   3.516
    2MOL1    Cl 1993   2.266   4.325   1.033
    2MOL1     C 1994   2.326   4.208   1.152
    2MOL1    Cl 1995   2.462   4.275   1.243
    2MOL1    Cl 1996   2.195   4.159   1.262
    2MOL1     H 1997   2.360   4.119   1.098
    2MOL1    Cl 1998   3.650   1.754   4.334
    2MOL1     C 1999   3.475   1.743   4.358
    2MOL1    Cl 2000   3.435   1.608   4.466
    2MOL1    Cl 2001   3.411   1.895   4.422
    2MOL1     H 2002   3.428   1.724   4.261
    2MOL1    Cl 2003   2.429   3.748   4.227
    2MOL1     C 2004   2.268   3.703   4.169
    2MOL1    Cl 2005   2.211   3.818   4.048
    2MOL1    Cl 2006   2.269   3.538   4.103
    2MOL1     H 2007   2.199   3.705   4.254
    2MOL1    Cl 2008   3.020   1.058   4.889
    2MOL1     C 2009   3.168   0.979   4.944
    2MOL1    Cl 2010   3.306   1.090   4.931
    2MOL1    Cl 2011   3.150   0.921   5.110
    2MOL1     H 2012   3.187   0.893   4.879
    2MOL1    Cl 2013   3.086   2.933   2.618
    2MOL1     C 2014   3.095   2.804   2.497
    2MOL1    Cl 2015   3.263   2.756   2.469
    2MOL1    Cl 2016   2.998   2.665   2.548
    2MOL1     H 2017   3.053   2.842   2.403
    2MOL1    Cl 2018   4.546   4.221   0.861
    2MOL1     C 2019   4.723   4.236   0.856
    2MOL1    Cl 2020   4.779   4.345   0.984
    2MOL1    Cl 2021   4.799   4.077   0.872
    2MOL1     H 2022   4.751   4.278   0.760
    2MOL1    Cl 2023   1.970   2.777   4.434
    2MOL1     C 2024   2.103   2.883   4.483
    2MOL1    Cl 2025   2.044   3.012   4.589
    2MOL1    Cl 2026   2.230   2.789   4.563
    2MOL1     H 2027   2.145   2.928   4.393
    2MOL1    Cl 2028   2.788   4.165   4.344
    2MOL1     C 2029   2.631   4.117   4.412
    2MOL1    Cl 2030   2.591   3.951   4.366
    2MOL1    Cl 2031   2.633   4.134   4.589
    2MOL1     H 2032   2.555   4.183   4.372
    2MOL1    Cl 2033   4.364   5.281   2.555
    2MOL1     C 2034   4.460   5.174   2.658
    2MOL1    Cl 2035   4.355   5.062   2.746
    2MOL1    Cl 2036   4.579   5.085   2.561
    2MOL1     H 2037   4.514   5.235   2.730
    2MOL1    Cl 2038   1.567   3.813   2.112
    2MOL1     C 2039   1.724   3.735   2.140
    2MOL1    Cl 2040   1.837   3.848   2.217
    2MOL1    Cl 2041   1.704   3.590   2.239
    2MOL1     H 2042   1.766   3.706   2.043
    2MOL1    Cl 2043   3.660   0.900   1.014
    2MOL1     C 2044   3.524   0.787   1.031
    2MOL1    Cl 2045   3.395   0.859   1.128
    2MOL1    Cl 2046   3.464   0.739   0.872
    2MOL1     H 2047   3.560   0.698   1.083
    2MOL1    Cl 2048   0.356   3.915   3.072
    2MOL1     C 2049   0.279   3.757   3.053
    2MOL1    Cl 2050   0.114   3.775   2.989
    2MOL1    Cl 2051   0.375   3.652   2.948
    2MOL1     H 2052   0.272   3.710   3.152
    2MOL1    Cl 2053   2.919   2.618   4.993
    2MOL1     C 2054   2.980   2.652   4.830
    2MOL1    Cl 2055   3.002   2.502   4.739
    2MOL1    Cl 2056   2.871   2.763   4.745
    2MOL1     H 2057   3.078   2.701   4.840
    2MOL1    Cl 2058   2.303   0.504   0.673
    2MOL1     C 2059   2.276   0.679   0.679
    2MOL1    Cl 2060   2.103   0.716   0.672
    2MOL1    Cl 2061   2.349   0.748   0.825
    2MOL1     H 2062   2.324   0.724   0.592
    2MOL1    Cl 2063   2.948   0.534   2.276
    2MOL1     C 2064   2.933   0.357   2.278
    2MOL1    Cl 2065   2.769   0.308   2.232
    2MOL1    Cl 2066   3.052   0.283   2.169
    2MOL1     H 2067   2.953   0.322   2.380
    2MOL1    Cl 2068   1.721   3.586   4.800
    2MOL1     C 2069   1.823   3.559   4.658
    2MOL1    Cl 2070   1.955   3.447   4.697
    2MOL1    Cl 2071   1.726   3.496   4.523
    2MOL1     H 2072   1.867   3.654   4.627
    2MOL1    Cl 2073   0.727   2.885   0.530
    2MOL1     C 2074   0.803   2.888   0.690
    2MOL1    Cl 2075   0.960   2.970   0.682
    2MOL1    Cl 2076   0.697   2.967   0.808
    2MOL1     H 2077   0.820   2.785   0.722
    2MOL1    Cl 2078   2.936   0.279   3.203
    2MOL1     C 2079   3.000   0.210   3.353
    2MOL1    Cl 2080   2.909   0.065   3.399
    2MOL1    Cl 2081   3.173   0.172   3.336
    2MOL1     H 2082   2.989   0.284   3.433
    2MOL1    Cl 2083   2.131   3.185   1.240
    2MOL1     C 2084   2.101   3.025   1.170
    2MOL1    Cl 2085   1.971   2.942   1.258
    2MOL1    Cl 2086   2.062   3.038   0.998
    2MOL1     H 2087   2.193   2.966   1.180
    2MOL1    Cl 2088   3.002   5.095   4.130
    2MOL1     C 2089   3.111   5.212   4.052
    2MOL1    Cl 2090   3.217   5.130   3.936
    2MOL1    Cl 2091   3.018   5.340   3.972
    2MOL1     H 2092   3.173   5.258   4.129
    2MOL1    Cl 2093   0.259   0.526   4.342
    2MOL1     C 2094   0.238   0.456   4.181
    2MOL1    Cl 2095   0.340   0.540   4.062
    2MOL1    Cl 2096   0.275   0.283   4.183
    2MOL1     H 2097   0.133   0.468   4.151
    2MOL1    Cl 2098   2.539   2.759   3.870
    2MOL1     C 2099   2.493   2.599   3.933
    2MOL1    Cl 2100   2.594   2.557   4.072
    2MOL1    Cl 2101   2.322   2.597   3.977
    2MOL1     H 2102   2.510   2.525   3.854
    2MOL1    Cl 2103   0.812   1.361   0.131
    2MOL1     C 2104   0.694   1.486   0.172
    2MOL1    Cl 2105   0.552   1.413   0.250
    2MOL1    Cl 2106   0.767   1.608   0.277
    2MOL1     H 2107   0.661   1.534   0.080
    2MOL1    Cl 2108   4.744   3.144   1.902
    2MOL1     C 2109   4.659   2.995   1.948
    2MOL1    Cl 2110   4.532   2.957   1.830
    2MOL1    Cl 2111   4.773   2.860   1.963
    2MOL1     H 2112   4.612   3.012   2.045
    2MOL1    Cl 2113   3.234   3.178   0.702
    2MOL1     C 2114   3.126   3.259   0.587
    2MOL1    Cl 2115   3.060   3.143   0.470
    2MOL1    Cl 2116   2.994   3.342   0.673
    2MOL1     H 2117   3.183   3.334   0.532
    2MOL1    Cl 2118   2.463   4.774   1.668
    2MOL1     C 2119   2.532   4.902   1.567
    2MOL1    Cl 2120   2.700   4.935   1.614
    2MOL1    Cl 2121   2.522   4.858   1.396
    2MOL1     H 2122   2.474   4.993   1.583
    2MOL1    Cl 2123   2.755   3.996   4.738
    2MOL1     C 2124   2.648   4.026   4.877
    2MOL1    Cl 2125   2.696   4.174   4.961
    2MOL1    Cl 2126   2.480   4.036   4.824
    2MOL1     H 2127   2.658   3.942   4.946
    2MOL1    Cl 2128   4.056   3.933   2.921
    2MOL1     C 2129   3.958   4.016   2.799
    2MOL1    Cl 2130   3.785   3.989   2.830
    2MOL1    Cl 2131   3.994   4.189   2.797
    2MOL1     H 2132   3.982   3.974   2.701
    2MOL1    Cl 2133   2.503   1.498   2.460
    2MOL1     C 2134   2.329   1.521   2.482
    2MOL1    Cl 2135   2.285   1.691   2.457
    2MOL1    Cl 2136   2.238   1.416   2.372
    2MOL1     H 2137   2.304   1.494   2.585
    2MOL1    Cl 2138   4.820   2.464   0.772
    2MOL1     C 2139   4.900   2.378   0.640
    2MOL1    Cl 2140   4.782   2.285   0.545
    2MOL1    Cl 2141   4.988   2.491   0.536
    2MOL1     H 2142   4.972   2.308   0.683
    2MOL1    Cl 2143   4.265   0.673   3.338
    2MOL1     C 2144   4.230   0.599   3.181
    2MOL1    Cl 2145   4.232   0.721   3.052
    2MOL1    Cl 2146   4.346   0.469   3.146
    2MOL1     H 2147   4.130   0.555   3.185
    2MOL1    Cl 2148   4.900   2.184   0.150
    2MOL1     C 2149   4.825   2.343   0.163
    2MOL1    Cl 2150   4.683   2.337   0.268
    2MOL1    Cl 2151   4.942   2.463   0.223
    2MOL1     H 2152   4.792   2.374   0.063
    2MOL1    Cl 2153   0.616   3.674   5.272
    2MOL1     C 2154   0.733   3.547   5.235
    2MOL1    Cl 2155   0.707   3.405   5.339
    2MOL1    Cl 2156   0.724   3.501   5.064
    2MOL1     H 2157   0.834   3.585   5.255
    2MOL1    Cl 2158   3.251   1.356   1.027
    2MOL1     C 2159   3.387   1.246   1.059
    2MOL1    Cl 2160   3.334   1.110   1.158
    2MOL1    Cl 2161   3.458   1.189   0.907
    2MOL1     H 2162   3.463   1.302   1.114
    2MOL1    Cl 2163   2.689   4.657   4.661
    2MOL1     C 2164   2.749   4.529   4.767
    2MOL1    Cl 2165   2.638   4.390   4.767
    2MOL1    Cl 2166   2.912   4.478   4.718
    2MOL1     H 2167   2.755   4.568   4.869
    2MOL1    Cl 2168   1.631   5.197   0.733
    2MOL1     C 2169   1.506   5.244   0.618
    2MOL1    Cl 2170   1.574   5.265   0.456
    2MOL1    Cl 2171   1.376   5.124   0.615
    2MOL1     H 2172   1.464   5.340   0.650
    2MOL1    Cl 2173   1.483   3.156   4.477
    2MOL1     C 2174   1.412   3.317   4.500
    2MOL1    Cl 2175   1.515   3.441   4.426
    2MOL1    Cl 2176   1.249   3.323   4.432
    2MOL1     H 2177   1.406   3.337   4.607
    2MOL1    Cl 2178   1.026   2.286   2.322
    2MOL1     C 2179   1.185   2.344   2.375
    2MOL1    Cl 2180   1.309   2.308   2.254
    2MOL1    Cl 2181   1.179   2.518   2.409
    2MOL1     H 2182   1.211   2.292   2.468
    2MOL1    Cl 2183   1.222   1.443   0.587
    2MOL1     C 2184   1.398   1.435   0.604
    2MOL1    Cl 2185   1.449   1.269   0.638
    2MOL1    Cl 2186   1.478   1.496   0.458
    2MOL1     H 2187   1.427   1.498   0.688
    2MOL1    Cl 2188   2.737   4.122   0.331
    2MOL1     C 2189   2.812   3.962   0.322
    2MOL1    Cl 2190   2.952   3.965   0.212
    2MOL1    Cl 2191   2.861   3.906   0.483
    2MOL1     H 2192   2.739   3.892   0.282
    2MOL1    Cl 2193   5.071   1.852   0.945
    2MOL1     C 2194   5.165   1.844   0.796
    2MOL1    Cl 2195   5.174   2.004   0.719
    2MOL1    Cl 2196   5.328   1.781   0.827
    2MOL1     H 2197   5.115   1.776   0.727
    2MOL1    Cl 2198   3.084   4.699   4.213
    2MOL1     C 2199   3.229   4.746   4.122
    2MOL1    Cl 2200   3.359   4.630   4.150
    2MOL1    Cl 2201   3.192   4.760   3.950
    2MOL1     H 2202   3.261   4.844   4.159
    2MOL1    Cl 2203   0.392   3.115   3.359
    2MOL1     C 2204   0.401   3.264   3.454
    2MOL1    Cl 2205   0.254   3.361   3.432
    2MOL1    Cl 2206   0.426   3.228   3.626
    2MOL1     H 2207   0.486   3.323   3.419
    2MOL1    Cl 2208   2.764   0.427   2.045
    2MOL1     C 2209   2.895   0.457   1.929
    2MOL1    Cl 2210   2.914   0.319   1.819
    2MOL1    Cl 2211   2.864   0.606   1.838
    2MOL1     H 2212   2.988   0.470   1.985
    2MOL1    Cl 2213   4.711   5.050   4.231
    2MOL1     C 2214   4.843   5.018   4.345
    2MOL1    Cl 2215   4.780   4.957   4.499
    2MOL1    Cl 2216   4.959   4.904   4.276
    2MOL1     H 2217   4.895   5.112   4.364
    2MOL1    Cl 2218   4.085   1.064   1.857
    2MOL1     C 2219   4.061   0.996   2.019
    2MOL1    Cl 2220   3.896   0.933   2.036
    2MOL1    Cl 2221   4.180   0.870   2.052
    2MOL1     H 2222   4.074   1.077   2.092
    2MOL1    Cl 2223   2.476   4.834   2.373
    2MOL1     C 2224   2.319   4.761   2.406
    2MOL1    Cl 2225   2.255   4.817   2.561
    2MOL1    Cl 2226   2.204   4.797   2.275
    2MOL1     H 2227   2.332   4.652   2.411
    2MOL1    Cl 2228   2.426   2.690   0.903
    2MOL1     C 2229   2.267   2.619   0.873
    2MOL1    Cl 2230   2.234   2.489   0.989
    2MOL1    Cl 2231   2.141   2.743   0.881
    2MOL1     H 2232   2.267   2.576   0.773
    2MOL1    Cl 2233   2.303   4.644   0.590
    2MOL1     C 2234   2.197   4.685   0.454
    2MOL1    Cl 2235   2.027   4.659   0.497
    2MOL1    Cl 2236   2.224   4.853   0.404
    2MOL1     H 2237   2.222   4.620   0.370
    2MOL1    Cl 2238   3.526   1.045   2.409
    2MOL1     C 2239   3.665   1.151   2.382
    2MOL1    Cl 2240   3.755   1.101   2.238
    2MOL1    Cl 2241   3.614   1.320   2.368
    2MOL1     H 2242   3.732   1.143   2.468
    2MOL1    Cl 2243   3.661   3.969   0.997
    2MOL1     C 2244   3.716   4.032   0.840
    2MOL1    Cl 2245   3.727   3.901   0.721
    2MOL1    Cl 2246   3.607   4.159   0.783
    2MOL1     H 2247   3.815   4.075   0.853
    2MOL1    Cl 2248   1.824   4.102   2.218
    2MOL1     C 2249   1.728   4.247   2.185
    2MOL1    Cl 2250   1.734   4.288   2.012
    2MOL1    Cl 2251   1.560   4.222   2.237
    2MOL1     H 2252   1.769   4.330   2.241
    2MOL1    Cl 2253   4.791   2.808   2.941
    2MOL1     C 2254   4.955   2.829   3.006
    2MOL1    Cl 2255   4.962   2.973   3.109
    2MOL1    Cl 2256   5.005   2.685   3.096
    2MOL1     H 2257   5.024   2.843   2.922
    2MOL1    Cl 2258   1.788   1.238   2.161
    2MOL1     C 2259   1.622   1.257   2.217
    2MOL1    Cl 2260   1.570   1.116   2.310
    2MOL1    Cl 2261   1.606   1.405   2.314
    2MOL1     H 2262   1.557   1.267   2.130
    2MOL1    Cl 2263   0.427   0.384   1.302
    2MOL1     C 2264   0.284   0.467   1.365
    2MOL1    Cl 2265   0.245   0.608   1.265
    2MOL1    Cl 2266   0.146   0.356   1.373
    2MOL1     H 2267   0.306   0.501   1.466
    2MOL1    Cl 2268   1.204   4.402   0.323
    2MOL1     C 2269   1.183   4.264   0.214
    2MOL1    Cl 2270   1.337   4.180   0.189
    2MOL1    Cl 2271   1.061   4.152   0.279
    2MOL1     H 2272   1.148   4.301   0.118
    2MOL1    Cl 2273   3.021   2.768   0.715
    2MOL1     C 2274   3.106   2.765   0.871
    2MOL1    Cl 2275   2.994   2.801   1.004
    2MOL1    Cl 2276   3.184   2.608   0.896
    2MOL1     H 2277   3.184   2.842   0.869
    2MOL1    Cl 2278   0.371   2.016   2.534
    2MOL1     C 2279   0.495   2.076   2.422
    2MOL1    Cl 2280   0.649   1.992   2.449
    2MOL1    Cl 2281   0.442   2.056   2.254
    2MOL1     H 2282   0.511   2.182   2.442
    2MOL1    Cl 2283   2.486   0.866   5.060
    2MOL1     C 2284   2.619   0.780   4.982
    2MOL1    Cl 2285   2.762   0.884   4.969
    2MOL1    Cl 2286   2.657   0.631   5.071
    2MOL1     H 2287   2.588   0.752   4.881
    2MOL1    Cl 2288   0.403   4.222   4.090
    2MOL1     C 2289   0.432   4.333   4.225
    2MOL1    Cl 2290   0.320   4.471   4.218
    2MOL1    Cl 2291   0.416   4.248   4.380
    2MOL1     H 2292   0.534   4.371   4.217
    2MOL1    Cl 2293   5.095   3.867   1.565
    2MOL1     C 2294   5.143   4.035   1.534
    2MOL1    Cl 2295   5.297   4.072   1.613
    2MOL1    Cl 2296   5.154   4.066   1.359
    2MOL1     H 2297   5.066   4.101   1.575
    2MOL1    Cl 2298   2.476   2.338   0.481
    2MOL1     C 2299   2.638   2.349   0.411
    2MOL1    Cl 2300   2.704   2.188   0.381
    2MOL1    Cl 2301   2.635   2.444   0.261
    2MOL1     H 2302   2.703   2.400   0.482
    2MOL1    Cl 2303   5.036   4.972   3.630
    2MOL1     C 2304   5.191   5.047   3.588
    2MOL1    Cl 2305   5.213   5.198   3.678
    2MOL1    Cl 2306   5.325   4.935   3.619
    2MOL1     H 2307   5.190   5.070   3.481
    2MOL1    Cl 2308   3.394   2.482   2.024
    2MOL1     C 2309   3.320   2.482   2.185
    2MOL1    Cl 2310   3.188   2.599   2.193
    2MOL1    Cl 2311   3.263   2.319   2.226
    2MOL1     H 2312   3.397   2.511   2.258
    2MOL1    Cl 2313   4.031   1.454   5.156
    2MOL1     C 2314   4.094   1.292   5.189
    2MOL1    Cl 2315   4.264   1.300   5.239
    2MOL1    Cl 2316   3.997   1.212   5.314
    2MOL1     H 2317   4.088   1.233   5.098
    2MOL1    Cl 2318   1.216   2.081   4.668
    2MOL1     C 2319   1.169   2.046   4.501
    2MOL1    Cl 2320   1.262   1.909   4.438
    2MOL1    Cl 2321   0.995   2.014   4.491
    2MOL1     H 2322   1.192   2.134   4.440
    2MOL1    Cl 2323   0.491   0.254   2.255
    2MOL1     C 2324   0.378   0.372   2.186
    2MOL1    Cl 2325   0.418   0.404   2.017
    2MOL1    Cl 2326   0.211   0.315   2.201
    2MOL1     H 2327   0.388   0.465   2.242
    2MOL1    Cl 2328   3.704   0.531   1.159
    2MOL1     C 2329   3.824   0.431   1.077
    2MOL1    Cl 2330   3.807   0.443   0.901
    2MOL1    Cl 2331   3.988   0.478   1.126
    2MOL1     H 2332   3.808   0.327   1.106
    2MOL1    Cl 2333   3.075   2.300   3.765
    2MOL1     C 2334   3.209   2.293   3.649
    2MOL1    Cl 2335   3.303   2.145   3.672
    2MOL1    Cl 2336   3.148   2.304   3.483
    2MOL1     H 2337   3.274   2.379   3.667
    2MOL1    Cl 2338   3.582   2.895   3.454
    2MOL1     C 2339   3.729   2.846   3.539
    2MOL1    Cl 2340   3.861   2.960   3.506
    2MOL1    Cl 2341   3.699   2.834   3.713
    2MOL1     H 2342   3.758   2.747   3.503
    2MOL1    Cl 2343   3.084   4.362   1.771
    2MOL1     C 2344   3.209   4.488   1.776
    2MOL1    Cl 2345   3.362   4.427   1.709
    2MOL1    Cl 2346   3.155   4.632   1.688
    2MOL1     H 2347   3.225   4.515   1.880
    2MOL1    Cl 2348   0.557   1.276   4.050
    2MOL1     C 2349   0.523   1.340   4.211
    2MOL1    Cl 2350   0.510   1.208   4.329
    2MOL1    Cl 2351   0.648   1.455   4.260
    2MOL1     H 2352   0.427   1.393   4.208
    2MOL1    Cl 2353   0.434   1.772   1.523
    2MOL1     C 2354   0.299   1.866   1.589
    2MOL1    Cl 2355   0.219   1.777   1.720
    2MOL1    Cl 2356   0.355   2.024   1.646
    2MOL1     H 2357   0.226   1.882   1.509
    2MOL1    Cl 2358   0.192   2.953   1.520
    2MOL1     C 2359   0.100   2.945   1.369
    2MOL1    Cl 2360   0.085   3.106   1.296
    2MOL1    Cl 2361   0.177   2.832   1.255
    2MOL1     H 2362  -0.000   2.907   1.391
    2MOL1    Cl 2363   0.784   3.867   0.090
    2MOL1     C 2364   0.904   3.737   0.073
    2MOL1    Cl 2365   0.985   3.706   0.227
    2MOL1    Cl 2366   0.826   3.590   0.012
    2MOL1     H 2367   0.979   3.769  -0.000
    2MOL1    Cl 2368   3.774   1.433   1.500
    2MOL1     C 2369   3.678   1.285   1.483
    2MOL1    Cl 2370   3.601   1.279   1.324
    2MOL1    Cl 2371   3.780   1.142   1.509
    2MOL1     H 2372   3.600   1.285   1.560
    2MOL1    Cl 2373   3.528   1.593   4.672
    2MOL1     C 2374   3.470   1.735   4.761
    2MOL1    Cl 2375   3.554   1.750   4.917
    2MOL1    Cl 2376   3.491   1.882   4.665
    2MOL1     H 2377   3.363   1.721   4.781
    2MOL1    Cl 2378   0.722   3.870   4.191
    2MOL1     C 2379   0.687   4.012   4.291
    2MOL1    Cl 2380   0.593   3.965   4.434
    2MOL1    Cl 2381   0.837   4.093   4.340
    2MOL1     H 2382   0.628   4.082   4.232
    2MOL1    Cl 2383   3.460   3.294   5.229
    2MOL1     C 2384   3.609   3.218   5.169
    2MOL1    Cl 2385   3.737   3.339   5.148
    2MOL1    Cl 2386   3.662   3.089   5.278
    2MOL1     H 2387   3.588   3.174   5.071
    2MOL1    Cl 2388   1.127   2.779   1.522
    2MOL1     C 2389   0.980   2.690   1.565
    2MOL1    Cl 2390   0.895   2.637   1.419
    2MOL1    Cl 2391   1.018   2.552   1.668
    2MOL1     H 2392   0.914   2.757   1.620
    2MOL1    Cl 2393   4.459   5.197   5.287
    2MOL1     C 2394   4.485   5.068   5.168
    2MOL1    Cl 2395   4.368   5.082   5.035
    2MOL1    Cl 2396   4.651   5.072   5.106
    2MOL1     H 2397   4.469   4.972   5.218
    2MOL1    Cl 2398   4.511   1.173   0.218
    2MOL1     C 2399   4.366   1.144   0.314
    2MOL1    Cl 2400   4.313   0.976   0.298
    2MOL1    Cl 2401   4.394   1.184   0.484
    2MOL1     H 2402   4.286   1.209   0.276
    2MOL1    Cl 2403   3.176   0.990   3.511
    2MOL1     C 2404   3.088   0.836   3.501
    2MOL1    Cl 2405   3.121   0.756   3.346
    2MOL1    Cl 2406   3.132   0.731   3.636
    2MOL1     H 2407   2.981   0.857   3.507
    2MOL1    Cl 2408   4.230   1.418   4.884
    2MOL1     C 2409   4.394   1.373   4.931
    2MOL1    Cl 2410   4.430   1.431   5.095
    2MOL1    Cl 2411   4.417   1.198   4.921
    2MOL1     H 2412   4.464   1.421   4.862
    2MOL1    Cl 2413   4.683   2.230   3.943
    2MOL1     C 2414   4.777   2.152   3.815
    2MOL1    Cl 2415   4.700   2.000   3.766
    2MOL1    Cl 2416   4.795   2.260   3.676
    2MOL1     H 2417   4.876   2.129   3.854
    2MOL1    Cl 2418   3.244   0.655   3.845
    2MOL1     C 2419   3.371   0.775   3.816
    2MOL1    Cl 2420   3.505   0.703   3.725
    2MOL1    Cl 2421   3.306   0.915   3.729
    2MOL1     H 2422   3.409   0.809   3.912
    2MOL1    Cl 2423   3.846   3.586   1.634
    2MOL1     C 2424   3.827   3.761   1.659
    2MOL1    Cl 2425   3.972   3.847   1.606
    2MOL1    Cl 2426   3.684   3.821   1.574
    2MOL1     H 2427   3.813   3.779   1.766
    2MOL1    Cl 2428   0.480   0.495   1.621
    2MOL1     C 2429   0.466   0.326   1.569
    2MOL1    Cl 2430   0.522   0.217   1.697
    2MOL1    Cl 2431   0.299   0.289   1.523
    2MOL1     H 2432   0.530   0.312   1.482
    2MOL1    Cl 2433   2.300   4.079   3.631
    2MOL1     C 2434   2.168   3.980   3.694
    2MOL1    Cl 2435   2.047   3.948   3.569
    2MOL1    Cl 2436   2.231   3.827   3.760
    2MOL1     H 2437   2.120   4.034   3.776
    2MOL1    Cl 2438   4.360   3.861   1.308
    2MOL1     C 2439   4.502   3.958   1.348
    2MOL1    Cl 2440   4.526   3.965   1.523
    2MOL1    Cl 2441   4.646   3.893   1.268
    2MOL1     H 2442   4.486   4.060   1.311
    2MOL1    Cl 2443   3.302   4.256   4.633
    2MOL1     C 2444   3.155   4.355   4.629
    2MOL1    Cl 2445   3.189   4.515   4.561
    2MOL1    Cl 2446   3.028   4.274   4.535
    2MOL1     H 2447   3.119   4.367   4.731
    2MOL1    Cl 2448   2.116   1.802   4.641
    2MOL1     C 2449   2.053   1.872   4.790
    2MOL1    Cl 2450   2.025   1.746   4.912
    2MOL1    Cl 2451   2.165   1.995   4.853
    2MOL1     H 2452   1.958   1.921   4.768
    2MOL1    Cl 2453   1.798   3.345   1.982
    2MOL1     C 2454   1.637   3.416   1.965
    2MOL1    Cl 2455   1.546   3.334   1.837
    2MOL1    Cl 2456   1.549   3.408   2.118
    2MOL1     H 2457   1.648   3.521   1.937
    2MOL1    Cl 2458   1.882   0.102   1.334
    2MOL1     C 2459   1.862   0.150   1.503
    2MOL1    Cl 2460   1.706   0.230   1.528
    2MOL1    Cl 2461   1.878   0.009   1.610
    2MOL1     H 2462   1.941   0.221   1.528
    2MOL1    Cl 2463   4.095   4.454   3.759
    2MOL1     C 2464   4.244   4.425   3.850
    2MOL1    Cl 2465   4.327   4.280   3.790
    2MOL1    Cl 2466   4.351   4.566   3.842
    2MOL1     H 2467   4.217   4.409   3.955
    2MOL1    Cl 2468   0.691   1.115   3.916
    2MOL1     C 2469   0.669   1.003   3.780
    2MOL1    Cl 2470   0.720   1.080   3.629
    2MOL1    Cl 2471   0.759   0.853   3.808
    2MOL1     H 2472   0.563   0.979   3.773
    2MOL1    Cl 2473   1.720   4.593   0.603
    2MOL1     C 2474   1.693   4.450   0.703
    2MOL1    Cl 2475   1.827   4.428   0.818
    2MOL1    Cl 2476   1.539   4.463   0.790
    2MOL1     H 2477   1.689   4.363   0.638
    2MOL1    Cl 2478   3.435   0.390   0.133
    2MOL1     C 2479   3.267   0.443   0.114
    2MOL1    Cl 2480   3.256   0.578  -0.000
    2MOL1    Cl 2481   3.165   0.308   0.060
    2MOL1     H 2482   3.230   0.477   0.211
    2MOL1    Cl 2483   3.887   0.774   3.244
    2MOL1     C 2484   3.826   0.938   3.267
    2MOL1    Cl 2485   3.656   0.949   3.217
    2MOL1    Cl 2486   3.845   0.989   3.436
    2MOL1     H 2487   3.885   1.006   3.204
    2MOL1    Cl 2488   0.251   4.700   4.120
    2MOL1     C 2489   0.161   4.621   3.990
    2MOL1    Cl 2490   0.150   4.727   3.848
    2MOL1    Cl 2491   0.237   4.467   3.946
    2MOL1     H 2492   0.060   4.600   4.025
    2MOL1    Cl 2493   4.427   1.870   5.265
    2MOL1     C 2494   4.361   1.728   5.184
    2MOL1    Cl 2495   4.461   1.683   5.044
    2MOL1    Cl 2496   4.347   1.592   5.296
    2MOL1     H 2497   4.260   1.752   5.148
    2MOL1    Cl 2498   0.411   0.570   2.574
    2MOL1     C 2499   0.494   0.627   2.720
    2MOL1    Cl 2500   0.387   0.730   2.816
    2MOL1    Cl 2501   0.551   0.489   2.816
    2MOL1     H 2502   0.581   0.686   2.689
    2MOL1    Cl 2503   0.307   2.219   1.960
    2MOL1     C 2504   0.476   2.236   2.008
    2MOL1    Cl 2505   0.488   2.278   2.180
    2MOL1    Cl 2506   0.567   2.088   1.974
    2MOL1     H 2507   0.521   2.317   1.950
    2MOL1    Cl 2508   3.648   2.207   1.798
    2MOL1     C 2509   3.701   2.206   1.629
    2MOL1    Cl 2510   3.674   2.364   1.554
    2MOL1    Cl 2511   3.872   2.160   1.618
    2MOL1     H 2512   3.642   2.131   1.575
    2MOL1    Cl 2513   2.494   0.953   4.401
    2MOL1     C 2514   2.650   0.893   4.342
    2MOL1    Cl 2515   2.734   1.018   4.248
    2MOL1    Cl 2516   2.751   0.839   4.477
    2MOL1     H 2517   2.631   0.808   4.276
    2MOL1    Cl 2518   4.536   2.648   4.880
    2MOL1     C 2519   4.664   2.537   4.930
    2MOL1    Cl 2520   4.770   2.614   5.049
    2MOL1    Cl 2521   4.594   2.388   4.996
    2MOL1     H 2522   4.723   2.511   4.842
    2MOL1    Cl 2523   3.945   0.892   2.784
    2MOL1     C 2524   3.821   0.791   2.859
    2MOL1    Cl 2525   3.700   0.740   2.739
    2MOL1    Cl 2526   3.894   0.650   2.937
    2MOL1     H 2527   3.770   0.850   2.936
    2MOL1    Cl 2528   3.395   2.182   3.364
    2MOL1     C 2529   3.279   2.134   3.240
    2MOL1    Cl 2530   3.117   2.119   3.309
    2MOL1    Cl 2531   3.279   2.251   3.106
    2MOL1     H 2532   3.309   2.037   3.200
    2MOL1    Cl 2533   3.784   1.896   1.519
    2MOL1     C 2534   3.795   1.729   1.462
    2MOL1    Cl 2535   3.660   1.690   1.354
    2MOL1    Cl 2536   3.950   1.701   1.381
    2MOL1     H 2537   3.789   1.663   1.549
    2MOL1    Cl 2538   0.653   3.381   1.607
    2MOL1     C 2539   0.482   3.428   1.607
    2MOL1    Cl 2540   0.385   3.308   1.694
    2MOL1    Cl 2541   0.461   3.588   1.679
    2MOL1     H 2542   0.447   3.431   1.504
    2MOL1    Cl 2543   2.607   3.899   4.584
    2MOL1     C 2544   2.478   3.793   4.642
    2MOL1    Cl 2545   2.418   3.689   4.511
    2MOL1    Cl 2546   2.535   3.695   4.778
    2MOL1     H 2547   2.395   3.855   4.677
    2MOL1    Cl 2548   2.071   1.694   2.028
    2MOL1     C 2549   1.931   1.605   1.966
    2MOL1    Cl 2550   1.820   1.714   1.882
    2MOL1    Cl 2551   1.984   1.474   1.859
    2MOL1     H 2552   1.879   1.560   2.051
    2MOL1    Cl 2553   4.431   2.680   0.293
    2MOL1     C 2554   4.547   2.546   0.284
    2MOL1    Cl 2555   4.490   2.421   0.172
    2MOL1    Cl 2556   4.707   2.606   0.235
    2MOL1     H 2557   4.556   2.502   0.383
    2MOL1    Cl 2558   3.237   4.526   3.466
    2MOL1     C 2559   3.081   4.552   3.545
    2MOL1    Cl 2560   2.964   4.428   3.495
    2MOL1    Cl 2561   3.100   4.550   3.721
    2MOL1     H 2562   3.043   4.650   3.515
    2MOL1    Cl 2563   5.105   3.745   5.311
    2MOL1     C 2564   5.062   3.857   5.181
    2MOL1    Cl 2565   4.999   3.768   5.041
    2MOL1    Cl 2566   4.943   3.976   5.238
    2MOL1     H 2567   5.152   3.910   5.150
    2MOL1    Cl 2568   1.152   2.840   3.293
    2MOL1     C 2569   1.210   2.677   3.331
    2MOL1    Cl 2570   1.204   2.648   3.506
    2MOL1    Cl 2571   1.114   2.556   3.244
    2MOL1     H 2572   1.313   2.669   3.298
    2MOL1    Cl 2573   2.733   2.849   1.167
    2MOL1     C 2574   2.630   2.818   1.307
    2MOL1    Cl 2575   2.562   2.969   1.369
    2MOL1    Cl 2576   2.500   2.704   1.265
    2MOL1     H 2577   2.691   2.773   1.386
    2MOL1    Cl 2578   2.563   4.955   3.415
    2MOL1     C 2579   2.475   4.819   3.343
    2MOL1    Cl 2580   2.397   4.869   3.192
    2MOL1    Cl 2581   2.583   4.682   3.315
    2MOL1     H 2582   2.397   4.788   3.413
    2MOL1    Cl 2583   5.110   2.714   4.063
    2MOL1     C 2584   5.012   2.726   4.210
    2MOL1    Cl 2585   5.093   2.828   4.330
    2MOL1    Cl 2586   4.851   2.789   4.173
    2MOL1     H 2587   5.001   2.626   4.252
    2MOL1    Cl 2588   2.735   2.208   3.569
    2MOL1     C 2589   2.576   2.282   3.540
    2MOL1    Cl 2590   2.577   2.376   3.390
    2MOL1    Cl 2591   2.450   2.158   3.535
    2MOL1     H 2592   2.554   2.350   3.623
    2MOL1    Cl 2593   1.951   0.760   3.975
    2MOL1     C 2594   1.967   0.931   4.017
    2MOL1    Cl 2595   1.861   0.972   4.153
    2MOL1    Cl 2596   2.135   0.971   4.054
    2MOL1     H 2597   1.936   0.991   3.930
    2MOL1    Cl 2598   0.993   0.515   0.947
    2MOL1     C 2599   0.952   0.376   0.845
    2MOL1    Cl 2600   0.806   0.296   0.904
    2MOL1    Cl 2601   0.932   0.427   0.676
    2MOL1     H 2602   1.035   0.305   0.849
    2MOL1    Cl 2603   4.183   1.358   3.817
    2MOL1     C 2604   4.162   1.436   3.659
    2MOL1    Cl 2605   4.000   1.507   3.646
    2MOL1    Cl 2606   4.287   1.560   3.634
    2MOL1     H 2607   4.172   1.360   3.581
    2MOL1    Cl 2608   3.249   4.837   3.265
    2MOL1     C 2609   3.235   4.960   3.391
    2MOL1    Cl 2610   3.152   5.104   3.329
    2MOL1    Cl 2611   3.150   4.895   3.532
    2MOL1     H 2612   3.336   4.990   3.422
    2MOL1    Cl 2613   2.034   2.500   3.064
    2MOL1     C 2614   2.203   2.546   3.086
    2MOL1    Cl 2615   2.216   2.690   3.188
    2MOL1    Cl 2616   2.296   2.412   3.155
    2MOL1     H 2617   2.246   2.570   2.988
    2MOL1    Cl 2618   1.609   0.535   5.340
    2MOL1     C 2619   1.523   0.653   5.240
    2MOL1    Cl 2620   1.431   0.571   5.112
    2MOL1    Cl 2621   1.415   0.752   5.340
    2MOL1     H 2622   1.596   0.719   5.193
    2MOL1    Cl 2623   2.201   4.606   4.298
    2MOL1     C 2624   2.191   4.430   4.315
    2MOL1    Cl 2625   2.325   4.369   4.414
    2MOL1    Cl 2626   2.036   4.382   4.384
    2MOL1     H 2627   2.199   4.385   4.215
    2MOL1    Cl 2628   0.880   3.732   5.069
    2MOL1     C 2629   0.783   3.876   5.035
    2MOL1    Cl 2630   0.803   3.926   4.866
    2MOL1    Cl 2631   0.612   3.846   5.071
    2MOL1     H 2632   0.818   3.958   5.099
    2MOL1    Cl 2633   5.109   3.238   1.861
    2MOL1     C 2634   5.110   3.061   1.868
    2MOL1    Cl 2635   5.101   3.005   2.036
    2MOL1    Cl 2636   4.977   2.993   1.772
    2MOL1     H 2637   5.205   3.026   1.825
    2MOL1    Cl 2638   3.253   1.374   3.515
    2MOL1     C 2639   3.340   1.232   3.574
    2MOL1    Cl 2640   3.425   1.150   3.441
    2MOL1    Cl 2641   3.454   1.277   3.702
    2MOL1     H 2642   3.268   1.162   3.616
    2MOL1    Cl 2643   0.000   1.347   1.714
    2MOL1     C 2644   0.076   1.345   1.874
    2MOL1    Cl 2645   0.247   1.302   1.862
    2MOL1    Cl 2646   0.056   1.502   1.954
    2MOL1     H 2647   0.025   1.269   1.935
    2MOL1    Cl 2648   1.537   0.233   1.253
    2MOL1     C 2649   1.520   0.059   1.279
    2MOL1    Cl 2650   1.647   0.000   1.388
    2MOL1    Cl 2651   1.360   0.020   1.344
    2MOL1     H 2652   1.531   0.008   1.183
    2MOL1    Cl 2653   2.706   3.070   3.796
    2MOL1     C 2654   2.756   2.943   3.908
    2MOL1    Cl 2655   2.799   2.795   3.820
    2MOL1    Cl 2656   2.892   2.998   4.007
    2MOL1     H 2657   2.672   2.921   3.974
    2MOL1    Cl 2658   5.127   3.452   1.109
    2MOL1     C 2659   5.108   3.336   1.241
    2MOL1    Cl 2660   5.266   3.282   1.300
    2MOL1    Cl 2661   5.013   3.407   1.373
    2MOL1     H 2662   5.054   3.249   1.203
    2MOL1    Cl 2663   1.751   0.346   0.107
    2MOL1     C 2664   1.898   0.280   0.180
    2MOL1    Cl 2665   1.989   0.408   0.262
    2MOL1    Cl 2666   1.859   0.149   0.292
    2MOL1     H 2667   1.961   0.240   0.100
    2MOL1    Cl 2668   0.899   1.889   2.956
    2MOL1     C 2669   1.073   1.881   2.984
    2MOL1    Cl 2670   1.125   2.012   3.091
    2MOL1    Cl 2671   1.118   1.724   3.053
    2MOL1     H 2672   1.124   1.892   2.888
    2MOL1    Cl 2673   2.829   3.750   2.453
    2MOL1     C 2674   2.708   3.878   2.469
    2MOL1    Cl 2675   2.547   3.816   2.427
    2MOL1    Cl 2676   2.709   3.944   2.633
    2MOL1     H 2677   2.733   3.958   2.400
    2MOL1    Cl 2678   1.588   0.724   2.797
    2MOL1     C 2679   1.514   0.578   2.866
    2MOL1    Cl 2680   1.370   0.532   2.773
    2MOL1    Cl 2681   1.631   0.445   2.870
    2MOL1     H 2682   1.483   0.600   2.968
    2MOL1    Cl 2683   5.207   4.922   2.795
    2MOL1     C 2684   5.063   5.019   2.764
    2MOL1    Cl 2685   5.074   5.099   2.606
    2MOL1    Cl 2686   4.916   4.919   2.773
    2MOL1     H 2687   5.056   5.097   2.841
    2MOL1    Cl 2688   2.766   4.008   3.195
    2MOL1     C 2689   2.643   3.886   3.234
    2MOL1    Cl 2690   2.660   3.745   3.128
    2MOL1    Cl 2691   2.653   3.839   3.404
    2MOL1     H 2692   2.544   3.930   3.216
    2MOL1    Cl 2693   5.195   5.080   0.262
    2MOL1     C 2694   5.018   5.077   0.246
    2MOL1    Cl 2695   4.962   4.916   0.200
    2MOL1    Cl 2696   4.942   5.129   0.398
    2MOL1     H 2697   4.990   5.148   0.168
    2MOL1    Cl 2698   1.705   4.077   5.185
    2MOL1     C 2699   1.529   4.054   5.191
    2MOL1    Cl 2700   1.445   4.204   5.146
    2MOL1    Cl 2701   1.480   3.921   5.084
    2MOL1     H 2702   1.501   4.028   5.293
    2MOL1    Cl 2703   0.496   1.813   3.393
    2MOL1     C 2704   0.466   1.943   3.509
    2MOL1    Cl 2705   0.571   1.927   3.650
    2MOL1    Cl 2706   0.488   2.101   3.432
    2MOL1     H 2707   0.362   1.935   3.542
    2MOL1    Cl 2708   4.477   0.578   4.866
    2MOL1     C 2709   4.612   0.463   4.866
    2MOL1    Cl 2710   4.738   0.515   4.753
    2MOL1    Cl 2711   4.679   0.445   5.030
    2MOL1     H 2712   4.575   0.366   4.834
    2MOL1    Cl 2713   4.350   2.390   2.353
    2MOL1     C 2714   4.321   2.476   2.505
    2MOL1    Cl 2715   4.163   2.556   2.502
    2MOL1    Cl 2716   4.332   2.365   2.643
    2MOL1     H 2717   4.398   2.553   2.516
    2MOL1    Cl 2718   3.595   4.530   1.648
    2MOL1     C 2719   3.510   4.668   1.720
    2MOL1    Cl 2720   3.623   4.771   1.809
    2MOL1    Cl 2721   3.427   4.762   1.594
    2MOL1     H 2722   3.435   4.630   1.790
    2MOL1    Cl 2723   5.304   5.332   0.808
    2MOL1     C 2724   5.212   5.191   0.755
    2MOL1    Cl 2725   5.081   5.240   0.645
    2MOL1    Cl 2726   5.318   5.073   0.677
    2MOL1     H 2727   5.167   5.144   0.843
    2MOL1    Cl 2728   4.123   5.232   0.318
    2MOL1     C 2729   3.972   5.164   0.254
    2MOL1    Cl 2730   4.004   5.065   0.111
    2MOL1    Cl 2731   3.890   5.068   0.379
    2MOL1     H 2732   3.907   5.246   0.225
    2MOL1    Cl 2733   0.767   4.948   2.418
    2MOL1     C 2734   0.667   5.076   2.350
    2MOL1    Cl 2735   0.522   5.102   2.449
    2MOL1    Cl 2736   0.760   5.227   2.334
    2MOL1     H 2737   0.635   5.046   2.250
    2MOL1    Cl 2738   2.702   5.220   4.434
    2MOL1     C 2739   2.857   5.135   4.416
    2MOL1    Cl 2740   2.837   4.992   4.312
    2MOL1    Cl 2741   2.980   5.244   4.348
    2MOL1     H 2742   2.890   5.102   4.514
    2MOL1    Cl 2743   4.296   4.048   1.863
    2MOL1     C 2744   4.408   4.185   1.861
    2MOL1    Cl 2745   4.575   4.128   1.845
    2MOL1    Cl 2746   4.367   4.298   1.731
    2MOL1     H 2747   4.398   4.238   1.956
    2MOL1    Cl 2748   3.102   3.700   4.839
    2MOL1     C 2749   3.262   3.680   4.912
    2MOL1    Cl 2750   3.271   3.767   5.066
    2MOL1    Cl 2751   3.299   3.508   4.936
    2MOL1     H 2752   3.336   3.722   4.844
    2MOL1    Cl 2753   2.832   0.714   4.307
    2MOL1     C 2754   2.745   0.566   4.349
    2MOL1    Cl 2755   2.816   0.490   4.492
    2MOL1    Cl 2756   2.573   0.600   4.376
    2MOL1     H 2757   2.753   0.496   4.265
    2MOL1    Cl 2758   3.411   3.207   1.703
    2MOL1     C 2759   3.367   3.316   1.835
    2MOL1    Cl 2760   3.477   3.455   1.840
    2MOL1    Cl 2761   3.199   3.370   1.819
    2MOL1     H 2762   3.377   3.261   1.929
    2MOL1    Cl 2763   0.252   2.931   3.575
    2MOL1     C 2764   0.102   3.006   3.630
    2MOL1    Cl 2765   0.064   2.956   3.796
    2MOL1    Cl 2766   0.112   3.182   3.619
    2MOL1     H 2767   0.020   2.972   3.565
    2MOL1    Cl 2768   1.527   4.038   3.064
    2MOL1     C 2769   1.476   3.869   3.083
    2MOL1    Cl 2770   1.611   3.759   3.052
    2MOL1    Cl 2771   1.410   3.843   3.245
    2MOL1     H 2772   1.397   3.849   3.010
    2MOL1    Cl 2773   2.928   4.228   1.917
    2MOL1     C 2774   2.831   4.226   1.769
    2MOL1    Cl 2775   2.679   4.138   1.795
    2MOL1    Cl 2776   2.798   4.391   1.713
    2MOL1     H 2777   2.888   4.174   1.691
    2MOL1    Cl 2778   5.113   1.826   2.888
    2MOL1     C 2779   5.146   1.663   2.948
    2MOL1    Cl 2780   5.267   1.666   3.076
    2MOL1    Cl 2781   4.997   1.586   3.005
    2MOL1     H 2782   5.185   1.603   2.865
    2MOL1    Cl 2783   4.281   3.497   2.890
    2MOL1     C 2784   4.423   3.451   2.986
    2MOL1    Cl 2785   4.569   3.454   2.886
    2MOL1    Cl 2786   4.441   3.559   3.125
    2MOL1     H 2787   4.408   3.349   3.023
    2MOL1    Cl 2788   2.680   4.777   2.659
    2MOL1     C 2789   2.764   4.932   2.669
    2MOL1    Cl 2790   2.682   5.040   2.783
    2MOL1    Cl 2791   2.933   4.909   2.717
    2MOL1     H 2792   2.763   4.979   2.570
    2MOL1    Cl 2793   3.087   3.219   2.568
    2MOL1     C 2794   3.026   3.242   2.403
    2MOL1    Cl 2795   2.956   3.091   2.342
    2MOL1    Cl 2796   2.907   3.373   2.399
    2MOL1     H 2797   3.110   3.270   2.339
    2MOL1    Cl 2798   2.066   3.400   4.151
    2MOL1     C 2799   1.915   3.493   4.158
    2MOL1    Cl 2800   1.926   3.637   4.056
    2MOL1    Cl 2801   1.778   3.392   4.108
    2MOL1     H 2802   1.899   3.525   4.261
    2MOL1    Cl 2803   4.716   1.951   0.748
    2MOL1     C 2804   4.809   1.859   0.628
    2MOL1    Cl 2805   4.971   1.926   0.611
    2MOL1    Cl 2806   4.817   1.688   0.675
    2MOL1     H 2807   4.758   1.866   0.532
    2MOL1    Cl 2808   2.099   2.883   2.141
    2MOL1     C 2809   2.085   3.059   2.133
    2MOL1    Cl 2810   2.207   3.126   2.023
    2MOL1    Cl 2811   1.922   3.107   2.081
    2MOL1     H 2812   2.102   3.100   2.233
    2MOL1    Cl 2813   1.923   1.019   5.104
    2MOL1     C 2814   1.985   0.962   4.948
    2MOL1    Cl 2815   2.152   1.017   4.923
    2MOL1    Cl 2816   1.976   0.786   4.937
    2MOL1     H 2817   1.923   1.005   4.868
    2MOL1    Cl 2818   0.226   5.249   4.005
    2MOL1     C 2819   0.300   5.091   3.979
    2MOL1    Cl 2820   0.200   4.991   3.872
    2MOL1    Cl 2821   0.464   5.109   3.913
    2MOL1     H 2822   0.308   5.040   4.076
    2MOL1    Cl 2823   1.500   4.492   1.665
    2MOL1     C 2824   1.673   4.491   1.702
    2MOL1    Cl 2825   1.720   4.642   1.783
    2MOL1    Cl 2826   1.715   4.351   1.801
    2MOL1     H 2827   1.728   4.484   1.608
    2MOL1    Cl 2828   5.062   1.010   4.315
    2MOL1     C 2829   4.906   0.996   4.232
    2MOL1    Cl 2830   4.924   0.907   4.079
    2MOL1    Cl 2831   4.787   0.916   4.336
    2MOL1     H 2832   4.870   1.097   4.209
    2MOL1    Cl 2833   2.171   3.276   0.300
    2MOL1     C 2834   2.346   3.257   0.283
    2MOL1    Cl 2835   2.395   3.277   0.114
    2MOL1    Cl 2836   2.432   3.372   0.386
    2MOL1     H 2837   2.373   3.155   0.315
    2MOL1    Cl 2838   2.671   4.179   1.520
    2MOL1     C 2839   2.720   4.292   1.393
    2MOL1    Cl 2840   2.719   4.213   1.235
    2MOL1    Cl 2841   2.615   4.435   1.392
    2MOL1     H 2842   2.822   4.326   1.414
    2MOL1    Cl 2843   1.461   0.810   4.052
    2MOL1     C 2844   1.568   0.891   3.935
    2MOL1    Cl 2845   1.543   1.066   3.939
    2MOL1    Cl 2846   1.738   0.852   3.969
    2MOL1     H 2847   1.544   0.855   3.835
    2MOL1    Cl 2848   1.823   1.142   2.866
    2MOL1     C 2849   1.650   1.124   2.896
    2MOL1    Cl 2850   1.560   1.112   2.744
    2MOL1    Cl 2851   1.619   0.981   2.997
    2MOL1     H 2852   1.614   1.212   2.950
    2MOL1    Cl 2853   1.931   3.249   3.319
    2MOL1     C 2854   2.008   3.190   3.468
    2MOL1    Cl 2855   2.098   3.321   3.547
    2MOL1    Cl 2856   1.887   3.121   3.577
    2MOL1     H 2857   2.079   3.112   3.441
    2MOL1    Cl 2858   3.682   4.307   3.105
    2MOL1     C 2859   3.842   4.299   3.030
    2MOL1    Cl 2860   3.967   4.356   3.142
    2MOL1    Cl 2861   3.877   4.134   2.975
    2MOL1     H 2862   3.842   4.365   2.943
    2MOL1    Cl 2863   2.597   5.123   0.336
    2MOL1     C 2864   2.695   5.130   0.483
    2MOL1    Cl 2865   2.669   5.282   0.569
    2MOL1    Cl 2866   2.657   4.992   0.588
    2MOL1     H 2867   2.800   5.123   0.455
    2MOL1    Cl 2868   1.745   3.864   3.968
    2MOL1     C 2869   1.645   3.818   4.106
    2MOL1    Cl 2870   1.573   3.962   4.182
    2MOL1    Cl 2871   1.518   3.704   4.056
    2MOL1     H 2872   1.708   3.769   4.180
    2MOL1    Cl 2873   2.245   2.164   1.241
    2MOL1     C 2874   2.372   2.253   1.326
    2MOL1    Cl 2875   2.309   2.404   1.393
    2MOL1    Cl 2876   2.444   2.153   1.453
    2MOL1     H 2877   2.451   2.277   1.253
    2MOL1    Cl 2878   3.077   0.245   3.639
    2MOL1     C 2879   3.068   0.179   3.802
    2MOL1    Cl 2880   2.913   0.218   3.877
    2MOL1    Cl 2881   3.094   0.003   3.800
    2MOL1     H 2882   3.148   0.224   3.862
    2MOL1    Cl 2883   1.984   1.320   2.265
    2MOL1     C 2884   2.062   1.266   2.115
    2MOL1    Cl 2885   2.232   1.225   2.144
    2MOL1    Cl 2886   1.975   1.127   2.047
    2MOL1     H 2887   2.058   1.348   2.043
    2MOL1    Cl 2888   2.233   2.700   0.240
    2MOL1     C 2889   2.274   2.865   0.288
    2MOL1    Cl 2890   2.155   2.929   0.402
    2MOL1    Cl 2891   2.437   2.871   0.358
    2MOL1     H 2892   2.273   2.928   0.198
    2MOL1    Cl 2893   3.448   2.624   4.270
    2MOL1     C 2894   3.585   2.542   4.347
    2MOL1    Cl 2895   3.538   2.480   4.507
    2MOL1    Cl 2896   3.644   2.410   4.244
    2MOL1     H 2897   3.666   2.614   4.360
    2MOL1    Cl 2898   0.854   0.467   2.104
    2MOL1     C 2899   0.683   0.421   2.094
    2MOL1    Cl 2900   0.587   0.551   2.023
    2MOL1    Cl 2901   0.665   0.271   2.002
    2MOL1     H 2902   0.647   0.403   2.196
    2MOL1    Cl 2903   4.365   4.967   0.914
    2MOL1     C 2904   4.280   4.859   0.802
    2MOL1    Cl 2905   4.147   4.945   0.721
    2MOL1    Cl 2906   4.393   4.792   0.682
    2MOL1     H 2907   4.238   4.776   0.859
    2MOL1    Cl 2908   0.141   4.476   1.130
    2MOL1     C 2909   0.257   4.348   1.088
    2MOL1    Cl 2910   0.422   4.399   1.126
    2MOL1    Cl 2911   0.217   4.198   1.174
    2MOL1     H 2912   0.250   4.330   0.981
    2MOL1    Cl 2913   2.253   2.520   3.782
    2MOL1     C 2914   2.170   2.365   3.759
    2MOL1    Cl 2915   2.157   2.279   3.914
    2MOL1    Cl 2916   2.010   2.390   3.688
    2MOL1     H 2917   2.230   2.304   3.691
    2MOL1    Cl 2918   0.713   4.067   1.130
    2MOL1     C 2919   0.606   4.052   1.270
    2MOL1    Cl 2920   0.689   3.971   1.403
    2MOL1    Cl 2921   0.547   4.212   1.321
    2MOL1     H 2922   0.519   3.992   1.241
    2MOL1    Cl 2923   1.219   3.907   0.481
    2MOL1     C 2924   1.360   3.865   0.383
    2MOL1    Cl 2925   1.335   3.915   0.214
    2MOL1    Cl 2926   1.507   3.939   0.449
    2MOL1     H 2927   1.372   3.756   0.385
    2MOL1    Cl 2928   3.195   2.267   2.557
    2MOL1     C 2929   3.177   2.091   2.551
    2MOL1    Cl 2930   3.055   2.036   2.666
    2MOL1    Cl 2931   3.136   2.038   2.387
    2MOL1     H 2932   3.273   2.046   2.578
    2MOL1    Cl 2933   2.008   2.609   2.435
    2MOL1     C 2934   1.905   2.746   2.480
    2MOL1    Cl 2935   1.738   2.693   2.503
    2MOL1    Cl 2936   1.966   2.825   2.626
    2MOL1     H 2937   1.907   2.819   2.398
    2MOL1    Cl 2938   3.324   4.982   2.124
    2MOL1     C 2939   3.409   5.137   2.110
    2MOL1    Cl 2940   3.545   5.124   1.997
    2MOL1    Cl 2941   3.297   5.264   2.059
    2MOL1     H 2942   3.448   5.163   2.208
    2MOL1    Cl 2943   0.804   2.558   4.483
    2MOL1     C 2944   0.976   2.521   4.501
    2MOL1    Cl 2945   1.032   2.417   4.369
    2MOL1    Cl 2946   1.072   2.670   4.508
    2MOL1     H 2947   0.989   2.467   4.595
    2MOL1    Cl 2948   4.514   3.799   5.027
    2MOL1     C 2949   4.634   3.899   4.944
    2MOL1    Cl 2950   4.654   3.845   4.776
    2MOL1    Cl 2951   4.586   4.070   4.949
    2MOL1     H 2952   4.729   3.888   4.996
    2MOL1    Cl 2953   5.014   2.037   4.116
    2MOL1     C 2954   4.920   1.894   4.164
    2MOL1    Cl 2955   4.808   1.847   4.035
    2MOL1    Cl 2956   5.028   1.760   4.205
    2MOL1     H 2957   4.861   1.920   4.253
    2MOL1    Cl 2958   4.108   2.267   2.640
    2MOL1     C 2959   4.128   2.282   2.816
    2MOL1    Cl 2960   3.971   2.290   2.896
    2MOL1    Cl 2961   4.224   2.147   2.879
    2MOL1     H 2962   4.182   2.375   2.836
    2MOL1    Cl 2963   1.401   2.690   5.228
    2MOL1     C 2964   1.456   2.850   5.179
    2MOL1    Cl 2965   1.448   2.964   5.315
    2MOL1    Cl 2966   1.621   2.843   5.114
    2MOL1     H 2967   1.390   2.887   5.100
    2MOL1    Cl 2968   3.842   2.089   3.055
    2MOL1     C 2969   3.697   2.166   3.120
    2MOL1    Cl 2970   3.562   2.150   3.006
    2MOL1    Cl 2971   3.654   2.097   3.277
    2MOL1     H 2972   3.717   2.273   3.134
    2MOL1    Cl 2973   2.681   4.809   1.130
    2MOL1     C 2974   2.782   4.865   0.996
    2MOL1    Cl 2975   2.777   4.749   0.862
    2MOL1    Cl 2976   2.731   5.026   0.942
    2MOL1     H 2977   2.886   4.872   1.031
    2MOL1    Cl 2978   1.647   3.916   0.717
    2MOL1     C 2979   1.669   3.860   0.883
    2MOL1    Cl 2980   1.519   3.792   0.947
    2MOL1    Cl 2981   1.800   3.741   0.892
    2MOL1     H 2982   1.697   3.946   0.945
    2MOL1    Cl 2983   5.192   3.060   5.139
    2MOL1     C 2984   5.110   3.216   5.155
    2MOL1    Cl 2985   5.037   3.264   5.001
    2MOL1    Cl 2986   4.986   3.207   5.282
    2MOL1     H 2987   5.183   3.291   5.183
    2MOL1    Cl 2988   2.992   5.188   3.069
    2MOL1     C 2989   2.931   5.023   3.091
    2MOL1    Cl 2990   2.755   5.018   3.067
    2MOL1    Cl 2991   3.012   4.912   2.981
    2MOL1     H 2992   2.953   4.992   3.194
    2MOL1    Cl 2993   4.733   3.754   3.531
    2MOL1     C 2994   4.805   3.863   3.651
    2MOL1    Cl 2995   4.691   3.993   3.693
    2MOL1    Cl 2996   4.854   3.774   3.796
    2MOL1     H 2997   4.894   3.909   3.606
    2MOL1    Cl 2998   1.515   1.089   3.195
    2MOL1     C 2999   1.584   0.932   3.242
    2MOL1    Cl 3000   1.546   0.809   3.120
    2MOL1    Cl 3001   1.759   0.945   3.266
    2MOL1     H 3002   1.538   0.902   3.336
    2MOL1    Cl 3003   3.432   2.707   4.705
    2MOL1     C 3004   3.329   2.749   4.567
    2MOL1    Cl 3005   3.158   2.723   4.607
    2MOL1    Cl 3006   3.356   2.917   4.518
    2MOL1     H 3007   3.356   2.684   4.484
    2MOL1    Cl 3008   2.430   4.160   0.685
    2MOL1     C 3009   2.368   4.302   0.600
    2MOL1    Cl 3010   2.360   4.272   0.425
    2MOL1    Cl 3011   2.208   4.348   0.662
    2MOL1     H 3012   2.436   4.386   0.617
    2MOL1    Cl 3013   3.143   1.691   0.162
    2MOL1     C 3014   3.243   1.608   0.282
    2MOL1    Cl 3015   3.189   1.647   0.446
    2MOL1    Cl 3016   3.239   1.433   0.256
    2MOL1     H 3017   3.346   1.642   0.270
    2MOL1    Cl 3018   2.268   1.624   4.074
    2MOL1     C 3019   2.372   1.767   4.069
    2MOL1    Cl 3020   2.480   1.761   3.929
    2MOL1    Cl 3021   2.275   1.915   4.067
    2MOL1     H 3022   2.434   1.768   4.160
    2MOL1    Cl 3023   1.328   1.204   2.661
    2MOL1     C 3024   1.292   1.033   2.635
    2MOL1    Cl 3025   1.259   1.001   2.464
    2MOL1    Cl 3026   1.426   0.932   2.692
    2MOL1     H 3027   1.202   1.007   2.692
    2MOL1    Cl 3028   2.933   4.448   5.190
    2MOL1     C 3029   2.820   4.323   5.136
    2MOL1    Cl 3030   2.709   4.387   5.014
    2MOL1    Cl 3031   2.908   4.183   5.072
    2MOL1     H 3032   2.761   4.290   5.222
    2MOL1    Cl 3033   2.218   4.712   1.488
    2MOL1     C 3034   2.237   4.542   1.536
    2MOL1    Cl 3035   2.124   4.440   1.445
    2MOL1    Cl 3036   2.404   4.488   1.511
    2MOL1     H 3037   2.213   4.534   1.642
    2MOL1    Cl 3038   0.962   2.402   5.038
    2MOL1     C 3039   0.941   2.539   5.148
    2MOL1    Cl 3040   0.775   2.600   5.141
    2MOL1    Cl 3041   0.983   2.492   5.314
    2MOL1     H 3042   1.009   2.619   5.117
    2MOL1    Cl 3043   1.735   1.348   1.888
    2MOL1     C 3044   1.659   1.190   1.866
    2MOL1    Cl 3045   1.630   1.158   1.694
    2MOL1    Cl 3046   1.759   1.062   1.937
    2MOL1     H 3047   1.563   1.191   1.917
    2MOL1    Cl 3048   0.539   3.528   3.802
    2MOL1     C 3049   0.511   3.619   3.653
    2MOL1    Cl 3050   0.664   3.645   3.566
    2MOL1    Cl 3051   0.394   3.535   3.550
    2MOL1     H 3052   0.470   3.717   3.680
    2MOL1    Cl 3053   0.185   0.004   3.880
    2MOL1     C 3054   0.295   0.130   3.821
    2MOL1    Cl 3055   0.423   0.058   3.722
    2MOL1    Cl 3056   0.205   0.252   3.728
    2MOL1     H 3057   0.340   0.179   3.907
    2MOL1    Cl 3058   4.133   5.252   3.394
    2MOL1     C 3059   4.275   5.209   3.296
    2MOL1    Cl 3060   4.403   5.142   3.398
    2MOL1    Cl 3061   4.230   5.095   3.169
    2MOL1     H 3062   4.313   5.300   3.248
    2MOL1    Cl 3063   3.168   3.870   1.560
    2MOL1     C 3064   3.258   4.022   1.547
    2MOL1    Cl 3065   3.278   4.097   1.706
    2MOL1    Cl 3066   3.417   3.995   1.472
    2MOL1     H 3067   3.202   4.091   1.484
    2MOL1    Cl 3068   4.542   4.227   3.946
    2MOL1     C 3069   4.624   4.284   3.800
    2MOL1    Cl 3070   4.510   4.289   3.664
    2MOL1    Cl 3071   4.696   4.444   3.827
    2MOL1     H 3072   4.704   4.214   3.776
    2MOL1    Cl 3073   0.925   3.670   0.562
    2MOL1     C 3074   0.841   3.767   0.440
    2MOL1    Cl 3075   0.698   3.845   0.510
    2MOL1    Cl 3076   0.951   3.889   0.372
    2MOL1     H 3077   0.809   3.701   0.359
    2MOL1    Cl 3078   4.938   2.314   5.118
    2MOL1     C 3079   5.111   2.347   5.107
    2MOL1    Cl 3080   5.190   2.231   4.999
    2MOL1    Cl 3081   5.140   2.513   5.052
    2MOL1     H 3082   5.154   2.336   5.207
    2MOL1    Cl 3083   1.145   5.204   2.444
    2MOL1     C 3084   1.007   5.196   2.555
    2MOL1    Cl 3085   0.887   5.320   2.514
    2MOL1    Cl 3086   0.935   5.035   2.553
    2MOL1     H 3087   1.044   5.216   2.656
    2MOL1    Cl 3088   1.126   1.157   4.127
    2MOL1     C 3089   0.987   1.255   4.176
    2MOL1    Cl 3090   0.875   1.160   4.275
    2MOL1    Cl 3091   1.041   1.399   4.264
    2MOL1     H 3092   0.935   1.288   4.086
    2MOL1    Cl 3093   3.893   2.656   4.386
    2MOL1     C 3094   3.901   2.709   4.217
    2MOL1    Cl 3095   3.864   2.575   4.108
    2MOL1    Cl 3096   3.791   2.845   4.188
    2MOL1     H 3097   4.003   2.743   4.197
    2MOL1    Cl 3098   2.135   3.489   5.199
    2MOL1     C 3099   2.308   3.517   5.174
    2MOL1    Cl 3100   2.344   3.690   5.167
    2MOL1    Cl 3101   2.403   3.439   5.302
    2MOL1     H 3102   2.337   3.472   5.079
    2MOL1    Cl 3103   1.470   0.633   1.026
    2MOL1     C 3104   1.305   0.632   0.961
    2MOL1    Cl 3105   1.244   0.467   0.950
    2MOL1    Cl 3106   1.198   0.732   1.061
    2MOL1     H 3107   1.308   0.675   0.861
    2MOL1    Cl 3108   0.461   3.728   0.719
    2MOL1     C 3109   0.388   3.687   0.563
    2MOL1    Cl 3110   0.475   3.552   0.488
    2MOL1    Cl 3111   0.217   3.647   0.582
    2MOL1     H 3112   0.396   3.773   0.497
    2MOL1    Cl 3113   3.303   1.602   3.480
    2MOL1     C 3114   3.227   1.747   3.414
    2MOL1    Cl 3115   3.256   1.759   3.240
    2MOL1    Cl 3116   3.053   1.748   3.448
    2MOL1     H 3117   3.271   1.834   3.463
    2MOL1    Cl 3118   2.959   4.648   0.190
    2MOL1     C 3119   2.836   4.740   0.278
    2MOL1    Cl 3120   2.847   4.912   0.237
    2MOL1    Cl 3121   2.674   4.678   0.243
    2MOL1     H 3122   2.855   4.729   0.385
    2MOL1    Cl 3123   3.725   3.427   3.253
    2MOL1     C 3124   3.671   3.533   3.384
    2MOL1    Cl 3125   3.494   3.545   3.386
    2MOL1    Cl 3126   3.732   3.476   3.540
    2MOL1     H 3127   3.712   3.633   3.366
    2MOL1    Cl 3128   3.095   4.077   1.049
    2MOL1     C 3129   2.978   3.959   0.990
    2MOL1    Cl 3130   3.012   3.918   0.821
    2MOL1    Cl 3131   2.980   3.813   1.091
    2MOL1     H 3132   2.878   4.003   0.995
    2MOL1    Cl 3133   4.393   4.242   1.138
    2MOL1     C 3134   4.497   4.365   1.211
    2MOL1    Cl 3135   4.644   4.291   1.277
    2MOL1    Cl 3136   4.538   4.491   1.093
    2MOL1     H 3137   4.443   4.412   1.293
    2MOL1    Cl 3138   4.490   3.218   0.230
    2MOL1     C 3139   4.578   3.075   0.286
    2MOL1    Cl 3140   4.515   2.929   0.209
    2MOL1    Cl 3141   4.752   3.092   0.255
    2MOL1     H 3142   4.563   3.066   0.394
    2MOL1    Cl 3143   2.706   0.941   2.273
    2MOL1     C 3144   2.872   0.985   2.229
    2MOL1    Cl 3145   2.934   1.110   2.337
    2MOL1    Cl 3146   2.977   0.842   2.231
    2MOL1     H 3147   2.871   1.025   2.127
    2MOL1    Cl 3148   3.280   4.609   3.050
    2MOL1     C 3149   3.451   4.623   3.006
    2MOL1    Cl 3150   3.534   4.469   3.032
    2MOL1    Cl 3151   3.468   4.674   2.837
    2MOL1     H 3152   3.497   4.698   3.070
    2MOL1    Cl 3153   3.880   3.423   4.030
    2MOL1     C 3154   3.759   3.535   3.965
    2MOL1    Cl 3155   3.828   3.632   3.834
    2MOL1    Cl 3156   3.617   3.446   3.909
    2MOL1     H 3157   3.728   3.602   4.046
    2MOL1    Cl 3158   4.233   0.164   0.198
    2MOL1     C 3159   4.177   0.331   0.215
    2MOL1    Cl 3160   4.294   0.444   0.145
    2MOL1    Cl 3161   4.018   0.351   0.138
    2MOL1     H 3162   4.167   0.354   0.321
    2MOL1    Cl 3163   3.364   3.297   3.533
    2MOL1     C 3164   3.294   3.140   3.490
    2MOL1    Cl 3165   3.134   3.161   3.417
    2MOL1    Cl 3166   3.402   3.052   3.380
    2MOL1     H 3167   3.282   3.081   3.581
    2MOL1    Cl 3168   0.634   2.500   2.045
    2MOL1     C 3169   0.621   2.649   1.950
    2MOL1    Cl 3170   0.654   2.791   2.052
    2MOL1    Cl 3171   0.732   2.645   1.812
    2MOL1     H 3172   0.519   2.657   1.912
    2MOL1    Cl 3173   5.240   4.486   2.971
    2MOL1     C 3174   5.182   4.320   2.987
    2MOL1    Cl 3175   5.294   4.225   3.087
    2MOL1    Cl 3176   5.019   4.317   3.056
    2MOL1     H 3177   5.178   4.275   2.888
    2MOL1    Cl 3178   2.333   3.554   1.719
    2MOL1     C 3179   2.357   3.469   1.565
    2MOL1    Cl 3180   2.499   3.363   1.574
    2MOL1    Cl 3181   2.213   3.377   1.522
    2MOL1     H 3182   2.375   3.544   1.487
    2MOL1    Cl 3183   5.061   1.353   2.275
    2MOL1     C 3184   5.066   1.399   2.446
    2MOL1    Cl 3185   5.096   1.258   2.548
    2MOL1    Cl 3186   5.189   1.524   2.473
    2MOL1     H 3187   4.968   1.441   2.472
    2MOL1    Cl 3188   4.306   3.153   4.137
    2MOL1     C 3189   4.187   3.130   4.008
    2MOL1    Cl 3190   4.262   3.051   3.868
    2MOL1    Cl 3191   4.049   3.036   4.066
    2MOL1     H 3192   4.151   3.228   3.976
    2MOL1    Cl 3193   1.610   3.357   3.414
    2MOL1     C 3194   1.608   3.525   3.469
    2MOL1    Cl 3195   1.675   3.538   3.633
    2MOL1    Cl 3196   1.697   3.629   3.357
    2MOL1     H 3197   1.504   3.559   3.472
    2MOL1    Cl 3198   2.470   3.436   2.612
    2MOL1     C 3199   2.537   3.272   2.618
    2MOL1    Cl 3200   2.455   3.166   2.503
    2MOL1    Cl 3201   2.712   3.276   2.586
    2MOL1     H 3202   2.522   3.233   2.719
    2MOL1    Cl 3203   1.857   2.981   0.265
    2MOL1     C 3204   1.933   2.867   0.153
    2MOL1    Cl 3205   1.816   2.812   0.032
    2MOL1    Cl 3206   2.073   2.942   0.074
    2MOL1     H 3207   1.967   2.780   0.209
    2MOL1    Cl 3208   4.822   0.694   2.998
    2MOL1     C 3209   4.840   0.811   2.866
    2MOL1    Cl 3210   4.723   0.943   2.883
    2MOL1    Cl 3211   5.005   0.874   2.860
    2MOL1     H 3212   4.819   0.759   2.771
    2MOL1    Cl 3213   4.724   2.161   1.263
    2MOL1     C 3214   4.871   2.063   1.271
    2MOL1    Cl 3215   4.926   2.019   1.108
    2MOL1    Cl 3216   4.999   2.149   1.358
    2MOL1     H 3217   4.849   1.971   1.325
    2MOL1    Cl 3218   3.172   3.881   0.385
    2MOL1     C 3219   3.246   4.033   0.330
    2MOL1    Cl 3220   3.313   4.014   0.167
    2MOL1    Cl 3221   3.128   4.165   0.334
    2MOL1     H 3222   3.328   4.057   0.398
    2MOL1    Cl 3223   2.871   4.045   3.561
    2MOL1     C 3224   2.715   4.092   3.632
    2MOL1    Cl 3225   2.643   3.956   3.719
    2MOL1    Cl 3226   2.735   4.232   3.739
    2MOL1     H 3227   2.648   4.121   3.550
    2MOL1    Cl 3228   2.135   4.549   2.337
    2MOL1     C 3229   2.030   4.588   2.200
    2MOL1    Cl 3230   1.913   4.713   2.245
    2MOL1    Cl 3231   2.127   4.641   2.061
    2MOL1     H 3232   1.976   4.498   2.172
    2MOL1    Cl 3233   1.659   1.785   0.845
    2MOL1     C 3234   1.578   1.796   0.688
    2MOL1    Cl 3235   1.640   1.672   0.578
    2MOL1    Cl 3236   1.402   1.780   0.707
    2MOL1     H 3237   1.598   1.894   0.645
    2MOL1    Cl 3238   0.084   2.914   4.425
    2MOL1     C 3239   0.249   2.869   4.381
    2MOL1    Cl 3240   0.325   2.776   4.511
    2MOL1    Cl 3241   0.251   2.777   4.230
    2MOL1     H 3242   0.307   2.960   4.366
    2MOL1    Cl 3243   0.361   1.594   4.701
    2MOL1     C 3244   0.530   1.640   4.722
    2MOL1    Cl 3245   0.611   1.530   4.835
    2MOL1    Cl 3246   0.614   1.641   4.566
    2MOL1     H 3247   0.534   1.741   4.764
    2MOL1    Cl 3248   5.088   3.002   0.576
    2MOL1     C 3249   4.953   2.914   0.650
    2MOL1    Cl 3250   4.970   2.910   0.826
    2MOL1    Cl 3251   4.798   2.987   0.604
    2MOL1     H 3252   4.955   2.811   0.613
    2MOL1    Cl 3253   2.271   4.231   4.964
    2MOL1     C 3254   2.191   4.236   4.806
    2MOL1    Cl 3255   2.123   4.397   4.776
    2MOL1    Cl 3256   2.303   4.191   4.677
    2MOL1     H 3257   2.109   4.164   4.808
    2MOL1    Cl 3258   2.919   3.420   3.220
    2MOL1     C 3259   3.087   3.475   3.229
    2MOL1    Cl 3260   3.191   3.376   3.125
    2MOL1    Cl 3261   3.099   3.646   3.183
    2MOL1     H 3262   3.122   3.465   3.332
    2MOL1    Cl 3263   3.092   4.459   0.347
    2MOL1     C 3264   2.948   4.380   0.413
    2MOL1    Cl 3265   2.971   4.342   0.584
    2MOL1    Cl 3266   2.806   4.482   0.390
    2MOL1     H 3267   2.933   4.286   0.359
    2MOL1    Cl 3268   3.278   4.550   0.453
    2MOL1     C 3269   3.445   4.493   0.469
    2MOL1    Cl 3270   3.503   4.516   0.635
    2MOL1    Cl 3271   3.457   4.322   0.422
    2MOL1     H 3272   3.508   4.551   0.402
    2MOL1    Cl 3273   2.352   3.923   0.996
    2MOL1     C 3274   2.375   3.749   1.017
    2MOL1    Cl 3275   2.547   3.708   1.020
    2MOL1    Cl 3276   2.294   3.693   1.165
    2MOL1     H 3277   2.329   3.698   0.932
    2MOL1    Cl 3278   4.114   3.750   3.804
    2MOL1     C 3279   4.081   3.909   3.733
    2MOL1    Cl 3280   3.963   3.998   3.831
    2MOL1    Cl 3281   4.231   4.002   3.716
    2MOL1     H 3282   4.038   3.894   3.633
    2MOL1    Cl 3283   4.214   0.440   3.697
    2MOL1     C 3284   4.187   0.324   3.566
    2MOL1    Cl 3285   4.029   0.245   3.584
    2MOL1    Cl 3286   4.199   0.404   3.408
    2MOL1     H 3287   4.264   0.247   3.571
    2MOL1    Cl 3288   2.339   2.547   3.417
    2MOL1     C 3289   2.448   2.684   3.443
    2MOL1    Cl 3290   2.374   2.803   3.552
    2MOL1    Cl 3291   2.603   2.629   3.508
    2MOL1     H 3292   2.467   2.733   3.347
    2MOL1    Cl 3293   4.915   4.765   2.578
    2MOL1     C 3294   5.022   4.651   2.661
    2MOL1    Cl 3295   4.981   4.641   2.833
    2MOL1    Cl 3296   5.013   4.491   2.585
    2MOL1     H 3297   5.125   4.687   2.652
    2MOL1    Cl 3298   2.517   0.717   2.016
    2MOL1     C 3299   2.383   0.830   2.040
    2MOL1    Cl 3300   2.281   0.777   2.175
    2MOL1    Cl 3301   2.444   0.994   2.069
    2MOL1     H 3302   2.322   0.831   1.950
    2MOL1    Cl 3303   0.415   2.381   2.979
    2MOL1     C 3304   0.248   2.364   3.034
    2MOL1    Cl 3305   0.151   2.277   2.914
    2MOL1    Cl 3306   0.243   2.280   3.190
    2MOL1     H 3307   0.205   2.463   3.047
    2MOL1    Cl 3308   1.162   4.199   1.154
    2MOL1     C 3309   1.090   4.048   1.096
    2MOL1    Cl 3310   1.215   3.932   1.048
    2MOL1    Cl 3311   0.985   3.978   1.221
    2MOL1     H 3312   1.029   4.070   1.008
    2MOL1    Cl 3313   2.484   3.013   0.600
    2MOL1     C 3314   2.629   3.038   0.698
    2MOL1    Cl 3315   2.701   3.196   0.664
    2MOL1    Cl 3316   2.591   3.022   0.870
    2MOL1     H 3317   2.702   2.960   0.672
    2MOL1    Cl 3318   0.792   0.575   1.026
    2MOL1     C 3319   0.788   0.671   0.878
    2MOL1    Cl 3320   0.922   0.626   0.771
    2MOL1    Cl 3321   0.633   0.652   0.795
    2MOL1     H 3322   0.800   0.776   0.905
    2MOL1    Cl 3323   5.110   2.024   3.229
    2MOL1     C 3324   5.081   2.199   3.233
    2MOL1    Cl 3325   5.197   2.284   3.130
    2MOL1    Cl 3326   4.915   2.236   3.182
    2MOL1     H 3327   5.094   2.233   3.336
    2MOL1    Cl 3328   2.471   1.178   3.467
    2MOL1     C 3329   2.524   1.013   3.503
    2MOL1    Cl 3330   2.687   1.013   3.573
    2MOL1    Cl 3331   2.409   0.934   3.613
    2MOL1     H 3332   2.527   0.956   3.410
    2MOL1    Cl 3333   5.143   0.982   2.398
    2MOL1     C 3334   5.082   1.008   2.234
    2MOL1    Cl 3335   5.113   0.867   2.132
    2MOL1    Cl 3336   4.909   1.046   2.237
    2MOL1     H 3337   5.135   1.094   2.191
    2MOL1    Cl 3338   4.116   0.479   4.562
    2MOL1     C 3339   3.965   0.570   4.549
    2MOL1    Cl 3340   3.853   0.524   4.678
    2MOL1    Cl 3341   3.997   0.744   4.555
    2MOL1     H 3342   3.918   0.547   4.453
    2MOL1    Cl 3343   5.144   1.047   5.052
    2MOL1     C 3344   5.106   0.874   5.058
    2MOL1    Cl 3345   5.234   0.785   5.143
    2MOL1    Cl 3346   4.949   0.847   5.136
    2MOL1     H 3347   5.100   0.837   4.956
    2MOL1    Cl 3348   2.774   0.535   1.365
    2MOL1     C 3349   2.933   0.586   1.422
    2MOL1    Cl 3350   2.919   0.716   1.542
    2MOL1    Cl 3351   3.022   0.449   1.489
    2MOL1     H 3352   2.989   0.625   1.336
    2MOL1    Cl 3353   2.084   1.492   3.753
    2MOL1     C 3354   2.120   1.345   3.844
    2MOL1    Cl 3355   1.974   1.246   3.865
    2MOL1    Cl 3356   2.247   1.252   3.763
    2MOL1     H 3357   2.156   1.374   3.943
    2MOL1    Cl 3358   3.365   1.504   2.198
    2MOL1     C 3359   3.511   1.419   2.147
    2MOL1    Cl 3360   3.655   1.493   2.219
    2MOL1    Cl 3361   3.502   1.247   2.189
    2MOL1     H 3362   3.519   1.427   2.038
    2MOL1    Cl 3363   3.836   2.309   4.286
    2MOL1     C 3364   3.892   2.147   4.333
    2MOL1    Cl 3365   4.008   2.158   4.466
    2MOL1    Cl 3366   3.755   2.044   4.377
    2MOL1     H 3367   3.942   2.102   4.247
  5.5400000  5.5400000  5.5400000
