Generated by Interchange
197
    1POM     C1    1  -0.291  -0.568  -0.069
    1POM     O2    2  -0.176  -0.484  -0.079
    1POM     C3    3  -0.191  -0.354  -0.040
    1POM     C4    4  -0.307  -0.297   0.012
    1POM     C5    5  -0.306  -0.163   0.053
    1POM     C6    6  -0.191  -0.083   0.042
    1POM     C7    7  -0.191   0.055   0.096
    1POM     C8    8  -0.096   0.093   0.192
    1POM     C9    9  -0.079   0.226   0.227
    1POM    C10   10  -0.161   0.323   0.170
    1POM    C11   11  -0.269   0.287   0.088
    1POM    C12   12  -0.366   0.388   0.037
    1POM    O13   13  -0.442   0.364  -0.056
    1POM    C14   14  -0.281   0.152   0.049
    1POM    C15   15  -0.074  -0.140  -0.016
    1POM    C16   16   0.051  -0.064  -0.035
    1POM    C17   17   0.167  -0.104   0.032
    1POM    C18   18   0.284  -0.029   0.022
    1POM    C19   19   0.293   0.081  -0.063
    1POM    C20   20   0.422   0.158  -0.080
    1POM    C21   21   0.467   0.225   0.051
    1POM    N22   22   0.533   0.084  -0.141
    1POM    C23   23   0.177   0.123  -0.129
    1POM    C24   24   0.057   0.051  -0.115
    1POM    C25   25  -0.077  -0.276  -0.054
    1POM    H26   26  -0.262  -0.668  -0.105
    1POM    H27   27  -0.323  -0.578   0.035
    1POM    H28   28  -0.372  -0.532  -0.132
    1POM    H29   29  -0.398  -0.353   0.024
    1POM    H30   30  -0.397  -0.121   0.096
    1POM    H31   31  -0.028   0.019   0.234
    1POM    H32   32   0.001   0.255   0.295
    1POM    H33   33  -0.138   0.427   0.191
    1POM    H34   34  -0.358   0.125  -0.023
    1POM    H35   35   0.167  -0.193   0.095
    1POM    H36   36   0.370  -0.062   0.081
    1POM    H37   37   0.404   0.239  -0.151
    1POM    H38   38   0.555   0.288   0.033
    1POM    H39   39   0.494   0.152   0.127
    1POM    H40   40   0.388   0.289   0.091
    1POM    H41   41   0.597   0.148  -0.186
    1POM    H42   42   0.177   0.211  -0.192
    1POM    H43   43  -0.032   0.087  -0.166
    1POM    H44   44   0.013  -0.322  -0.096
    2POM    C45   45   1.089  -0.479   0.609
    2POM    O46   46   1.140  -0.463   0.478
    2POM    C47   47   1.076  -0.376   0.395
    2POM    C48   48   0.966  -0.297   0.426
    2POM    C49   49   0.913  -0.209   0.331
    2POM    C50   50   0.968  -0.196   0.203
    2POM    C51   51   0.916  -0.095   0.108
    2POM    C52   52   0.998   0.007   0.058
    2POM    C53   53   0.952   0.098  -0.036
    2POM    C54   54   0.821   0.090  -0.083
    2POM    C55   55   0.735  -0.010  -0.036
    2POM    C56   56   0.593  -0.024  -0.078
    2POM    O57   57   0.535  -0.130  -0.056
    2POM    C58   58   0.784  -0.101   0.060
    2POM    C59   59   1.078  -0.280   0.169
    2POM    C60   60   1.141  -0.277   0.036
    2POM    C61   61   1.273  -0.234   0.025
    2POM    C62   62   1.333  -0.220  -0.100
    2POM    C63   63   1.266  -0.259  -0.217
    2POM    C64   64   1.334  -0.252  -0.352
    2POM    C65   65   1.370  -0.108  -0.392
    2POM    N66   66   1.448  -0.342  -0.372
    2POM    C67   67   1.133  -0.300  -0.206
    2POM    C68   68   1.071  -0.308  -0.081
    2POM    C69   69   1.130  -0.367   0.267
    2POM    H70   70   1.153  -0.550   0.662
    2POM    H71   71   1.092  -0.384   0.664
    2POM    H72   72   0.988  -0.520   0.607
    2POM    H73   73   0.919  -0.301   0.524
    2POM    H74   74   0.828  -0.147   0.360
    2POM    H75   75   1.102   0.014   0.091
    2POM    H76   76   1.019   0.175  -0.075
    2POM    H77   77   0.790   0.163  -0.157
    2POM    H78   78   0.718  -0.180   0.098
    2POM    H79   79   1.332  -0.209   0.113
    2POM    H80   80   1.434  -0.181  -0.104
    2POM    H81   81   1.261  -0.286  -0.427
    2POM    H82   82   1.407  -0.105  -0.495
    2POM    H83   83   1.449  -0.067  -0.328
    2POM    H84   84   1.283  -0.042  -0.384
    2POM    H85   85   1.458  -0.367  -0.469
    2POM    H86   86   1.075  -0.326  -0.295
    2POM    H87   87   0.966  -0.339  -0.075
    2POM    H88   88   1.216  -0.430   0.242
    3POM    C89   89   2.372   0.103  -0.011
    3POM    O90   90   2.376  -0.016  -0.090
    3POM    C91   91   2.259  -0.055  -0.149
    3POM    C92   92   2.136   0.010  -0.141
    3POM    C93   93   2.025  -0.040  -0.211
    3POM    C94   94   2.034  -0.156  -0.289
    3POM    C95   95   1.917  -0.202  -0.368
    3POM    C96   96   1.924  -0.214  -0.508
    3POM    C97   97   1.816  -0.263  -0.582
    3POM    C98   98   1.698  -0.300  -0.518
    3POM    C99   99   1.689  -0.290  -0.379
    3POM   C100  100   1.566  -0.326  -0.302
    3POM   O101  101   1.576  -0.337  -0.180
    3POM   C102  102   1.798  -0.239  -0.305
    3POM   C103  103   2.157  -0.226  -0.292
    3POM   C104  104   2.175  -0.351  -0.368
    3POM   C105  105   2.263  -0.353  -0.477
    3POM   C106  106   2.274  -0.467  -0.556
    3POM   C107  107   2.207  -0.585  -0.524
    3POM   C108  108   2.226  -0.711  -0.605
    3POM   C109  109   2.178  -0.695  -0.750
    3POM   N110  110   2.360  -0.771  -0.601
    3POM   C111  111   2.117  -0.582  -0.417
    3POM   C112  112   2.101  -0.466  -0.340
    3POM   C113  113   2.268  -0.172  -0.223
    3POM   H114  114   2.473   0.119   0.029
    3POM   H115  115   2.345   0.190  -0.072
    3POM   H116  116   2.304   0.091   0.074
    3POM   H117  117   2.123   0.101  -0.083
    3POM   H118  118   1.931   0.014  -0.205
    3POM   H119  119   2.016  -0.188  -0.560
    3POM   H120  120   1.825  -0.274  -0.690
    3POM   H121  121   1.617  -0.338  -0.579
    3POM   H122  122   1.790  -0.231  -0.197
    3POM   H123  123   2.322  -0.266  -0.502
    3POM   H124  124   2.340  -0.462  -0.642
    3POM   H125  125   2.162  -0.789  -0.560
    3POM   H126  126   2.183  -0.791  -0.803
    3POM   H127  127   2.240  -0.624  -0.806
    3POM   H128  128   2.074  -0.660  -0.754
    3POM   H129  129   2.356  -0.870  -0.616
    3POM   H130  130   2.057  -0.670  -0.392
    3POM   H131  131   2.029  -0.466  -0.259
    3POM   H132  132   2.364  -0.224  -0.228
    4POM   C133  133   3.010  -0.320  -1.348
    4POM   O134  134   3.050  -0.439  -1.281
    4POM   C135  135   2.956  -0.501  -1.203
    4POM   C136  136   2.824  -0.462  -1.184
    4POM   C137  137   2.739  -0.538  -1.104
    4POM   C138  138   2.783  -0.656  -1.040
    4POM   C139  139   2.687  -0.739  -0.964
    4POM   C140  140   2.663  -0.872  -1.000
    4POM   C141  141   2.578  -0.954  -0.924
    4POM   C142  142   2.514  -0.903  -0.812
    4POM   C143  143   2.536  -0.770  -0.774
    4POM   C144  144   2.470  -0.707  -0.656
    4POM   O145  145   2.515  -0.600  -0.615
    4POM   C146  146   2.621  -0.688  -0.851
    4POM   C147  147   2.919  -0.693  -1.054
    4POM   C148  148   2.975  -0.812  -0.988
    4POM   C149  149   3.022  -0.918  -1.066
    4POM   C150  150   3.068  -1.035  -1.007
    4POM   C151  151   3.080  -1.048  -0.868
    4POM   C152  152   3.137  -1.174  -0.805
    4POM   C153  153   3.049  -1.296  -0.833
    4POM   N154  154   3.278  -1.206  -0.834
    4POM   C155  155   3.030  -0.944  -0.789
    4POM   C156  156   2.977  -0.828  -0.849
    4POM   C157  157   3.002  -0.615  -1.137
    4POM   H158  158   3.096  -0.283  -1.404
    4POM   H159  159   2.930  -0.340  -1.420
    4POM   H160  160   2.981  -0.242  -1.277
    4POM   H161  161   2.784  -0.373  -1.232
    4POM   H162  162   2.635  -0.506  -1.093
    4POM   H163  163   2.713  -0.916  -1.086
    4POM   H164  164   2.563  -1.058  -0.953
    4POM   H165  165   2.450  -0.969  -0.756
    4POM   H166  166   2.638  -0.585  -0.821
    4POM   H167  167   3.022  -0.911  -1.175
    4POM   H168  168   3.097  -1.116  -1.074
    4POM   H169  169   3.136  -1.159  -0.696
    4POM   H170  170   3.085  -1.383  -0.776
    4POM   H171  171   3.051  -1.324  -0.939
    4POM   H172  172   2.945  -1.278  -0.805
    4POM   H173  173   3.313  -1.277  -0.773
    4POM   H174  174   3.029  -0.951  -0.681
    4POM   H175  175   2.937  -0.749  -0.785
    4POM   H176  176   3.106  -0.645  -1.151
    5CAP   C177  177  -0.384   0.528   0.231
    5CAP   O178  178  -0.355   0.512   0.091
    5CAP   H179  179  -0.468   0.465   0.263
    5CAP   H180  180  -0.410   0.633   0.248
    5CAP   H181  181  -0.297   0.508   0.294
    6CAP   C182  182   3.452  -1.551  -1.077
    6CAP   C183  183   3.390  -1.414  -1.103
    6CAP   C184  184   3.488  -1.332  -1.189
    6CAP   C185  185   3.256  -1.434  -1.177
    6CAP   O186  186   3.367  -1.356  -0.971
    6CAP   C187  187   3.321  -1.229  -0.962
    6CAP   O188  188   3.316  -1.150  -1.055
    6CAP   H189  189   3.474  -1.604  -1.171
    6CAP   H190  190   3.545  -1.541  -1.020
    6CAP   H191  191   3.385  -1.614  -1.017
    6CAP   H192  192   3.577  -1.305  -1.131
    6CAP   H193  193   3.444  -1.239  -1.225
    6CAP   H194  194   3.519  -1.388  -1.278
    6CAP   H195  195   3.185  -1.490  -1.115
    6CAP   H196  196   3.208  -1.339  -1.201
    6CAP   H197  197   3.271  -1.489  -1.271
  5.0000000  5.0000000  5.0000000
