Generated by Interchange
197
    1POM     C1    1  -0.292  -0.568  -0.066
    1POM     O2    2  -0.177  -0.485  -0.076
    1POM     C3    3  -0.190  -0.354  -0.038
    1POM     C4    4  -0.305  -0.295   0.014
    1POM     C5    5  -0.303  -0.161   0.054
    1POM     C6    6  -0.188  -0.083   0.041
    1POM     C7    7  -0.188   0.055   0.094
    1POM     C8    8  -0.094   0.094   0.191
    1POM     C9    9  -0.081   0.227   0.230
    1POM    C10   10  -0.165   0.322   0.173
    1POM    C11   11  -0.271   0.285   0.090
    1POM    C12   12  -0.374   0.382   0.043
    1POM    O13   13  -0.453   0.354  -0.046
    1POM    C14   14  -0.280   0.151   0.048
    1POM    C15   15  -0.072  -0.141  -0.018
    1POM    C16   16   0.052  -0.065  -0.038
    1POM    C17   17   0.168  -0.104   0.028
    1POM    C18   18   0.284  -0.027   0.019
    1POM    C19   19   0.293   0.084  -0.066
    1POM    C20   20   0.422   0.159  -0.083
    1POM    C21   21   0.468   0.226   0.047
    1POM    N22   22   0.533   0.082  -0.142
    1POM    C23   23   0.175   0.125  -0.130
    1POM    C24   24   0.056   0.052  -0.116
    1POM    C25   25  -0.076  -0.277  -0.054
    1POM    H26   26  -0.264  -0.668  -0.100
    1POM    H27   27  -0.326  -0.576   0.038
    1POM    H28   28  -0.373  -0.532  -0.130
    1POM    H29   29  -0.397  -0.351   0.028
    1POM    H30   30  -0.393  -0.118   0.098
    1POM    H31   31  -0.024   0.022   0.232
    1POM    H32   32  -0.006   0.256   0.302
    1POM    H33   33  -0.144   0.426   0.196
    1POM    H34   34  -0.355   0.123  -0.025
    1POM    H35   35   0.171  -0.194   0.089
    1POM    H36   36   0.368  -0.058   0.079
    1POM    H37   37   0.405   0.239  -0.155
    1POM    H38   38   0.556   0.289   0.029
    1POM    H39   39   0.496   0.152   0.123
    1POM    H40   40   0.389   0.290   0.089
    1POM    H41   41   0.595   0.142  -0.192
    1POM    H42   42   0.174   0.216  -0.191
    1POM    H43   43  -0.034   0.089  -0.164
    1POM    H44   44   0.014  -0.324  -0.096
    2POM    C45   45   1.090  -0.479   0.610
    2POM    O46   46   1.142  -0.463   0.479
    2POM    C47   47   1.078  -0.374   0.396
    2POM    C48   48   0.967  -0.298   0.426
    2POM    C49   49   0.914  -0.209   0.331
    2POM    C50   50   0.970  -0.196   0.202
    2POM    C51   51   0.916  -0.095   0.108
    2POM    C52   52   0.998   0.006   0.054
    2POM    C53   53   0.950   0.098  -0.040
    2POM    C54   54   0.818   0.091  -0.082
    2POM    C55   55   0.734  -0.009  -0.032
    2POM    C56   56   0.592  -0.024  -0.074
    2POM    O57   57   0.535  -0.128  -0.043
    2POM    C58   58   0.783  -0.100   0.064
    2POM    C59   59   1.079  -0.279   0.170
    2POM    C60   60   1.142  -0.277   0.036
    2POM    C61   61   1.276  -0.240   0.024
    2POM    C62   62   1.332  -0.223  -0.102
    2POM    C63   63   1.263  -0.256  -0.219
    2POM    C64   64   1.331  -0.251  -0.354
    2POM    C65   65   1.370  -0.109  -0.395
    2POM    N66   66   1.445  -0.342  -0.370
    2POM    C67   67   1.129  -0.294  -0.207
    2POM    C68   68   1.069  -0.302  -0.081
    2POM    C69   69   1.134  -0.366   0.268
    2POM    H70   70   1.154  -0.550   0.663
    2POM    H71   71   1.092  -0.385   0.666
    2POM    H72   72   0.989  -0.521   0.608
    2POM    H73   73   0.918  -0.303   0.524
    2POM    H74   74   0.827  -0.149   0.358
    2POM    H75   75   1.103   0.011   0.082
    2POM    H76   76   1.016   0.173  -0.081
    2POM    H77   77   0.784   0.164  -0.154
    2POM    H78   78   0.718  -0.178   0.104
    2POM    H79   79   1.337  -0.221   0.111
    2POM    H80   80   1.434  -0.186  -0.106
    2POM    H81   81   1.259  -0.287  -0.429
    2POM    H82   82   1.408  -0.108  -0.498
    2POM    H83   83   1.450  -0.069  -0.331
    2POM    H84   84   1.285  -0.041  -0.390
    2POM    H85   85   1.456  -0.369  -0.466
    2POM    H86   86   1.068  -0.314  -0.295
    2POM    H87   87   0.963  -0.328  -0.074
    2POM    H88   88   1.220  -0.427   0.245
    3POM    C89   89   2.373   0.103  -0.011
    3POM    O90   90   2.377  -0.013  -0.093
    3POM    C91   91   2.260  -0.053  -0.151
    3POM    C92   92   2.137   0.010  -0.141
    3POM    C93   93   2.026  -0.042  -0.209
    3POM    C94   94   2.034  -0.159  -0.288
    3POM    C95   95   1.916  -0.204  -0.365
    3POM    C96   96   1.923  -0.221  -0.505
    3POM    C97   97   1.814  -0.268  -0.578
    3POM    C98   98   1.695  -0.299  -0.514
    3POM    C99   99   1.686  -0.286  -0.375
    3POM   C100  100   1.563  -0.324  -0.299
    3POM   O101  101   1.574  -0.336  -0.178
    3POM   C102  102   1.795  -0.236  -0.302
    3POM   C103  103   2.158  -0.227  -0.292
    3POM   C104  104   2.176  -0.352  -0.367
    3POM   C105  105   2.267  -0.357  -0.472
    3POM   C106  106   2.275  -0.470  -0.553
    3POM   C107  107   2.205  -0.587  -0.523
    3POM   C108  108   2.225  -0.713  -0.605
    3POM   C109  109   2.181  -0.697  -0.751
    3POM   N110  110   2.361  -0.769  -0.599
    3POM   C111  111   2.114  -0.583  -0.417
    3POM   C112  112   2.099  -0.467  -0.340
    3POM   C113  113   2.270  -0.171  -0.226
    3POM   H114  114   2.474   0.119   0.029
    3POM   H115  115   2.346   0.192  -0.068
    3POM   H116  116   2.306   0.089   0.074
    3POM   H117  117   2.124   0.101  -0.083
    3POM   H118  118   1.931   0.012  -0.202
    3POM   H119  119   2.016  -0.200  -0.558
    3POM   H120  120   1.822  -0.282  -0.685
    3POM   H121  121   1.612  -0.335  -0.575
    3POM   H122  122   1.787  -0.225  -0.194
    3POM   H123  123   2.330  -0.272  -0.496
    3POM   H124  124   2.342  -0.465  -0.638
    3POM   H125  125   2.162  -0.791  -0.562
    3POM   H126  126   2.187  -0.793  -0.803
    3POM   H127  127   2.245  -0.627  -0.805
    3POM   H128  128   2.078  -0.661  -0.758
    3POM   H129  129   2.358  -0.869  -0.612
    3POM   H130  130   2.052  -0.670  -0.393
    3POM   H131  131   2.025  -0.465  -0.260
    3POM   H132  132   2.367  -0.220  -0.232
    4POM   C133  133   3.010  -0.319  -1.351
    4POM   O134  134   3.050  -0.438  -1.284
    4POM   C135  135   2.956  -0.501  -1.206
    4POM   C136  136   2.824  -0.461  -1.187
    4POM   C137  137   2.739  -0.538  -1.107
    4POM   C138  138   2.782  -0.656  -1.043
    4POM   C139  139   2.686  -0.738  -0.966
    4POM   C140  140   2.663  -0.873  -0.998
    4POM   C141  141   2.576  -0.953  -0.922
    4POM   C142  142   2.510  -0.899  -0.812
    4POM   C143  143   2.532  -0.766  -0.777
    4POM   C144  144   2.469  -0.704  -0.658
    4POM   O145  145   2.515  -0.598  -0.618
    4POM   C146  146   2.617  -0.686  -0.855
    4POM   C147  147   2.919  -0.693  -1.057
    4POM   C148  148   2.976  -0.811  -0.990
    4POM   C149  149   3.028  -0.916  -1.067
    4POM   C150  150   3.073  -1.032  -1.006
    4POM   C151  151   3.081  -1.046  -0.867
    4POM   C152  152   3.139  -1.172  -0.803
    4POM   C153  153   3.052  -1.295  -0.833
    4POM   N154  154   3.280  -1.204  -0.833
    4POM   C155  155   3.027  -0.943  -0.790
    4POM   C156  156   2.974  -0.828  -0.850
    4POM   C157  157   3.002  -0.616  -1.141
    4POM   H158  158   3.096  -0.282  -1.408
    4POM   H159  159   2.929  -0.339  -1.422
    4POM   H160  160   2.981  -0.241  -1.280
    4POM   H161  161   2.784  -0.372  -1.234
    4POM   H162  162   2.635  -0.506  -1.096
    4POM   H163  163   2.716  -0.919  -1.081
    4POM   H164  164   2.563  -1.057  -0.948
    4POM   H165  165   2.444  -0.964  -0.757
    4POM   H166  166   2.633  -0.581  -0.828
    4POM   H167  167   3.031  -0.908  -1.175
    4POM   H168  168   3.103  -1.113  -1.072
    4POM   H169  169   3.138  -1.157  -0.695
    4POM   H170  170   3.088  -1.381  -0.776
    4POM   H171  171   3.057  -1.322  -0.939
    4POM   H172  172   2.947  -1.278  -0.807
    4POM   H173  173   3.317  -1.272  -0.769
    4POM   H174  174   3.023  -0.951  -0.681
    4POM   H175  175   2.930  -0.750  -0.788
    4POM   H176  176   3.106  -0.645  -1.155
    5CAP   C177  177  -0.385   0.524   0.237
    5CAP   O178  178  -0.364   0.507   0.096
    5CAP   H179  179  -0.475   0.473   0.271
    5CAP   H180  180  -0.394   0.632   0.256
    5CAP   H181  181  -0.300   0.491   0.296
    6CAP   C182  182   3.455  -1.551  -1.078
    6CAP   C183  183   3.390  -1.414  -1.104
    6CAP   C184  184   3.487  -1.331  -1.190
    6CAP   C185  185   3.258  -1.437  -1.180
    6CAP   O186  186   3.367  -1.358  -0.972
    6CAP   C187  187   3.321  -1.229  -0.962
    6CAP   O188  188   3.317  -1.152  -1.055
    6CAP   H189  189   3.479  -1.603  -1.172
    6CAP   H190  190   3.547  -1.540  -1.020
    6CAP   H191  191   3.388  -1.616  -1.020
    6CAP   H192  192   3.577  -1.307  -1.134
    6CAP   H193  193   3.443  -1.236  -1.223
    6CAP   H194  194   3.515  -1.384  -1.282
    6CAP   H195  195   3.186  -1.492  -1.118
    6CAP   H196  196   3.210  -1.342  -1.208
    6CAP   H197  197   3.274  -1.494  -1.272
  5.0000000  5.0000000  5.0000000
