Generated by Interchange
197
    1POM     C1    1  -0.290  -0.568  -0.068
    1POM     O2    2  -0.176  -0.484  -0.077
    1POM     C3    3  -0.190  -0.354  -0.037
    1POM     C4    4  -0.306  -0.295   0.014
    1POM     C5    5  -0.304  -0.161   0.054
    1POM     C6    6  -0.189  -0.083   0.044
    1POM     C7    7  -0.190   0.055   0.096
    1POM     C8    8  -0.096   0.094   0.193
    1POM     C9    9  -0.082   0.228   0.229
    1POM    C10   10  -0.164   0.323   0.170
    1POM    C11   11  -0.270   0.287   0.087
    1POM    C12   12  -0.370   0.385   0.036
    1POM    O13   13  -0.446   0.358  -0.057
    1POM    C14   14  -0.280   0.152   0.048
    1POM    C15   15  -0.073  -0.140  -0.014
    1POM    C16   16   0.052  -0.064  -0.034
    1POM    C17   17   0.169  -0.105   0.030
    1POM    C18   18   0.285  -0.029   0.021
    1POM    C19   19   0.293   0.083  -0.061
    1POM    C20   20   0.424   0.157  -0.079
    1POM    C21   21   0.471   0.224   0.050
    1POM    N22   22   0.533   0.079  -0.140
    1POM    C23   23   0.176   0.126  -0.125
    1POM    C24   24   0.057   0.054  -0.110
    1POM    C25   25  -0.075  -0.276  -0.051
    1POM    H26   26  -0.260  -0.667  -0.105
    1POM    H27   27  -0.322  -0.581   0.036
    1POM    H28   28  -0.371  -0.532  -0.130
    1POM    H29   29  -0.398  -0.352   0.026
    1POM    H30   30  -0.395  -0.118   0.096
    1POM    H31   31  -0.027   0.022   0.236
    1POM    H32   32  -0.006   0.258   0.300
    1POM    H33   33  -0.141   0.427   0.189
    1POM    H34   34  -0.356   0.123  -0.026
    1POM    H35   35   0.171  -0.196   0.090
    1POM    H36   36   0.370  -0.062   0.080
    1POM    H37   37   0.407   0.238  -0.152
    1POM    H38   38   0.559   0.287   0.031
    1POM    H39   39   0.500   0.150   0.126
    1POM    H40   40   0.393   0.288   0.093
    1POM    H41   41   0.596   0.139  -0.189
    1POM    H42   42   0.175   0.217  -0.186
    1POM    H43   43  -0.033   0.092  -0.158
    1POM    H44   44   0.014  -0.323  -0.091
    2POM    C45   45   1.092  -0.480   0.609
    2POM    O46   46   1.144  -0.464   0.477
    2POM    C47   47   1.079  -0.377   0.395
    2POM    C48   48   0.968  -0.299   0.426
    2POM    C49   49   0.915  -0.211   0.331
    2POM    C50   50   0.971  -0.197   0.203
    2POM    C51   51   0.917  -0.096   0.109
    2POM    C52   52   0.998   0.005   0.055
    2POM    C53   53   0.950   0.096  -0.038
    2POM    C54   54   0.817   0.089  -0.080
    2POM    C55   55   0.734  -0.012  -0.030
    2POM    C56   56   0.592  -0.027  -0.073
    2POM    O57   57   0.536  -0.132  -0.044
    2POM    C58   58   0.784  -0.102   0.065
    2POM    C59   59   1.080  -0.280   0.169
    2POM    C60   60   1.142  -0.278   0.036
    2POM    C61   61   1.276  -0.241   0.023
    2POM    C62   62   1.333  -0.226  -0.102
    2POM    C63   63   1.264  -0.259  -0.219
    2POM    C64   64   1.332  -0.254  -0.354
    2POM    C65   65   1.370  -0.112  -0.394
    2POM    N66   66   1.446  -0.345  -0.370
    2POM    C67   67   1.129  -0.295  -0.207
    2POM    C68   68   1.069  -0.303  -0.081
    2POM    C69   69   1.134  -0.367   0.267
    2POM    H70   70   1.155  -0.552   0.661
    2POM    H71   71   1.095  -0.386   0.665
    2POM    H72   72   0.990  -0.522   0.606
    2POM    H73   73   0.921  -0.304   0.524
    2POM    H74   74   0.829  -0.150   0.360
    2POM    H75   75   1.104   0.010   0.083
    2POM    H76   76   1.016   0.172  -0.080
    2POM    H77   77   0.784   0.162  -0.152
    2POM    H78   78   0.718  -0.180   0.105
    2POM    H79   79   1.337  -0.221   0.111
    2POM    H80   80   1.434  -0.189  -0.106
    2POM    H81   81   1.260  -0.290  -0.429
    2POM    H82   82   1.409  -0.110  -0.497
    2POM    H83   83   1.449  -0.072  -0.330
    2POM    H84   84   1.285  -0.044  -0.389
    2POM    H85   85   1.457  -0.371  -0.466
    2POM    H86   86   1.068  -0.315  -0.296
    2POM    H87   87   0.963  -0.328  -0.075
    2POM    H88   88   1.221  -0.428   0.242
    3POM    C89   89   2.374   0.102  -0.011
    3POM    O90   90   2.377  -0.015  -0.092
    3POM    C91   91   2.260  -0.054  -0.151
    3POM    C92   92   2.137   0.010  -0.142
    3POM    C93   93   2.026  -0.041  -0.210
    3POM    C94   94   2.034  -0.158  -0.289
    3POM    C95   95   1.916  -0.203  -0.367
    3POM    C96   96   1.922  -0.219  -0.506
    3POM    C97   97   1.813  -0.268  -0.580
    3POM    C98   98   1.695  -0.301  -0.515
    3POM    C99   99   1.686  -0.289  -0.376
    3POM   C100  100   1.564  -0.327  -0.300
    3POM   O101  101   1.575  -0.338  -0.178
    3POM   C102  102   1.796  -0.238  -0.303
    3POM   C103  103   2.158  -0.226  -0.293
    3POM   C104  104   2.176  -0.351  -0.368
    3POM   C105  105   2.266  -0.356  -0.474
    3POM   C106  106   2.275  -0.469  -0.553
    3POM   C107  107   2.205  -0.586  -0.523
    3POM   C108  108   2.225  -0.712  -0.604
    3POM   C109  109   2.178  -0.696  -0.749
    3POM   N110  110   2.360  -0.769  -0.600
    3POM   C111  111   2.113  -0.582  -0.418
    3POM   C112  112   2.098  -0.465  -0.342
    3POM   C113  113   2.269  -0.171  -0.226
    3POM   H114  114   2.476   0.119   0.027
    3POM   H115  115   2.346   0.190  -0.070
    3POM   H116  116   2.308   0.089   0.075
    3POM   H117  117   2.124   0.100  -0.082
    3POM   H118  118   1.931   0.012  -0.203
    3POM   H119  119   2.014  -0.197  -0.560
    3POM   H120  120   1.821  -0.281  -0.687
    3POM   H121  121   1.613  -0.338  -0.575
    3POM   H122  122   1.788  -0.229  -0.195
    3POM   H123  123   2.329  -0.271  -0.497
    3POM   H124  124   2.341  -0.464  -0.639
    3POM   H125  125   2.162  -0.791  -0.559
    3POM   H126  126   2.183  -0.792  -0.802
    3POM   H127  127   2.241  -0.625  -0.804
    3POM   H128  128   2.074  -0.660  -0.754
    3POM   H129  129   2.358  -0.868  -0.613
    3POM   H130  130   2.050  -0.668  -0.394
    3POM   H131  131   2.023  -0.463  -0.263
    3POM   H132  132   2.366  -0.221  -0.232
    4POM   C133  133   3.009  -0.317  -1.349
    4POM   O134  134   3.050  -0.436  -1.282
    4POM   C135  135   2.957  -0.499  -1.204
    4POM   C136  136   2.825  -0.460  -1.186
    4POM   C137  137   2.739  -0.537  -1.106
    4POM   C138  138   2.783  -0.654  -1.041
    4POM   C139  139   2.686  -0.737  -0.966
    4POM   C140  140   2.663  -0.871  -0.999
    4POM   C141  141   2.576  -0.952  -0.924
    4POM   C142  142   2.511  -0.899  -0.813
    4POM   C143  143   2.533  -0.766  -0.777
    4POM   C144  144   2.468  -0.703  -0.659
    4POM   O145  145   2.512  -0.596  -0.621
    4POM   C146  146   2.618  -0.685  -0.855
    4POM   C147  147   2.919  -0.691  -1.055
    4POM   C148  148   2.975  -0.810  -0.989
    4POM   C149  149   3.027  -0.914  -1.066
    4POM   C150  150   3.071  -1.031  -1.006
    4POM   C151  151   3.078  -1.046  -0.867
    4POM   C152  152   3.137  -1.172  -0.804
    4POM   C153  153   3.051  -1.295  -0.834
    4POM   N154  154   3.278  -1.202  -0.834
    4POM   C155  155   3.024  -0.942  -0.789
    4POM   C156  156   2.973  -0.826  -0.849
    4POM   C157  157   3.003  -0.613  -1.139
    4POM   H158  158   3.095  -0.280  -1.406
    4POM   H159  159   2.928  -0.336  -1.420
    4POM   H160  160   2.981  -0.239  -1.277
    4POM   H161  161   2.784  -0.371  -1.233
    4POM   H162  162   2.636  -0.505  -1.095
    4POM   H163  163   2.715  -0.916  -1.083
    4POM   H164  164   2.562  -1.056  -0.951
    4POM   H165  165   2.445  -0.964  -0.758
    4POM   H166  166   2.634  -0.581  -0.826
    4POM   H167  167   3.030  -0.906  -1.174
    4POM   H168  168   3.101  -1.112  -1.072
    4POM   H169  169   3.135  -1.158  -0.695
    4POM   H170  170   3.089  -1.382  -0.779
    4POM   H171  171   3.054  -1.321  -0.941
    4POM   H172  172   2.946  -1.280  -0.806
    4POM   H173  173   3.316  -1.270  -0.769
    4POM   H174  174   3.019  -0.951  -0.680
    4POM   H175  175   2.929  -0.749  -0.787
    4POM   H176  176   3.107  -0.644  -1.154
    5CAP   C177  177  -0.381   0.525   0.234
    5CAP   O178  178  -0.365   0.509   0.092
    5CAP   H179  179  -0.466   0.467   0.271
    5CAP   H180  180  -0.398   0.631   0.253
    5CAP   H181  181  -0.291   0.500   0.290
    6CAP   C182  182   3.453  -1.549  -1.081
    6CAP   C183  183   3.388  -1.412  -1.105
    6CAP   C184  184   3.485  -1.328  -1.190
    6CAP   C185  185   3.256  -1.435  -1.180
    6CAP   O186  186   3.365  -1.356  -0.972
    6CAP   C187  187   3.320  -1.229  -0.962
    6CAP   O188  188   3.314  -1.152  -1.055
    6CAP   H189  189   3.476  -1.600  -1.175
    6CAP   H190  190   3.546  -1.539  -1.024
    6CAP   H191  191   3.387  -1.614  -1.022
    6CAP   H192  192   3.574  -1.302  -1.132
    6CAP   H193  193   3.440  -1.235  -1.224
    6CAP   H194  194   3.516  -1.382  -1.280
    6CAP   H195  195   3.185  -1.491  -1.119
    6CAP   H196  196   3.207  -1.341  -1.207
    6CAP   H197  197   3.273  -1.491  -1.273
  5.0000000  5.0000000  5.0000000
