Generated by Interchange
3367
    1pmp_t    C    1   1.103   0.928   1.224
    1pmp_t    O    2   1.068   0.820   1.139
    1pmp_t    C    3   0.944   0.765   1.154
    1pmp_t    C    4   0.846   0.808   1.244
    1pmp_t    C    5   0.721   0.745   1.251
    1pmp_t    C    6   0.617   0.790   1.346
    1pmp_t    C    7   0.650   0.821   1.479
    1pmp_t    C    8   0.552   0.861   1.570
    1pmp_t    C    9   0.418   0.870   1.530
    1pmp_t    C   10   0.316   0.899   1.634
    1pmp_t    O   11   0.343   0.923   1.751
    1pmp_t    C   12   0.384   0.841   1.398
    1pmp_t    C   13   0.483   0.802   1.307
    1pmp_t    C   14   0.696   0.637   1.164
    1pmp_t    C   15   0.792   0.592   1.072
    1pmp_t    C   16   0.761   0.483   0.978
    1pmp_t    C   17   0.698   0.364   1.020
    1pmp_t    C   18   0.668   0.261   0.930
    1pmp_t    C   19   0.698   0.275   0.794
    1pmp_t    C   20   0.675   0.160   0.697
    1pmp_t    C   21   0.578   0.196   0.585
    1pmp_t    N   22   0.804   0.105   0.653
    1pmp_t    C   23   0.757   0.395   0.752
    1pmp_t    C   24   0.790   0.496   0.842
    1pmp_t    C   25   0.916   0.658   1.069
    1pmp_t    H   26   1.103   0.897   1.329
    1pmp_t    H   27   1.205   0.959   1.198
    1pmp_t    H   28   1.037   1.014   1.207
    1pmp_t    H   29   0.865   0.893   1.310
    1pmp_t    H   30   0.752   0.810   1.515
    1pmp_t    H   31   0.580   0.882   1.674
    1pmp_t    H   32   0.281   0.846   1.364
    1pmp_t    H   33   0.453   0.779   1.205
    1pmp_t    H   34   0.599   0.587   1.168
    1pmp_t    H   35   0.672   0.350   1.125
    1pmp_t    H   36   0.620   0.171   0.968
    1pmp_t    H   37   0.629   0.077   0.753
    1pmp_t    H   38   0.482   0.228   0.627
    1pmp_t    H   39   0.614   0.277   0.522
    1pmp_t    H   40   0.559   0.109   0.520
    1pmp_t    H   41   0.849   0.056   0.728
    1pmp_t    H   42   0.780   0.411   0.646
    1pmp_t    H   43   0.838   0.585   0.804
    1pmp_t    H   44   0.993   0.626   0.999
    1pmp_t    C   45   1.734   0.427   0.533
    1pmp_t    O   46   1.741   0.452   0.673
    1pmp_t    C   47   1.627   0.431   0.745
    1pmp_t    C   48   1.505   0.387   0.695
    1pmp_t    C   49   1.393   0.368   0.779
    1pmp_t    C   50   1.265   0.319   0.727
    1pmp_t    C   51   1.212   0.368   0.607
    1pmp_t    C   52   1.091   0.319   0.556
    1pmp_t    C   53   1.020   0.219   0.624
    1pmp_t    C   54   0.885   0.181   0.571
    1pmp_t    O   55   0.848   0.225   0.463
    1pmp_t    C   56   1.071   0.172   0.746
    1pmp_t    C   57   1.192   0.221   0.795
    1pmp_t    C   58   1.409   0.397   0.917
    1pmp_t    C   59   1.531   0.440   0.970
    1pmp_t    C   60   1.546   0.461   1.116
    1pmp_t    C   61   1.449   0.531   1.190
    1pmp_t    C   62   1.464   0.550   1.328
    1pmp_t    C   63   1.575   0.497   1.396
    1pmp_t    C   64   1.596   0.526   1.544
    1pmp_t    C   65   1.602   0.399   1.629
    1pmp_t    N   66   1.710   0.616   1.561
    1pmp_t    C   67   1.669   0.424   1.322
    1pmp_t    C   68   1.656   0.408   1.184
    1pmp_t    C   69   1.639   0.457   0.882
    1pmp_t    H   70   1.662   0.494   0.485
    1pmp_t    H   71   1.833   0.449   0.491
    1pmp_t    H   72   1.712   0.322   0.513
    1pmp_t    H   73   1.493   0.364   0.589
    1pmp_t    H   74   1.262   0.448   0.553
    1pmp_t    H   75   1.051   0.362   0.464
    1pmp_t    H   76   1.019   0.099   0.807
    1pmp_t    H   77   1.229   0.180   0.890
    1pmp_t    H   78   1.324   0.382   0.983
    1pmp_t    H   79   1.362   0.572   1.141
    1pmp_t    H   80   1.388   0.606   1.382
    1pmp_t    H   81   1.511   0.584   1.580
    1pmp_t    H   82   1.510   0.340   1.615
    1pmp_t    H   83   1.686   0.334   1.603
    1pmp_t    H   84   1.610   0.424   1.735
    1pmp_t    H   85   1.688   0.708   1.526
    1pmp_t    H   86   1.756   0.380   1.371
    1pmp_t    H   87   1.733   0.353   1.131
    1pmp_t    H   88   1.735   0.491   0.920
    1pmp_t    C   89   2.550   0.829   1.077
    1pmp_t    O   90   2.472   0.877   0.968
    1pmp_t    C   91   2.336   0.861   0.977
    1pmp_t    C   92   2.267   0.805   1.084
    1pmp_t    C   93   2.127   0.795   1.083
    1pmp_t    C   94   2.053   0.739   1.198
    1pmp_t    C   95   2.098   0.624   1.264
    1pmp_t    C   96   2.029   0.574   1.376
    1pmp_t    C   97   1.914   0.637   1.423
    1pmp_t    C   98   1.839   0.571   1.535
    1pmp_t    O   99   1.887   0.473   1.591
    1pmp_t    C  100   1.867   0.750   1.356
    1pmp_t    C  101   1.937   0.801   1.245
    1pmp_t    C  102   2.058   0.843   0.970
    1pmp_t    C  103   2.125   0.901   0.861
    1pmp_t    C  104   2.048   0.955   0.747
    1pmp_t    C  105   1.941   0.885   0.689
    1pmp_t    C  106   1.870   0.939   0.581
    1pmp_t    C  107   1.901   1.065   0.530
    1pmp_t    C  108   1.830   1.120   0.407
    1pmp_t    C  109   1.756   1.251   0.435
    1pmp_t    N  110   1.923   1.124   0.294
    1pmp_t    C  111   2.005   1.137   0.592
    1pmp_t    C  112   2.079   1.082   0.696
    1pmp_t    C  113   2.265   0.908   0.867
    1pmp_t    H  114   2.538   0.721   1.090
    1pmp_t    H  115   2.655   0.849   1.054
    1pmp_t    H  116   2.525   0.883   1.170
    1pmp_t    H  117   2.321   0.770   1.172
    1pmp_t    H  118   2.185   0.570   1.229
    1pmp_t    H  119   2.065   0.483   1.423
    1pmp_t    H  120   1.776   0.802   1.384
    1pmp_t    H  121   1.898   0.890   1.196
    1pmp_t    H  122   1.949   0.837   0.968
    1pmp_t    H  123   1.914   0.787   0.726
    1pmp_t    H  124   1.789   0.880   0.538
    1pmp_t    H  125   1.754   1.047   0.376
    1pmp_t    H  126   1.684   1.237   0.517
    1pmp_t    H  127   1.823   1.332   0.464
    1pmp_t    H  128   1.700   1.283   0.346
    1pmp_t    H  129   1.945   1.031   0.262
    1pmp_t    H  130   2.032   1.237   0.557
    1pmp_t    H  131   2.160   1.141   0.739
    1pmp_t    H  132   2.320   0.953   0.784
    1pmp_t    C  133   2.899   1.213   0.150
    1pmp_t    O  134   2.917   1.088   0.216
    1pmp_t    C  135   2.807   1.032   0.273
    1pmp_t    C  136   2.677   1.082   0.267
    1pmp_t    C  137   2.570   1.014   0.329
    1pmp_t    C  138   2.432   1.064   0.319
    1pmp_t    C  139   2.403   1.200   0.338
    1pmp_t    C  140   2.272   1.247   0.325
    1pmp_t    C  141   2.167   1.159   0.294
    1pmp_t    C  142   2.027   1.215   0.294
    1pmp_t    O  143   2.010   1.336   0.306
    1pmp_t    C  144   2.195   1.023   0.280
    1pmp_t    C  145   2.326   0.977   0.291
    1pmp_t    C  146   2.598   0.895   0.398
    1pmp_t    C  147   2.727   0.842   0.405
    1pmp_t    C  148   2.751   0.713   0.472
    1pmp_t    C  149   2.694   0.681   0.597
    1pmp_t    C  150   2.718   0.557   0.659
    1pmp_t    C  151   2.798   0.461   0.596
    1pmp_t    C  152   2.836   0.330   0.662
    1pmp_t    C  153   2.779   0.208   0.589
    1pmp_t    N  154   2.981   0.327   0.686
    1pmp_t    C  155   2.849   0.492   0.469
    1pmp_t    C  156   2.829   0.616   0.410
    1pmp_t    C  157   2.831   0.913   0.342
    1pmp_t    H  158   2.861   1.289   0.219
    1pmp_t    H  159   2.997   1.247   0.114
    1pmp_t    H  160   2.834   1.202   0.063
    1pmp_t    H  161   2.655   1.172   0.212
    1pmp_t    H  162   2.481   1.270   0.365
    1pmp_t    H  163   2.252   1.352   0.343
    1pmp_t    H  164   2.118   0.949   0.261
    1pmp_t    H  165   2.344   0.870   0.277
    1pmp_t    H  166   2.516   0.840   0.445
    1pmp_t    H  167   2.632   0.753   0.649
    1pmp_t    H  168   2.674   0.537   0.756
    1pmp_t    H  169   2.792   0.329   0.762
    1pmp_t    H  170   2.670   0.215   0.582
    1pmp_t    H  171   2.815   0.199   0.486
    1pmp_t    H  172   2.804   0.116   0.641
    1pmp_t    H  173   3.011   0.394   0.755
    1pmp_t    H  174   2.909   0.420   0.416
    1pmp_t    H  175   2.875   0.635   0.313
    1pmp_t    H  176   2.933   0.875   0.346
    1pmp_t    C  177   0.096   0.836   1.678
    1pmp_t    O  178   0.193   0.878   1.582
    1pmp_t    H  179   0.108   0.728   1.691
    1pmp_t    H  180  -0.003   0.854   1.637
    1pmp_t    H  181   0.105   0.887   1.774
    1pmp_t    C  182   3.070   0.091   0.300
    1pmp_t    C  183   3.128   0.215   0.371
    1pmp_t    C  184   3.276   0.191   0.399
    1pmp_t    C  185   3.109   0.336   0.278
    1pmp_t    O  186   3.047   0.229   0.491
    1pmp_t    C  187   3.078   0.315   0.590
    1pmp_t    O  188   3.182   0.380   0.599
    1pmp_t    H  189   3.121   0.073   0.204
    1pmp_t    H  190   3.081   0.002   0.362
    1pmp_t    H  191   2.963   0.103   0.280
    1pmp_t    H  192   3.289   0.110   0.472
    1pmp_t    H  193   3.325   0.280   0.441
    1pmp_t    H  194   3.330   0.166   0.308
    1pmp_t    H  195   3.004   0.346   0.249
    1pmp_t    H  196   3.138   0.429   0.327
    1pmp_t    H  197   3.167   0.326   0.186
    2MOL1    Cl  198   4.503   0.384   2.697
    2MOL1     C  199   4.336   0.348   2.652
    2MOL1    Cl  200   4.231   0.351   2.795
    2MOL1    Cl  201   4.278   0.462   2.530
    2MOL1     H  202   4.333   0.247   2.609
    2MOL1    Cl  203   1.512   2.524   4.358
    2MOL1     C  204   1.681   2.473   4.350
    2MOL1    Cl  205   1.725   2.431   4.183
    2MOL1    Cl  206   1.788   2.600   4.413
    2MOL1     H  207   1.693   2.384   4.412
    2MOL1    Cl  208   1.997   2.339   0.989
    2MOL1     C  209   1.827   2.354   1.037
    2MOL1    Cl  210   1.724   2.252   0.936
    2MOL1    Cl  211   1.807   2.312   1.208
    2MOL1     H  212   1.796   2.458   1.024
    2MOL1    Cl  213   2.542   0.536   3.775
    2MOL1     C  214   2.662   0.659   3.817
    2MOL1    Cl  215   2.604   0.760   3.950
    2MOL1    Cl  216   2.817   0.584   3.859
    2MOL1     H  217   2.678   0.723   3.730
    2MOL1    Cl  218   2.077   1.609   2.711
    2MOL1     C  219   2.195   1.742   2.716
    2MOL1    Cl  220   2.113   1.896   2.750
    2MOL1    Cl  221   2.320   1.710   2.838
    2MOL1     H  222   2.243   1.750   2.619
    2MOL1    Cl  223   5.186   1.291   0.471
    2MOL1     C  224   5.030   1.287   0.555
    2MOL1    Cl  225   4.928   1.157   0.491
    2MOL1    Cl  226   5.055   1.266   0.730
    2MOL1     H  227   4.979   1.382   0.538
    2MOL1    Cl  228   2.738   0.828   2.610
    2MOL1     C  229   2.894   0.752   2.575
    2MOL1    Cl  230   2.913   0.728   2.401
    2MOL1    Cl  231   3.027   0.850   2.639
    2MOL1     H  232   2.897   0.654   2.624
    2MOL1    Cl  233   3.623   4.193   4.799
    2MOL1     C  234   3.698   4.040   4.753
    2MOL1    Cl  235   3.862   4.066   4.691
    2MOL1    Cl  236   3.700   3.927   4.890
    2MOL1     H  237   3.638   3.995   4.673
    2MOL1    Cl  238   0.786   3.958   3.467
    2MOL1     C  239   0.783   4.135   3.468
    2MOL1    Cl  240   0.939   4.200   3.524
    2MOL1    Cl  241   0.744   4.198   3.307
    2MOL1     H  242   0.705   4.168   3.537
    2MOL1    Cl  243   3.979   1.377   2.403
    2MOL1     C  244   3.954   1.341   2.575
    2MOL1    Cl  245   3.961   1.167   2.604
    2MOL1    Cl  246   4.075   1.426   2.673
    2MOL1     H  247   3.855   1.377   2.603
    2MOL1    Cl  248   4.987   3.181   4.341
    2MOL1     C  249   4.911   3.114   4.486
    2MOL1    Cl  250   4.747   3.057   4.450
    2MOL1    Cl  251   5.009   2.983   4.553
    2MOL1     H  252   4.904   3.194   4.561
    2MOL1    Cl  253   0.614   2.991   1.381
    2MOL1     C  254   0.547   2.875   1.497
    2MOL1    Cl  255   0.661   2.744   1.528
    2MOL1    Cl  256   0.503   2.957   1.649
    2MOL1     H  257   0.456   2.832   1.454
    2MOL1    Cl  258   1.264   1.953   2.354
    2MOL1     C  259   1.417   2.038   2.377
    2MOL1    Cl  260   1.543   1.971   2.273
    2MOL1    Cl  261   1.397   2.212   2.346
    2MOL1     H  262   1.448   2.026   2.481
    2MOL1    Cl  263   4.352   4.377   0.576
    2MOL1     C  264   4.288   4.429   0.733
    2MOL1    Cl  265   4.408   4.523   0.822
    2MOL1    Cl  266   4.139   4.523   0.711
    2MOL1     H  267   4.264   4.340   0.791
    2MOL1    Cl  268   2.690   5.262   3.883
    2MOL1     C  269   2.671   5.265   3.707
    2MOL1    Cl  270   2.709   5.107   3.636
    2MOL1    Cl  271   2.508   5.316   3.662
    2MOL1     H  272   2.742   5.338   3.666
    2MOL1    Cl  273   2.728   1.843   3.084
    2MOL1     C  274   2.886   1.900   3.140
    2MOL1    Cl  275   2.916   1.847   3.307
    2MOL1    Cl  276   3.015   1.843   3.033
    2MOL1     H  277   2.886   2.010   3.138
    2MOL1    Cl  278   0.744   2.974   4.922
    2MOL1     C  279   0.686   3.121   5.000
    2MOL1    Cl  280   0.509   3.121   5.011
    2MOL1    Cl  281   0.757   3.139   5.162
    2MOL1     H  282   0.717   3.207   4.940
    2MOL1    Cl  283   4.509   3.421   2.243
    2MOL1     C  284   4.581   3.546   2.140
    2MOL1    Cl  285   4.544   3.707   2.203
    2MOL1    Cl  286   4.756   3.522   2.128
    2MOL1     H  287   4.538   3.537   2.040
    2MOL1    Cl  288   5.223   3.532   4.951
    2MOL1     C  289   5.220   3.699   4.893
    2MOL1    Cl  290   5.339   3.722   4.764
    2MOL1    Cl  291   5.057   3.742   4.837
    2MOL1     H  292   5.246   3.765   4.976
    2MOL1    Cl  293   2.032   1.168   3.628
    2MOL1     C  294   2.152   1.150   3.500
    2MOL1    Cl  295   2.080   1.078   3.356
    2MOL1    Cl  296   2.225   1.307   3.461
    2MOL1     H  297   2.232   1.084   3.536
    2MOL1    Cl  298   1.490   2.011   2.989
    2MOL1     C  299   1.468   1.932   2.832
    2MOL1    Cl  300   1.313   1.846   2.826
    2MOL1    Cl  301   1.478   2.051   2.701
    2MOL1     H  302   1.548   1.860   2.818
    2MOL1    Cl  303   2.976   4.681   4.970
    2MOL1     C  304   3.055   4.724   4.818
    2MOL1    Cl  305   2.968   4.855   4.737
    2MOL1    Cl  306   3.224   4.770   4.846
    2MOL1     H  307   3.055   4.636   4.752
    2MOL1    Cl  308   2.609   2.360   1.930
    2MOL1     C  309   2.708   2.474   2.024
    2MOL1    Cl  310   2.872   2.482   1.959
    2MOL1    Cl  311   2.633   2.634   2.026
    2MOL1     H  312   2.713   2.438   2.127
    2MOL1    Cl  313   2.817   1.927   5.213
    2MOL1     C  314   2.730   2.009   5.082
    2MOL1    Cl  315   2.587   2.092   5.145
    2MOL1    Cl  316   2.837   2.123   4.999
    2MOL1     H  317   2.697   1.934   5.010
    2MOL1    Cl  318   4.819   0.160   1.384
    2MOL1     C  319   4.826   0.279   1.254
    2MOL1    Cl  320   4.666   0.300   1.180
    2MOL1    Cl  321   4.888   0.433   1.314
    2MOL1     H  322   4.894   0.242   1.177
    2MOL1    Cl  323   3.182   0.977   1.185
    2MOL1     C  324   3.051   0.869   1.234
    2MOL1    Cl  325   3.060   0.836   1.408
    2MOL1    Cl  326   2.894   0.939   1.192
    2MOL1     H  327   3.062   0.775   1.180
    2MOL1    Cl  328   4.062   3.248   1.839
    2MOL1     C  329   3.899   3.242   1.909
    2MOL1    Cl  330   3.866   3.080   1.974
    2MOL1    Cl  331   3.880   3.365   2.035
    2MOL1     H  332   3.827   3.262   1.829
    2MOL1    Cl  333   0.940   0.732   3.590
    2MOL1     C  334   0.977   0.903   3.617
    2MOL1    Cl  335   0.949   0.947   3.787
    2MOL1    Cl  336   1.144   0.940   3.570
    2MOL1     H  337   0.910   0.963   3.555
    2MOL1    Cl  338   0.539   5.086   4.188
    2MOL1     C  339   0.692   5.167   4.150
    2MOL1    Cl  340   0.794   5.062   4.049
    2MOL1    Cl  341   0.662   5.322   4.069
    2MOL1     H  342   0.745   5.187   4.244
    2MOL1    Cl  343   2.745   3.737   3.543
    2MOL1     C  344   2.868   3.647   3.452
    2MOL1    Cl  345   2.793   3.557   3.319
    2MOL1    Cl  346   2.992   3.757   3.391
    2MOL1     H  347   2.915   3.576   3.520
    2MOL1    Cl  348   0.505   0.810   2.320
    2MOL1     C  349   0.447   0.919   2.446
    2MOL1    Cl  350   0.489   1.087   2.407
    2MOL1    Cl  351   0.271   0.902   2.467
    2MOL1     H  352   0.495   0.892   2.540
    2MOL1    Cl  353   4.867   2.178   2.140
    2MOL1     C  354   4.952   2.023   2.137
    2MOL1    Cl  355   4.865   1.907   2.035
    2MOL1    Cl  356   5.118   2.043   2.079
    2MOL1     H  357   4.955   1.983   2.239
    2MOL1    Cl  358   1.446   3.599   2.262
    2MOL1     C  359   1.275   3.563   2.237
    2MOL1    Cl  360   1.184   3.584   2.388
    2MOL1    Cl  361   1.208   3.667   2.109
    2MOL1     H  362   1.265   3.459   2.205
    2MOL1    Cl  363   4.048   1.311   2.015
    2MOL1     C  364   3.911   1.419   2.045
    2MOL1    Cl  365   3.881   1.522   1.904
    2MOL1    Cl  366   3.766   1.326   2.087
    2MOL1     H  367   3.936   1.484   2.130
    2MOL1    Cl  368   0.898   2.122   2.073
    2MOL1     C  369   0.831   2.261   2.159
    2MOL1    Cl  370   0.692   2.328   2.072
    2MOL1    Cl  371   0.784   2.216   2.324
    2MOL1     H  372   0.908   2.338   2.166
    2MOL1    Cl  373   2.407   3.807   1.730
    2MOL1     C  374   2.234   3.808   1.767
    2MOL1    Cl  375   2.188   3.659   1.852
    2MOL1    Cl  376   2.192   3.950   1.864
    2MOL1     H  377   2.179   3.812   1.673
    2MOL1    Cl  378   0.943   4.452   1.273
    2MOL1     C  379   0.996   4.556   1.140
    2MOL1    Cl  380   1.035   4.719   1.201
    2MOL1    Cl  381   1.136   4.486   1.057
    2MOL1     H  382   0.914   4.565   1.068
    2MOL1    Cl  383   0.142   1.382   4.892
    2MOL1     C  384   0.274   1.299   4.808
    2MOL1    Cl  385   0.390   1.232   4.924
    2MOL1    Cl  386   0.210   1.172   4.703
    2MOL1     H  387   0.326   1.372   4.745
    2MOL1    Cl  388   1.178   3.814   4.791
    2MOL1     C  389   1.335   3.896   4.790
    2MOL1    Cl  390   1.463   3.783   4.741
    2MOL1    Cl  391   1.332   4.037   4.682
    2MOL1     H  392   1.357   3.930   4.891
    2MOL1    Cl  393   0.481   0.786   4.909
    2MOL1     C  394   0.320   0.737   4.853
    2MOL1    Cl  395   0.206   0.873   4.866
    2MOL1    Cl  396   0.328   0.678   4.686
    2MOL1     H  397   0.285   0.656   4.917
    2MOL1    Cl  398   1.142   4.412   2.102
    2MOL1     C  399   1.069   4.295   2.212
    2MOL1    Cl  400   1.166   4.277   2.359
    2MOL1    Cl  401   0.903   4.343   2.252
    2MOL1     H  402   1.065   4.198   2.161
    2MOL1    Cl  403   3.730   3.957   0.209
    2MOL1     C  404   3.684   4.126   0.180
    2MOL1    Cl  405   3.803   4.206   0.076
    2MOL1    Cl  406   3.522   4.134   0.107
    2MOL1     H  407   3.681   4.177   0.276
    2MOL1    Cl  408   1.667   1.644   1.282
    2MOL1     C  409   1.593   1.552   1.414
    2MOL1    Cl  410   1.660   1.388   1.421
    2MOL1    Cl  411   1.617   1.636   1.569
    2MOL1     H  412   1.486   1.545   1.396
    2MOL1    Cl  413   3.538   0.546   2.246
    2MOL1     C  414   3.435   0.679   2.302
    2MOL1    Cl  415   3.532   0.803   2.383
    2MOL1    Cl  416   3.344   0.749   2.167
    2MOL1     H  417   3.363   0.639   2.374
    2MOL1    Cl  418   0.139   0.514   1.877
    2MOL1     C  419   0.178   0.610   2.021
    2MOL1    Cl  420   0.336   0.688   2.003
    2MOL1    Cl  421   0.052   0.731   2.052
    2MOL1     H  422   0.183   0.543   2.107
    2MOL1    Cl  423   3.913   2.790   1.175
    2MOL1     C  424   3.932   2.638   1.085
    2MOL1    Cl  425   3.951   2.671   0.912
    2MOL1    Cl  426   4.069   2.546   1.147
    2MOL1     H  427   3.841   2.579   1.099
    2MOL1    Cl  428   4.954   1.623   3.358
    2MOL1     C  429   4.958   1.792   3.411
    2MOL1    Cl  430   4.811   1.832   3.502
    2MOL1    Cl  431   5.103   1.824   3.508
    2MOL1     H  432   4.961   1.856   3.322
    2MOL1    Cl  433   1.872   3.508   2.365
    2MOL1     C  434   2.032   3.576   2.396
    2MOL1    Cl  435   2.109   3.627   2.245
    2MOL1    Cl  436   2.021   3.712   2.509
    2MOL1     H  437   2.094   3.499   2.442
    2MOL1    Cl  438   0.499   0.320   4.740
    2MOL1     C  439   0.572   0.260   4.889
    2MOL1    Cl  440   0.505   0.101   4.932
    2MOL1    Cl  441   0.749   0.250   4.873
    2MOL1     H  442   0.549   0.330   4.970
    2MOL1    Cl  443   4.409   0.620   4.458
    2MOL1     C  444   4.569   0.682   4.503
    2MOL1    Cl  445   4.574   0.858   4.485
    2MOL1    Cl  446   4.610   0.635   4.669
    2MOL1     H  447   4.643   0.638   4.435
    2MOL1    Cl  448   4.007   4.756   1.657
    2MOL1     C  449   3.847   4.697   1.609
    2MOL1    Cl  450   3.786   4.788   1.470
    2MOL1    Cl  451   3.854   4.524   1.572
    2MOL1     H  452   3.778   4.712   1.692
    2MOL1    Cl  453   4.493   4.533   4.737
    2MOL1     C  454   4.478   4.573   4.909
    2MOL1    Cl  455   4.494   4.428   5.008
    2MOL1    Cl  456   4.598   4.694   4.955
    2MOL1     H  457   4.378   4.616   4.926
    2MOL1    Cl  458   4.182   4.322   1.767
    2MOL1     C  459   4.011   4.368   1.777
    2MOL1    Cl  460   3.924   4.262   1.889
    2MOL1    Cl  461   3.995   4.538   1.826
    2MOL1     H  462   3.967   4.357   1.677
    2MOL1    Cl  463   3.959   4.062   3.211
    2MOL1     C  464   3.855   4.060   3.354
    2MOL1    Cl  465   3.952   4.047   3.502
    2MOL1    Cl  466   3.754   4.206   3.359
    2MOL1     H  467   3.789   3.973   3.348
    2MOL1    Cl  468   0.264   0.772   3.397
    2MOL1     C  469   0.370   0.914   3.401
    2MOL1    Cl  470   0.358   0.997   3.556
    2MOL1    Cl  471   0.538   0.867   3.368
    2MOL1     H  472   0.338   0.983   3.322
    2MOL1    Cl  473   3.194   2.658   2.780
    2MOL1     C  474   3.041   2.650   2.869
    2MOL1    Cl  475   2.985   2.812   2.913
    2MOL1    Cl  476   2.918   2.566   2.773
    2MOL1     H  477   3.058   2.593   2.961
    2MOL1    Cl  478   3.823   2.433   2.519
    2MOL1     C  479   3.678   2.505   2.447
    2MOL1    Cl  480   3.593   2.388   2.346
    2MOL1    Cl  481   3.571   2.568   2.573
    2MOL1     H  482   3.710   2.589   2.384
    2MOL1    Cl  483   4.945   0.542   2.379
    2MOL1     C  484   5.023   0.691   2.435
    2MOL1    Cl  485   5.192   0.697   2.382
    2MOL1    Cl  486   4.934   0.833   2.376
    2MOL1     H  487   5.021   0.692   2.544
    2MOL1    Cl  488   0.243   0.001   3.068
    2MOL1     C  489   0.392   0.092   3.098
    2MOL1    Cl  490   0.528   0.020   3.011
    2MOL1    Cl  491   0.371   0.262   3.052
    2MOL1     H  492   0.413   0.089   3.206
    2MOL1    Cl  493   5.339   3.580   1.337
    2MOL1     C  494   5.211   3.702   1.332
    2MOL1    Cl  495   5.091   3.673   1.459
    2MOL1    Cl  496   5.279   3.865   1.347
    2MOL1     H  497   5.160   3.695   1.235
    2MOL1    Cl  498   1.554   3.326   1.122
    2MOL1     C  499   1.508   3.318   0.952
    2MOL1    Cl  500   1.643   3.368   0.848
    2MOL1    Cl  501   1.454   3.155   0.909
    2MOL1     H  502   1.425   3.387   0.935
    2MOL1    Cl  503   2.823   4.587   4.146
    2MOL1     C  504   2.686   4.488   4.197
    2MOL1    Cl  505   2.533   4.563   4.150
    2MOL1    Cl  506   2.699   4.324   4.129
    2MOL1     H  507   2.688   4.480   4.306
    2MOL1    Cl  508   4.790   1.550   0.367
    2MOL1     C  509   4.684   1.683   0.318
    2MOL1    Cl  510   4.575   1.728   0.450
    2MOL1    Cl  511   4.780   1.823   0.266
    2MOL1     H  512   4.624   1.650   0.233
    2MOL1    Cl  513   2.822   4.640   4.668
    2MOL1     C  514   2.907   4.704   4.526
    2MOL1    Cl  515   2.850   4.624   4.379
    2MOL1    Cl  516   2.885   4.879   4.514
    2MOL1     H  517   3.013   4.684   4.538
    2MOL1    Cl  518   3.713   3.922   2.053
    2MOL1     C  519   3.777   4.087   2.047
    2MOL1    Cl  520   3.727   4.178   2.191
    2MOL1    Cl  521   3.953   4.085   2.033
    2MOL1     H  522   3.736   4.136   1.959
    2MOL1    Cl  523   1.052   0.316   3.410
    2MOL1     C  524   0.943   0.177   3.393
    2MOL1    Cl  525   0.831   0.202   3.257
    2MOL1    Cl  526   1.036   0.028   3.370
    2MOL1     H  527   0.884   0.168   3.484
    2MOL1    Cl  528   0.901   1.258   2.597
    2MOL1     C  529   0.959   1.421   2.633
    2MOL1    Cl  530   0.842   1.509   2.733
    2MOL1    Cl  531   1.116   1.414   2.715
    2MOL1     H  532   0.972   1.475   2.539
    2MOL1    Cl  533   1.034   0.803   2.422
    2MOL1     C  534   1.183   0.769   2.334
    2MOL1    Cl  535   1.250   0.917   2.263
    2MOL1    Cl  536   1.302   0.692   2.440
    2MOL1     H  537   1.160   0.699   2.253
    2MOL1    Cl  538   3.001   1.030   3.908
    2MOL1     C  539   2.846   1.116   3.920
    2MOL1    Cl  540   2.834   1.241   3.795
    2MOL1    Cl  541   2.711   1.002   3.908
    2MOL1     H  542   2.842   1.165   4.018
    2MOL1    Cl  543   4.475   5.215   1.252
    2MOL1     C  544   4.635   5.139   1.252
    2MOL1    Cl  545   4.708   5.147   1.413
    2MOL1    Cl  546   4.623   4.971   1.197
    2MOL1     H  547   4.699   5.193   1.182
    2MOL1    Cl  548   0.660   4.535   0.340
    2MOL1     C  549   0.521   4.426   0.333
    2MOL1    Cl  550   0.425   4.456   0.187
    2MOL1    Cl  551   0.573   4.257   0.339
    2MOL1     H  552   0.458   4.445   0.420
    2MOL1    Cl  553   2.270   3.494   2.179
    2MOL1     C  554   2.437   3.440   2.206
    2MOL1    Cl  555   2.522   3.551   2.315
    2MOL1    Cl  556   2.439   3.275   2.271
    2MOL1     H  557   2.489   3.439   2.109
    2MOL1    Cl  558   0.249   3.219   1.010
    2MOL1     C  559   0.368   3.150   1.121
    2MOL1    Cl  560   0.399   3.261   1.256
    2MOL1    Cl  561   0.313   2.993   1.181
    2MOL1     H  562   0.462   3.136   1.067
    2MOL1    Cl  563   3.520   3.648   1.078
    2MOL1     C  564   3.352   3.618   1.031
    2MOL1    Cl  565   3.250   3.757   1.070
    2MOL1    Cl  566   3.342   3.579   0.858
    2MOL1     H  567   3.315   3.532   1.088
    2MOL1    Cl  568   3.084   3.063   4.929
    2MOL1     C  569   3.242   2.995   4.974
    2MOL1    Cl  570   3.326   3.103   5.087
    2MOL1    Cl  571   3.222   2.834   5.044
    2MOL1     H  572   3.302   2.987   4.884
    2MOL1    Cl  573   1.049   1.428   1.764
    2MOL1     C  574   1.062   1.257   1.810
    2MOL1    Cl  575   0.966   1.225   1.956
    2MOL1    Cl  576   1.010   1.153   1.677
    2MOL1     H  577   1.166   1.236   1.833
    2MOL1    Cl  578   2.060   2.818   4.731
    2MOL1     C  579   1.975   2.662   4.730
    2MOL1    Cl  580   2.089   2.530   4.700
    2MOL1    Cl  581   1.889   2.638   4.882
    2MOL1     H  582   1.902   2.664   4.649
    2MOL1    Cl  583   2.102   4.010   4.208
    2MOL1     C  584   2.245   4.113   4.188
    2MOL1    Cl  585   2.222   4.267   4.273
    2MOL1    Cl  586   2.390   4.031   4.246
    2MOL1     H  587   2.257   4.134   4.082
    2MOL1    Cl  588   0.636   0.441   0.143
    2MOL1     C  589   0.786   0.348   0.133
    2MOL1    Cl  590   0.897   0.395   0.263
    2MOL1    Cl  591   0.753   0.174   0.139
    2MOL1     H  592   0.834   0.371   0.037
    2MOL1    Cl  593   1.021   0.645   2.823
    2MOL1     C  594   1.125   0.687   2.960
    2MOL1    Cl  595   1.053   0.817   3.056
    2MOL1    Cl  596   1.154   0.544   3.061
    2MOL1     H  597   1.221   0.722   2.921
    2MOL1    Cl  598   4.514   3.357   3.293
    2MOL1     C  599   4.534   3.183   3.270
    2MOL1    Cl  600   4.686   3.148   3.186
    2MOL1    Cl  601   4.527   3.098   3.425
    2MOL1     H  602   4.451   3.147   3.207
    2MOL1    Cl  603   3.318   4.866   5.254
    2MOL1     C  604   3.193   4.742   5.235
    2MOL1    Cl  605   3.174   4.699   5.064
    2MOL1    Cl  606   3.232   4.599   5.331
    2MOL1     H  607   3.098   4.783   5.271
    2MOL1    Cl  608   1.957   0.244   3.714
    2MOL1     C  609   1.847   0.185   3.589
    2MOL1    Cl  610   1.715   0.092   3.662
    2MOL1    Cl  611   1.783   0.319   3.493
    2MOL1     H  612   1.903   0.119   3.522
    2MOL1    Cl  613   0.977   0.609   4.218
    2MOL1     C  614   1.033   0.771   4.173
    2MOL1    Cl  615   1.049   0.874   4.316
    2MOL1    Cl  616   1.186   0.761   4.085
    2MOL1     H  617   0.958   0.816   4.107
    2MOL1    Cl  618   2.195   5.233   2.430
    2MOL1     C  619   2.042   5.147   2.414
    2MOL1    Cl  620   1.931   5.236   2.308
    2MOL1    Cl  621   2.068   4.983   2.352
    2MOL1     H  622   1.996   5.139   2.513
    2MOL1    Cl  623   1.335   1.138   2.406
    2MOL1     C  624   1.249   1.293   2.404
    2MOL1    Cl  625   1.259   1.368   2.245
    2MOL1    Cl  626   1.079   1.270   2.451
    2MOL1     H  627   1.296   1.359   2.477
    2MOL1    Cl  628   1.558   1.620   0.336
    2MOL1     C  629   1.606   1.645   0.168
    2MOL1    Cl  630   1.763   1.728   0.160
    2MOL1    Cl  631   1.614   1.490   0.081
    2MOL1     H  632   1.531   1.708   0.119
    2MOL1    Cl  633   4.143   3.212   2.363
    2MOL1     C  634   4.240   3.110   2.471
    2MOL1    Cl  635   4.271   3.194   2.624
    2MOL1    Cl  636   4.159   2.956   2.500
    2MOL1     H  637   4.336   3.090   2.422
    2MOL1    Cl  638   3.044   4.876   1.289
    2MOL1     C  639   2.898   4.889   1.388
    2MOL1    Cl  640   2.755   4.838   1.296
    2MOL1    Cl  641   2.914   4.792   1.536
    2MOL1     H  642   2.884   4.994   1.417
    2MOL1    Cl  643   4.298   2.650   3.287
    2MOL1     C  644   4.320   2.482   3.335
    2MOL1    Cl  645   4.233   2.447   3.486
    2MOL1    Cl  646   4.267   2.372   3.206
    2MOL1     H  647   4.427   2.464   3.353
    2MOL1    Cl  648   4.145   0.835   3.731
    2MOL1     C  649   4.307   0.780   3.682
    2MOL1    Cl  650   4.297   0.668   3.546
    2MOL1    Cl  651   4.409   0.919   3.641
    2MOL1     H  652   4.352   0.728   3.767
    2MOL1    Cl  653   4.174   0.926   3.329
    2MOL1     C  654   4.195   1.102   3.315
    2MOL1    Cl  655   4.100   1.186   3.438
    2MOL1    Cl  656   4.366   1.145   3.328
    2MOL1     H  657   4.159   1.132   3.216
    2MOL1    Cl  658   2.171   0.107   3.455
    2MOL1     C  659   2.105   0.228   3.344
    2MOL1    Cl  660   2.235   0.303   3.249
    2MOL1    Cl  661   1.985   0.154   3.236
    2MOL1     H  662   2.056   0.306   3.402
    2MOL1    Cl  663   0.380   4.560   3.580
    2MOL1     C  664   0.516   4.519   3.686
    2MOL1    Cl  665   0.467   4.525   3.856
    2MOL1    Cl  666   0.580   4.358   3.646
    2MOL1     H  667   0.595   4.592   3.671
    2MOL1    Cl  668   0.170   1.876   4.848
    2MOL1     C  669   0.317   1.942   4.776
    2MOL1    Cl  670   0.317   1.916   4.601
    2MOL1    Cl  671   0.334   2.114   4.814
    2MOL1     H  672   0.403   1.889   4.818
    2MOL1    Cl  673   1.003   4.964   5.227
    2MOL1     C  674   1.122   5.096   5.233
    2MOL1    Cl  675   1.277   5.042   5.167
    2MOL1    Cl  676   1.062   5.238   5.145
    2MOL1     H  677   1.137   5.124   5.338
    2MOL1    Cl  678   0.961   2.037   1.118
    2MOL1     C  679   0.835   2.158   1.090
    2MOL1    Cl  680   0.680   2.103   1.154
    2MOL1    Cl  681   0.881   2.314   1.162
    2MOL1     H  682   0.825   2.173   0.982
    2MOL1    Cl  683   4.750   1.716   2.487
    2MOL1     C  684   4.812   1.698   2.323
    2MOL1    Cl  685   4.933   1.568   2.315
    2MOL1    Cl  686   4.680   1.666   2.209
    2MOL1     H  687   4.861   1.791   2.294
    2MOL1    Cl  688   3.045   1.429   2.673
    2MOL1     C  689   2.917   1.328   2.603
    2MOL1    Cl  690   2.813   1.425   2.498
    2MOL1    Cl  691   2.987   1.192   2.514
    2MOL1     H  692   2.856   1.288   2.684
    2MOL1    Cl  693   3.295   0.421   2.630
    2MOL1     C  694   3.205   0.570   2.666
    2MOL1    Cl  695   3.300   0.676   2.771
    2MOL1    Cl  696   3.162   0.654   2.516
    2MOL1     H  697   3.113   0.543   2.718
    2MOL1    Cl  698   2.566   4.633   1.057
    2MOL1     C  699   2.401   4.667   1.111
    2MOL1    Cl  700   2.334   4.805   1.022
    2MOL1    Cl  701   2.298   4.524   1.091
    2MOL1     H  702   2.404   4.693   1.217
    2MOL1    Cl  703   0.706   3.367   4.134
    2MOL1     C  704   0.556   3.448   4.089
    2MOL1    Cl  705   0.572   3.529   3.932
    2MOL1    Cl  706   0.421   3.332   4.086
    2MOL1     H  707   0.534   3.524   4.165
    2MOL1    Cl  708   2.396   0.153   1.633
    2MOL1     C  709   2.517   0.125   1.758
    2MOL1    Cl  710   2.461   0.002   1.873
    2MOL1    Cl  711   2.671   0.077   1.686
    2MOL1     H  712   2.532   0.218   1.813
    2MOL1    Cl  713   2.635   4.864   3.619
    2MOL1     C  714   2.551   4.963   3.739
    2MOL1    Cl  715   2.439   4.864   3.834
    2MOL1    Cl  716   2.667   5.046   3.844
    2MOL1     H  717   2.493   5.039   3.685
    2MOL1    Cl  718   3.595   3.390   4.868
    2MOL1     C  719   3.647   3.539   4.789
    2MOL1    Cl  720   3.816   3.526   4.736
    2MOL1    Cl  721   3.542   3.578   4.652
    2MOL1     H  722   3.640   3.621   4.862
    2MOL1    Cl  723   1.867   0.251   4.932
    2MOL1     C  724   1.744   0.145   4.861
    2MOL1    Cl  725   1.587   0.227   4.856
    2MOL1    Cl  726   1.793   0.094   4.699
    2MOL1     H  727   1.734   0.056   4.924
    2MOL1    Cl  728   3.501   3.725   1.747
    2MOL1     C  729   3.410   3.770   1.892
    2MOL1    Cl  730   3.520   3.802   2.028
    2MOL1    Cl  731   3.308   3.911   1.860
    2MOL1     H  732   3.345   3.686   1.919
    2MOL1    Cl  733   0.223   2.850   2.129
    2MOL1     C  734   0.156   2.690   2.164
    2MOL1    Cl  735   0.021   2.654   2.056
    2MOL1    Cl  736   0.282   2.566   2.151
    2MOL1     H  737   0.119   2.691   2.267
    2MOL1    Cl  738   2.031   0.866   3.591
    2MOL1     C  739   1.860   0.912   3.593
    2MOL1    Cl  740   1.758   0.770   3.621
    2MOL1    Cl  741   1.831   1.036   3.716
    2MOL1     H  742   1.835   0.954   3.495
    2MOL1    Cl  743   1.585   4.671   3.706
    2MOL1     C  744   1.440   4.572   3.683
    2MOL1    Cl  745   1.377   4.593   3.518
    2MOL1    Cl  746   1.475   4.402   3.715
    2MOL1     H  747   1.364   4.606   3.753
    2MOL1    Cl  748   1.153   3.401   3.606
    2MOL1     C  749   1.280   3.279   3.589
    2MOL1    Cl  750   1.224   3.144   3.488
    2MOL1    Cl  751   1.427   3.351   3.520
    2MOL1     H  752   1.304   3.240   3.688
    2MOL1    Cl  753   4.886   2.179   2.451
    2MOL1     C  754   4.853   2.351   2.478
    2MOL1    Cl  755   4.720   2.372   2.593
    2MOL1    Cl  756   4.999   2.433   2.537
    2MOL1     H  757   4.825   2.397   2.383
    2MOL1    Cl  758   2.461   1.336   2.009
    2MOL1     C  759   2.386   1.448   1.895
    2MOL1    Cl  760   2.309   1.583   1.981
    2MOL1    Cl  761   2.506   1.509   1.779
    2MOL1     H  762   2.309   1.395   1.839
    2MOL1    Cl  763   1.479   0.250   3.803
    2MOL1     C  764   1.336   0.161   3.748
    2MOL1    Cl  765   1.334   0.150   3.571
    2MOL1    Cl  766   1.332   0.000   3.821
    2MOL1     H  767   1.247   0.216   3.780
    2MOL1    Cl  768   4.266   3.847   2.915
    2MOL1     C  769   4.305   3.745   2.776
    2MOL1    Cl  770   4.283   3.574   2.817
    2MOL1    Cl  771   4.207   3.789   2.636
    2MOL1     H  772   4.410   3.760   2.751
    2MOL1    Cl  773   4.587   1.321   4.011
    2MOL1     C  774   4.416   1.359   4.037
    2MOL1    Cl  775   4.399   1.515   4.118
    2MOL1    Cl  776   4.328   1.358   3.883
    2MOL1     H  777   4.373   1.281   4.101
    2MOL1    Cl  778   3.666   1.914   2.704
    2MOL1     C  779   3.722   2.078   2.671
    2MOL1    Cl  780   3.857   2.121   2.777
    2MOL1    Cl  781   3.769   2.095   2.501
    2MOL1     H  782   3.640   2.147   2.691
    2MOL1    Cl  783   4.804   4.083   3.293
    2MOL1     C  784   4.971   4.037   3.332
    2MOL1    Cl  785   5.073   4.044   3.187
    2MOL1    Cl  786   5.036   4.141   3.459
    2MOL1     H  787   4.970   3.934   3.369
    2MOL1    Cl  788   0.655   1.895   0.582
    2MOL1     C  789   0.496   1.863   0.653
    2MOL1    Cl  790   0.437   2.006   0.740
    2MOL1    Cl  791   0.380   1.815   0.528
    2MOL1     H  792   0.506   1.781   0.725
    2MOL1    Cl  793   3.658   1.905   3.731
    2MOL1     C  794   3.665   1.764   3.624
    2MOL1    Cl  795   3.572   1.793   3.476
    2MOL1    Cl  796   3.833   1.724   3.585
    2MOL1     H  797   3.621   1.679   3.677
    2MOL1    Cl  798   1.594   2.492   3.014
    2MOL1     C  799   1.423   2.445   3.006
    2MOL1    Cl  800   1.403   2.274   3.050
    2MOL1    Cl  801   1.326   2.548   3.113
    2MOL1     H  802   1.388   2.459   2.904
    2MOL1    Cl  803   0.700   4.545   5.047
    2MOL1     C  804   0.803   4.678   4.993
    2MOL1    Cl  805   0.880   4.757   5.132
    2MOL1    Cl  806   0.925   4.620   4.878
    2MOL1     H  807   0.740   4.752   4.942
    2MOL1    Cl  808   4.679   4.589   0.185
    2MOL1     C  809   4.700   4.760   0.226
    2MOL1    Cl  810   4.873   4.800   0.239
    2MOL1    Cl  811   4.622   4.863   0.106
    2MOL1     H  812   4.653   4.778   0.323
    2MOL1    Cl  813   0.585   1.549   0.586
    2MOL1     C  814   0.757   1.571   0.623
    2MOL1    Cl  815   0.777   1.650   0.780
    2MOL1    Cl  816   0.841   1.415   0.620
    2MOL1     H  817   0.800   1.635   0.546
    2MOL1    Cl  818   2.582   0.370   3.563
    2MOL1     C  819   2.413   0.345   3.514
    2MOL1    Cl  820   2.364   0.466   3.394
    2MOL1    Cl  821   2.391   0.181   3.450
    2MOL1     H  822   2.350   0.356   3.602
    2MOL1    Cl  823   0.476   1.371   3.393
    2MOL1     C  824   0.555   1.527   3.365
    2MOL1    Cl  825   0.694   1.508   3.257
    2MOL1    Cl  826   0.440   1.644   3.298
    2MOL1     H  827   0.591   1.565   3.461
    2MOL1    Cl  828   0.219   4.248   5.041
    2MOL1     C  829   0.290   4.402   4.990
    2MOL1    Cl  830   0.397   4.379   4.851
    2MOL1    Cl  831   0.163   4.520   4.952
    2MOL1     H  832   0.349   4.441   5.073
    2MOL1    Cl  833   4.444   1.537   2.196
    2MOL1     C  834   4.300   1.438   2.223
    2MOL1    Cl  835   4.335   1.305   2.336
    2MOL1    Cl  836   4.166   1.538   2.285
    2MOL1     H  837   4.269   1.395   2.128
    2MOL1    Cl  838   1.456   0.797   1.691
    2MOL1     C  839   1.479   0.682   1.824
    2MOL1    Cl  840   1.464   0.764   1.980
    2MOL1    Cl  841   1.363   0.549   1.812
    2MOL1     H  842   1.580   0.640   1.816
    2MOL1    Cl  843   1.998   1.951   3.597
    2MOL1     C  844   2.081   1.801   3.552
    2MOL1    Cl  845   2.010   1.732   3.405
    2MOL1    Cl  846   2.254   1.829   3.529
    2MOL1     H  847   2.068   1.729   3.633
    2MOL1    Cl  848   2.513   3.406   3.768
    2MOL1     C  849   2.612   3.551   3.797
    2MOL1    Cl  850   2.530   3.660   3.910
    2MOL1    Cl  851   2.771   3.506   3.859
    2MOL1     H  852   2.625   3.603   3.702
    2MOL1    Cl  853   0.807   1.514   3.751
    2MOL1     C  854   0.906   1.369   3.727
    2MOL1    Cl  855   0.940   1.290   3.881
    2MOL1    Cl  856   0.825   1.257   3.616
    2MOL1     H  857   1.001   1.399   3.682
    2MOL1    Cl  858   0.917   4.343   2.007
    2MOL1     C  859   0.788   4.426   1.919
    2MOL1    Cl  860   0.637   4.333   1.927
    2MOL1    Cl  861   0.763   4.589   1.984
    2MOL1     H  862   0.818   4.435   1.814
    2MOL1    Cl  863   3.484   4.194   2.558
    2MOL1     C  864   3.657   4.165   2.586
    2MOL1    Cl  865   3.712   4.254   2.729
    2MOL1    Cl  866   3.688   3.991   2.605
    2MOL1     H  867   3.712   4.201   2.499
    2MOL1    Cl  868   0.858   2.440   3.505
    2MOL1     C  869   0.713   2.538   3.532
    2MOL1    Cl  870   0.595   2.450   3.631
    2MOL1    Cl  871   0.755   2.692   3.608
    2MOL1     H  872   0.667   2.559   3.435
    2MOL1    Cl  873   1.640   3.820   1.831
    2MOL1     C  874   1.808   3.834   1.776
    2MOL1    Cl  875   1.920   3.782   1.902
    2MOL1    Cl  876   1.832   3.739   1.628
    2MOL1     H  877   1.828   3.938   1.753
    2MOL1    Cl  878   1.476   1.543   2.527
    2MOL1     C  879   1.605   1.611   2.628
    2MOL1    Cl  880   1.662   1.765   2.560
    2MOL1    Cl  881   1.548   1.635   2.794
    2MOL1     H  882   1.688   1.541   2.630
    2MOL1    Cl  883   3.971   0.300   4.070
    2MOL1     C  884   3.950   0.126   4.050
    2MOL1    Cl  885   3.813   0.092   3.943
    2MOL1    Cl  886   4.098   0.052   3.987
    2MOL1     H  887   3.928   0.082   4.148
    2MOL1    Cl  888   0.079   4.696   4.570
    2MOL1     C  889   0.171   4.546   4.585
    2MOL1    Cl  890   0.328   4.576   4.662
    2MOL1    Cl  891   0.079   4.425   4.676
    2MOL1     H  892   0.190   4.506   4.485
    2MOL1    Cl  893   1.140   1.609   0.678
    2MOL1     C  894   1.108   1.722   0.811
    2MOL1    Cl  895   0.971   1.827   0.770
    2MOL1    Cl  896   1.077   1.634   0.961
    2MOL1     H  897   1.196   1.785   0.825
    2MOL1    Cl  898   2.912   2.788   0.351
    2MOL1     C  899   2.738   2.817   0.341
    2MOL1    Cl  900   2.688   2.843   0.173
    2MOL1    Cl  901   2.648   2.682   0.412
    2MOL1     H  902   2.715   2.907   0.398
    2MOL1    Cl  903   3.594   1.511   3.347
    2MOL1     C  904   3.632   1.395   3.475
    2MOL1    Cl  905   3.634   1.230   3.410
    2MOL1    Cl  906   3.787   1.434   3.551
    2MOL1     H  907   3.554   1.401   3.551
    2MOL1    Cl  908   3.464   0.477   1.996
    2MOL1     C  909   3.504   0.309   1.954
    2MOL1    Cl  910   3.544   0.296   1.782
    2MOL1    Cl  911   3.638   0.250   2.054
    2MOL1     H  912   3.416   0.247   1.974
    2MOL1    Cl  913   4.259   2.580   1.595
    2MOL1     C  914   4.126   2.683   1.540
    2MOL1    Cl  915   4.187   2.818   1.443
    2MOL1    Cl  916   4.009   2.588   1.447
    2MOL1     H  917   4.075   2.724   1.627
    2MOL1    Cl  918   2.834   4.328   2.626
    2MOL1     C  919   2.982   4.286   2.713
    2MOL1    Cl  920   2.962   4.134   2.801
    2MOL1    Cl  921   3.120   4.275   2.602
    2MOL1     H  922   3.003   4.365   2.786
    2MOL1    Cl  923   4.603   1.071   2.709
    2MOL1     C  924   4.439   1.110   2.763
    2MOL1    Cl  925   4.391   1.006   2.898
    2MOL1    Cl  926   4.427   1.281   2.808
    2MOL1     H  927   4.371   1.092   2.679
    2MOL1    Cl  928   1.068   1.946   4.959
    2MOL1     C  929   1.088   2.112   4.902
    2MOL1    Cl  930   1.249   2.135   4.833
    2MOL1    Cl  931   0.963   2.152   4.782
    2MOL1     H  932   1.076   2.180   4.987
    2MOL1    Cl  933   2.511   4.473   4.506
    2MOL1     C  934   2.455   4.624   4.578
    2MOL1    Cl  935   2.353   4.592   4.719
    2MOL1    Cl  936   2.593   4.727   4.623
    2MOL1     H  937   2.396   4.678   4.504
    2MOL1    Cl  938   2.404   5.296   5.084
    2MOL1     C  939   2.348   5.128   5.094
    2MOL1    Cl  940   2.455   5.033   5.199
    2MOL1    Cl  941   2.181   5.122   5.154
    2MOL1     H  942   2.350   5.085   4.994
    2MOL1    Cl  943   1.912   1.218   3.171
    2MOL1     C  944   2.009   1.277   3.035
    2MOL1    Cl  945   2.168   1.329   3.091
    2MOL1    Cl  946   2.024   1.151   2.911
    2MOL1     H  947   1.957   1.363   2.991
    2MOL1    Cl  948   1.775   2.254   5.194
    2MOL1     C  949   1.944   2.225   5.151
    2MOL1    Cl  950   2.003   2.075   5.224
    2MOL1    Cl  951   1.964   2.220   4.975
    2MOL1     H  952   2.005   2.308   5.189
    2MOL1    Cl  953   2.275   1.665   1.721
    2MOL1     C  954   2.238   1.831   1.672
    2MOL1    Cl  955   2.366   1.896   1.568
    2MOL1    Cl  956   2.081   1.838   1.589
    2MOL1     H  957   2.232   1.893   1.761
    2MOL1    Cl  958   2.691   2.689   0.864
    2MOL1     C  959   2.755   2.717   1.027
    2MOL1    Cl  960   2.865   2.586   1.075
    2MOL1    Cl  961   2.837   2.874   1.036
    2MOL1     H  962   2.671   2.718   1.097
    2MOL1    Cl  963   3.017   1.779   1.866
    2MOL1     C  964   3.058   1.869   2.013
    2MOL1    Cl  965   3.231   1.907   2.017
    2MOL1    Cl  966   2.962   2.017   2.025
    2MOL1     H  967   3.035   1.806   2.100
    2MOL1    Cl  968   4.782   4.451   2.770
    2MOL1     C  969   4.621   4.514   2.734
    2MOL1    Cl  970   4.614   4.580   2.570
    2MOL1    Cl  971   4.498   4.388   2.756
    2MOL1     H  972   4.599   4.595   2.805
    2MOL1    Cl  973   3.161   0.392   4.783
    2MOL1     C  974   3.248   0.455   4.923
    2MOL1    Cl  975   3.302   0.323   5.028
    2MOL1    Cl  976   3.385   0.555   4.872
    2MOL1     H  977   3.179   0.518   4.981
    2MOL1    Cl  978   4.077   3.980   4.031
    2MOL1     C  979   3.978   4.008   4.175
    2MOL1    Cl  980   3.949   4.181   4.198
    2MOL1    Cl  981   3.825   3.920   4.163
    2MOL1     H  982   4.032   3.970   4.262
    2MOL1    Cl  983   2.102   1.345   2.451
    2MOL1     C  984   2.001   1.376   2.594
    2MOL1    Cl  985   2.099   1.371   2.741
    2MOL1    Cl  986   1.918   1.531   2.579
    2MOL1     H  987   1.926   1.297   2.600
    2MOL1    Cl  988   2.655   0.313   0.135
    2MOL1     C  989   2.666   0.489   0.133
    2MOL1    Cl  990   2.610   0.557   0.287
    2MOL1    Cl  991   2.832   0.542   0.098
    2MOL1     H  992   2.601   0.527   0.054
    2MOL1    Cl  993   2.321   2.952   1.922
    2MOL1     C  994   2.438   2.891   2.040
    2MOL1    Cl  995   2.433   2.988   2.188
    2MOL1    Cl  996   2.406   2.720   2.077
    2MOL1     H  997   2.538   2.898   1.997
    2MOL1    Cl  998   1.264   5.011   1.684
    2MOL1     C  999   1.093   4.979   1.654
    2MOL1    Cl 1000   1.024   5.101   1.545
    2MOL1    Cl 1001   1.070   4.816   1.588
    2MOL1     H 1002   1.040   4.984   1.750
    2MOL1    Cl 1003   4.178   2.236   4.557
    2MOL1     C 1004   4.241   2.326   4.418
    2MOL1    Cl 1005   4.410   2.283   4.388
    2MOL1    Cl 1006   4.143   2.296   4.274
    2MOL1     H 1007   4.236   2.433   4.441
    2MOL1    Cl 1008   1.958   5.106   4.976
    2MOL1     C 1009   1.922   5.056   5.142
    2MOL1    Cl 1010   1.747   5.040   5.165
    2MOL1    Cl 1011   2.004   4.904   5.181
    2MOL1     H 1012   1.958   5.133   5.210
    2MOL1    Cl 1013   3.470   3.763   0.691
    2MOL1     C 1014   3.467   3.928   0.626
    2MOL1    Cl 1015   3.328   4.018   0.689
    2MOL1    Cl 1016   3.618   4.012   0.665
    2MOL1     H 1017   3.458   3.922   0.518
    2MOL1    Cl 1018   4.794   1.020   0.986
    2MOL1     C 1019   4.643   0.982   1.071
    2MOL1    Cl 1020   4.661   0.836   1.169
    2MOL1    Cl 1021   4.592   1.118   1.171
    2MOL1     H 1022   4.566   0.963   0.996
    2MOL1    Cl 1023   4.260   1.914   1.851
    2MOL1     C 1024   4.156   1.842   1.975
    2MOL1    Cl 1025   4.044   1.964   2.041
    2MOL1    Cl 1026   4.065   1.705   1.909
    2MOL1     H 1027   4.219   1.806   2.056
    2MOL1    Cl 1028   3.975   1.675   0.054
    2MOL1     C 1029   4.135   1.730   0.106
    2MOL1    Cl 1030   4.144   1.906   0.108
    2MOL1    Cl 1031   4.174   1.664   0.266
    2MOL1     H 1032   4.209   1.692   0.035
    2MOL1    Cl 1033   0.196   0.238   4.538
    2MOL1     C 1034   0.125   0.090   4.473
    2MOL1    Cl 1035   0.032   0.005   4.598
    2MOL1    Cl 1036   0.022   0.127   4.334
    2MOL1     H 1037   0.206   0.024   4.440
    2MOL1    Cl 1038   3.904   3.223   4.951
    2MOL1     C 1039   3.996   3.234   4.800
    2MOL1    Cl 1040   4.127   3.352   4.815
    2MOL1    Cl 1041   4.060   3.075   4.754
    2MOL1     H 1042   3.928   3.267   4.721
    2MOL1    Cl 1043   1.221   0.440   3.701
    2MOL1     C 1044   1.232   0.560   3.831
    2MOL1    Cl 1045   1.350   0.509   3.953
    2MOL1    Cl 1046   1.275   0.719   3.766
    2MOL1     H 1047   1.134   0.568   3.880
    2MOL1    Cl 1048   3.646   0.508   1.483
    2MOL1     C 1049   3.568   0.353   1.447
    2MOL1    Cl 1050   3.479   0.362   1.294
    2MOL1    Cl 1051   3.688   0.223   1.442
    2MOL1     H 1052   3.497   0.331   1.527
    2MOL1    Cl 1053   1.313   0.247   3.999
    2MOL1     C 1054   1.324   0.335   4.152
    2MOL1    Cl 1055   1.177   0.429   4.181
    2MOL1    Cl 1056   1.354   0.224   4.286
    2MOL1     H 1057   1.409   0.405   4.145
    2MOL1    Cl 1058   2.162   1.145   4.219
    2MOL1     C 1059   2.319   1.217   4.260
    2MOL1    Cl 1060   2.297   1.362   4.360
    2MOL1    Cl 1061   2.422   1.099   4.343
    2MOL1     H 1062   2.368   1.247   4.167
    2MOL1    Cl 1063   3.211   0.834   0.394
    2MOL1     C 1064   3.366   0.750   0.417
    2MOL1    Cl 1065   3.446   0.725   0.261
    2MOL1    Cl 1066   3.470   0.842   0.527
    2MOL1     H 1067   3.346   0.652   0.462
    2MOL1    Cl 1068   1.535   2.239   2.838
    2MOL1     C 1069   1.668   2.244   2.722
    2MOL1    Cl 1070   1.693   2.085   2.648
    2MOL1    Cl 1071   1.638   2.367   2.597
    2MOL1     H 1072   1.759   2.272   2.775
    2MOL1    Cl 1073   4.874   3.924   4.764
    2MOL1     C 1074   4.982   4.032   4.674
    2MOL1    Cl 1075   5.149   4.015   4.729
    2MOL1    Cl 1076   4.970   3.999   4.500
    2MOL1     H 1077   4.950   4.135   4.692
    2MOL1    Cl 1078   0.737   0.847   2.784
    2MOL1     C 1079   0.879   0.942   2.733
    2MOL1    Cl 1080   0.873   0.974   2.559
    2MOL1    Cl 1081   0.888   1.094   2.824
    2MOL1     H 1082   0.968   0.884   2.755
    2MOL1    Cl 1083   4.884   0.952   3.612
    2MOL1     C 1084   4.719   0.993   3.662
    2MOL1    Cl 1085   4.615   1.018   3.521
    2MOL1    Cl 1086   4.653   0.866   3.767
    2MOL1     H 1087   4.723   1.086   3.719
    2MOL1    Cl 1088   4.985   4.687   0.696
    2MOL1     C 1089   5.119   4.794   0.654
    2MOL1    Cl 1090   5.231   4.714   0.542
    2MOL1    Cl 1091   5.059   4.945   0.584
    2MOL1     H 1092   5.174   4.819   0.746
    2MOL1    Cl 1093   0.638   3.234   0.359
    2MOL1     C 1094   0.715   3.393   0.375
    2MOL1    Cl 1095   0.861   3.402   0.275
    2MOL1    Cl 1096   0.601   3.522   0.332
    2MOL1     H 1097   0.744   3.406   0.480
    2MOL1    Cl 1098   1.255   2.429   4.591
    2MOL1     C 1099   1.233   2.460   4.764
    2MOL1    Cl 1100   1.074   2.402   4.817
    2MOL1    Cl 1101   1.362   2.383   4.858
    2MOL1     H 1102   1.237   2.568   4.781
    2MOL1    Cl 1103   1.541   4.249   0.040
    2MOL1     C 1104   1.598   4.103   0.123
    2MOL1    Cl 1105   1.584   3.962   0.017
    2MOL1    Cl 1106   1.766   4.124   0.177
    2MOL1     H 1107   1.536   4.087   0.211
    2MOL1    Cl 1108   0.632   3.443   0.672
    2MOL1     C 1109   0.718   3.293   0.709
    2MOL1    Cl 1110   0.632   3.153   0.644
    2MOL1    Cl 1111   0.884   3.299   0.646
    2MOL1     H 1112   0.723   3.282   0.818
    2MOL1    Cl 1113   4.086   1.638   2.577
    2MOL1     C 1114   4.262   1.635   2.597
    2MOL1    Cl 1115   4.316   1.773   2.694
    2MOL1    Cl 1116   4.314   1.482   2.671
    2MOL1     H 1117   4.308   1.642   2.498
    2MOL1    Cl 1118   2.030   0.672   4.309
    2MOL1     C 1119   2.187   0.623   4.375
    2MOL1    Cl 1120   2.270   0.762   4.448
    2MOL1    Cl 1121   2.167   0.493   4.494
    2MOL1     H 1122   2.249   0.585   4.294
    2MOL1    Cl 1123   0.353   0.110   2.521
    2MOL1     C 1124   0.405   0.263   2.594
    2MOL1    Cl 1125   0.574   0.296   2.554
    2MOL1    Cl 1126   0.301   0.396   2.539
    2MOL1     H 1127   0.396   0.254   2.702
    2MOL1    Cl 1128   2.003   4.514   4.621
    2MOL1     C 1129   1.854   4.516   4.526
    2MOL1    Cl 1130   1.731   4.412   4.600
    2MOL1    Cl 1131   1.794   4.681   4.506
    2MOL1     H 1132   1.877   4.476   4.426
    2MOL1    Cl 1133   4.240   4.753   1.439
    2MOL1     C 1134   4.290   4.624   1.550
    2MOL1    Cl 1135   4.406   4.515   1.471
    2MOL1    Cl 1136   4.360   4.692   1.698
    2MOL1     H 1137   4.202   4.566   1.577
    2MOL1    Cl 1138   1.113   2.754   0.625
    2MOL1     C 1139   1.109   2.580   0.588
    2MOL1    Cl 1140   0.944   2.517   0.605
    2MOL1    Cl 1141   1.172   2.550   0.426
    2MOL1     H 1142   1.173   2.529   0.660
    2MOL1    Cl 1143   1.531   1.057   4.281
    2MOL1     C 1144   1.370   0.989   4.308
    2MOL1    Cl 1145   1.245   1.109   4.270
    2MOL1    Cl 1146   1.348   0.842   4.211
    2MOL1     H 1147   1.361   0.962   4.414
    2MOL1    Cl 1148   1.788   1.382   0.867
    2MOL1     C 1149   1.890   1.524   0.891
    2MOL1    Cl 1150   1.854   1.602   1.045
    2MOL1    Cl 1151   2.062   1.480   0.882
    2MOL1     H 1152   1.869   1.596   0.810
    2MOL1    Cl 1153   1.168   4.488   1.335
    2MOL1     C 1154   1.303   4.556   1.428
    2MOL1    Cl 1155   1.383   4.684   1.335
    2MOL1    Cl 1156   1.246   4.619   1.584
    2MOL1     H 1157   1.375   4.477   1.447
    2MOL1    Cl 1158   5.010   2.752   2.473
    2MOL1     C 1159   5.125   2.763   2.607
    2MOL1    Cl 1160   5.070   2.667   2.745
    2MOL1    Cl 1161   5.286   2.711   2.556
    2MOL1     H 1162   5.131   2.868   2.638
    2MOL1    Cl 1163   1.059   2.588   0.193
    2MOL1     C 1164   0.938   2.464   0.160
    2MOL1    Cl 1165   0.933   2.345   0.292
    2MOL1    Cl 1166   0.778   2.538   0.137
    2MOL1     H 1167   0.965   2.412   0.068
    2MOL1    Cl 1168   3.742   4.813   3.538
    2MOL1     C 1169   3.660   4.740   3.399
    2MOL1    Cl 1170   3.742   4.591   3.349
    2MOL1    Cl 1171   3.490   4.707   3.438
    2MOL1     H 1172   3.663   4.811   3.316
    2MOL1    Cl 1173   2.122   0.892   2.333
    2MOL1     C 1174   2.210   1.026   2.410
    2MOL1    Cl 1175   2.276   1.136   2.288
    2MOL1    Cl 1176   2.104   1.113   2.522
    2MOL1     H 1177   2.292   0.983   2.467
    2MOL1    Cl 1178   0.666   4.752   4.493
    2MOL1     C 1179   0.693   4.578   4.512
    2MOL1    Cl 1180   0.540   4.489   4.494
    2MOL1    Cl 1181   0.813   4.520   4.395
    2MOL1     H 1182   0.732   4.560   4.613
    2MOL1    Cl 1183   2.083   4.691   3.996
    2MOL1     C 1184   2.048   4.853   3.935
    2MOL1    Cl 1185   2.196   4.932   3.878
    2MOL1    Cl 1186   1.928   4.846   3.805
    2MOL1     H 1187   2.006   4.913   4.017
    2MOL1    Cl 1188   1.199   0.411   1.231
    2MOL1     C 1189   1.195   0.239   1.271
    2MOL1    Cl 1190   1.257   0.211   1.434
    2MOL1    Cl 1191   1.031   0.175   1.255
    2MOL1     H 1192   1.260   0.185   1.200
    2MOL1    Cl 1193   2.533   2.955   1.053
    2MOL1     C 1194   2.527   3.132   1.062
    2MOL1    Cl 1195   2.426   3.184   1.198
    2MOL1    Cl 1196   2.690   3.199   1.076
    2MOL1     H 1197   2.482   3.169   0.969
    2MOL1    Cl 1198   1.156   3.532   1.128
    2MOL1     C 1199   1.017   3.637   1.099
    2MOL1    Cl 1200   0.930   3.588   0.953
    2MOL1    Cl 1201   0.908   3.636   1.240
    2MOL1     H 1202   1.053   3.740   1.085
    2MOL1    Cl 1203   3.886   2.316   2.214
    2MOL1     C 1204   3.817   2.385   2.067
    2MOL1    Cl 1205   3.889   2.310   1.923
    2MOL1    Cl 1206   3.641   2.364   2.066
    2MOL1     H 1207   3.839   2.492   2.064
    2MOL1    Cl 1208   2.916   2.454   1.243
    2MOL1     C 1209   2.743   2.421   1.257
    2MOL1    Cl 1210   2.713   2.299   1.382
    2MOL1    Cl 1211   2.654   2.570   1.293
    2MOL1     H 1212   2.708   2.382   1.161
    2MOL1    Cl 1213   2.806   3.590   4.425
    2MOL1     C 1214   2.742   3.507   4.282
    2MOL1    Cl 1215   2.870   3.482   4.162
    2MOL1    Cl 1216   2.668   3.353   4.328
    2MOL1     H 1217   2.665   3.570   4.237
    2MOL1    Cl 1218   1.141   2.997   4.069
    2MOL1     C 1219   1.174   2.901   4.214
    2MOL1    Cl 1220   1.170   3.003   4.359
    2MOL1    Cl 1221   1.057   2.768   4.228
    2MOL1     H 1222   1.274   2.858   4.205
    2MOL1    Cl 1223   1.484   2.754   3.439
    2MOL1     C 1224   1.516   2.928   3.449
    2MOL1    Cl 1225   1.685   2.963   3.407
    2MOL1    Cl 1226   1.406   3.017   3.344
    2MOL1     H 1227   1.499   2.960   3.552
    2MOL1    Cl 1228   3.974   4.779   3.838
    2MOL1     C 1229   3.801   4.767   3.873
    2MOL1    Cl 1230   3.770   4.642   3.995
    2MOL1    Cl 1231   3.737   4.924   3.928
    2MOL1     H 1232   3.749   4.739   3.781
    2MOL1    Cl 1233   0.004   3.242   0.543
    2MOL1     C 1234   0.179   3.228   0.521
    2MOL1    Cl 1235   0.234   3.064   0.561
    2MOL1    Cl 1236   0.224   3.269   0.354
    2MOL1     H 1237   0.228   3.298   0.588
    2MOL1    Cl 1238   1.568   2.362   4.969
    2MOL1     C 1239   1.460   2.296   5.094
    2MOL1    Cl 1240   1.554   2.244   5.235
    2MOL1    Cl 1241   1.339   2.416   5.141
    2MOL1     H 1242   1.409   2.209   5.053
    2MOL1    Cl 1243   0.110   1.947   2.982
    2MOL1     C 1244   0.277   1.929   3.039
    2MOL1    Cl 1245   0.387   2.027   2.940
    2MOL1    Cl 1246   0.290   1.973   3.210
    2MOL1     H 1247   0.306   1.824   3.028
    2MOL1    Cl 1248   3.788   0.302   4.947
    2MOL1     C 1249   3.632   0.217   4.945
    2MOL1    Cl 1250   3.657   0.042   4.959
    2MOL1    Cl 1251   3.527   0.276   5.074
    2MOL1     H 1252   3.584   0.237   4.849
    2MOL1    Cl 1253   1.871   2.725   2.227
    2MOL1     C 1254   1.732   2.820   2.174
    2MOL1    Cl 1255   1.780   2.989   2.146
    2MOL1    Cl 1256   1.661   2.751   2.027
    2MOL1     H 1257   1.657   2.818   2.253
    2MOL1    Cl 1258   4.135   0.518   4.292
    2MOL1     C 1259   4.166   0.659   4.190
    2MOL1    Cl 1260   4.095   0.636   4.029
    2MOL1    Cl 1261   4.103   0.806   4.265
    2MOL1     H 1262   4.274   0.670   4.178
    2MOL1    Cl 1263   0.229   3.741   1.485
    2MOL1     C 1264   0.324   3.838   1.598
    2MOL1    Cl 1265   0.273   4.008   1.593
    2MOL1    Cl 1266   0.311   3.774   1.762
    2MOL1     H 1267   0.429   3.833   1.567
    2MOL1    Cl 1268   0.365   1.509   0.862
    2MOL1     C 1269   0.241   1.625   0.910
    2MOL1    Cl 1270   0.279   1.694   1.069
    2MOL1    Cl 1271   0.225   1.753   0.789
    2MOL1     H 1272   0.146   1.572   0.918
    2MOL1    Cl 1273   3.833   2.504   2.737
    2MOL1     C 1274   3.705   2.536   2.855
    2MOL1    Cl 1275   3.547   2.489   2.790
    2MOL1    Cl 1276   3.738   2.451   3.007
    2MOL1     H 1277   3.703   2.644   2.875
    2MOL1    Cl 1278   0.434   4.928   3.002
    2MOL1     C 1279   0.330   4.836   2.891
    2MOL1    Cl 1280   0.268   4.690   2.969
    2MOL1    Cl 1281   0.197   4.937   2.833
    2MOL1     H 1282   0.390   4.806   2.804
    2MOL1    Cl 1283   0.230   4.660   2.497
    2MOL1     C 1284   0.058   4.652   2.455
    2MOL1    Cl 1285   0.004   4.805   2.382
    2MOL1    Cl 1286   0.027   4.517   2.345
    2MOL1     H 1287   0.001   4.636   2.546
    2MOL1    Cl 1288   0.454   2.706   2.388
    2MOL1     C 1289   0.610   2.621   2.388
    2MOL1    Cl 1290   0.733   2.717   2.471
    2MOL1    Cl 1291   0.593   2.461   2.464
    2MOL1     H 1292   0.641   2.607   2.284
    2MOL1    Cl 1293   0.761   4.128   2.831
    2MOL1     C 1294   0.613   4.034   2.856
    2MOL1    Cl 1295   0.536   3.996   2.701
    2MOL1    Cl 1296   0.648   3.886   2.946
    2MOL1     H 1297   0.544   4.094   2.915
    2MOL1    Cl 1298   2.372   0.759   3.884
    2MOL1     C 1299   2.348   0.654   4.025
    2MOL1    Cl 1300   2.180   0.597   4.032
    2MOL1    Cl 1301   2.460   0.517   4.021
    2MOL1     H 1302   2.368   0.712   4.115
    2MOL1    Cl 1303   1.732   1.926   2.169
    2MOL1     C 1304   1.905   1.894   2.151
    2MOL1    Cl 1305   2.001   2.012   2.241
    2MOL1    Cl 1306   1.943   1.729   2.204
    2MOL1     H 1307   1.931   1.902   2.045
    2MOL1    Cl 1308   0.956   3.170   2.200
    2MOL1     C 1309   0.894   3.230   2.354
    2MOL1    Cl 1310   0.924   3.404   2.370
    2MOL1    Cl 1311   0.721   3.195   2.371
    2MOL1     H 1312   0.947   3.179   2.435
    2MOL1    Cl 1313   4.881   3.750   3.137
    2MOL1     C 1314   4.704   3.760   3.152
    2MOL1    Cl 1315   4.626   3.668   3.022
    2MOL1    Cl 1316   4.652   3.700   3.311
    2MOL1     H 1317   4.675   3.864   3.143
    2MOL1    Cl 1318   4.457   0.971   4.643
    2MOL1     C 1319   4.297   1.037   4.608
    2MOL1    Cl 1320   4.304   1.213   4.587
    2MOL1    Cl 1321   4.227   0.960   4.465
    2MOL1     H 1322   4.232   1.016   4.694
    2MOL1    Cl 1323   0.086   3.183   4.526
    2MOL1     C 1324   0.192   3.103   4.642
    2MOL1    Cl 1325   0.201   3.196   4.793
    2MOL1    Cl 1326   0.135   2.938   4.675
    2MOL1     H 1327   0.292   3.097   4.600
    2MOL1    Cl 1328   1.148   1.949   0.166
    2MOL1     C 1329   1.073   1.895   0.317
    2MOL1    Cl 1330   1.175   1.935   0.455
    2MOL1    Cl 1331   0.912   1.966   0.336
    2MOL1     H 1332   1.061   1.786   0.312
    2MOL1    Cl 1333   1.921   2.308   1.792
    2MOL1     C 1334   1.942   2.132   1.792
    2MOL1    Cl 1335   1.810   2.054   1.704
    2MOL1    Cl 1336   2.099   2.088   1.722
    2MOL1     H 1337   1.939   2.098   1.896
    2MOL1    Cl 1338   2.659   4.476   3.963
    2MOL1     C 1339   2.520   4.470   3.853
    2MOL1    Cl 1340   2.521   4.609   3.744
    2MOL1    Cl 1341   2.520   4.319   3.762
    2MOL1     H 1342   2.429   4.474   3.913
    2MOL1    Cl 1343   3.225   0.425   1.683
    2MOL1     C 1344   3.257   0.580   1.764
    2MOL1    Cl 1345   3.429   0.595   1.804
    2MOL1    Cl 1346   3.204   0.715   1.662
    2MOL1     H 1347   3.199   0.582   1.857
    2MOL1    Cl 1348   2.339   4.887   4.800
    2MOL1     C 1349   2.461   4.846   4.923
    2MOL1    Cl 1350   2.543   4.695   4.880
    2MOL1    Cl 1351   2.578   4.978   4.941
    2MOL1     H 1352   2.410   4.832   5.018
    2MOL1    Cl 1353   2.490   1.949   3.497
    2MOL1     C 1354   2.656   1.940   3.435
    2MOL1    Cl 1355   2.707   1.771   3.418
    2MOL1    Cl 1356   2.670   2.026   3.281
    2MOL1     H 1357   2.722   1.988   3.508
    2MOL1    Cl 1358   0.861   1.860   4.870
    2MOL1     C 1359   0.856   1.819   5.042
    2MOL1    Cl 1360   0.996   1.721   5.087
    2MOL1    Cl 1361   0.850   1.966   5.141
    2MOL1     H 1362   0.766   1.761   5.062
    2MOL1    Cl 1363   3.039   1.106   3.005
    2MOL1     C 1364   3.147   1.154   3.137
    2MOL1    Cl 1365   3.313   1.102   3.104
    2MOL1    Cl 1366   3.140   1.329   3.162
    2MOL1     H 1367   3.113   1.105   3.229
    2MOL1    Cl 1368   3.571   0.783   1.586
    2MOL1     C 1369   3.732   0.739   1.645
    2MOL1    Cl 1370   3.824   0.883   1.691
    2MOL1    Cl 1371   3.720   0.627   1.782
    2MOL1     H 1372   3.785   0.688   1.564
    2MOL1    Cl 1373   0.382   0.634   0.664
    2MOL1     C 1374   0.396   0.457   0.659
    2MOL1    Cl 1375   0.252   0.381   0.727
    2MOL1    Cl 1376   0.423   0.402   0.493
    2MOL1     H 1377   0.482   0.428   0.719
    2MOL1    Cl 1378   0.766   3.992   3.758
    2MOL1     C 1379   0.893   3.870   3.745
    2MOL1    Cl 1380   0.900   3.771   3.891
    2MOL1    Cl 1381   0.868   3.769   3.602
    2MOL1     H 1382   0.989   3.922   3.734
    2MOL1    Cl 1383   5.338   4.166   4.458
    2MOL1     C 1384   5.179   4.244   4.455
    2MOL1    Cl 1385   5.192   4.409   4.391
    2MOL1    Cl 1386   5.065   4.148   4.359
    2MOL1     H 1387   5.142   4.250   4.558
    2MOL1    Cl 1388   3.639   1.670   0.937
    2MOL1     C 1389   3.750   1.808   0.928
    2MOL1    Cl 1390   3.741   1.906   1.075
    2MOL1    Cl 1391   3.917   1.752   0.901
    2MOL1     H 1392   3.721   1.870   0.843
    2MOL1    Cl 1393   3.477   4.417   3.908
    2MOL1     C 1394   3.396   4.545   3.817
    2MOL1    Cl 1395   3.501   4.606   3.688
    2MOL1    Cl 1396   3.244   4.485   3.748
    2MOL1     H 1397   3.373   4.627   3.885
    2MOL1    Cl 1398   1.514   4.672   3.223
    2MOL1     C 1399   1.681   4.713   3.264
    2MOL1    Cl 1400   1.772   4.754   3.118
    2MOL1    Cl 1401   1.686   4.847   3.380
    2MOL1     H 1402   1.727   4.626   3.310
    2MOL1    Cl 1403   2.734   0.529   2.495
    2MOL1     C 1404   2.632   0.546   2.639
    2MOL1    Cl 1405   2.553   0.705   2.641
    2MOL1    Cl 1406   2.511   0.416   2.644
    2MOL1     H 1407   2.695   0.537   2.727
    2MOL1    Cl 1408   3.375   2.044   4.093
    2MOL1     C 1409   3.320   2.126   4.240
    2MOL1    Cl 1410   3.459   2.186   4.332
    2MOL1    Cl 1411   3.210   2.258   4.200
    2MOL1     H 1412   3.266   2.053   4.302
    2MOL1    Cl 1413   2.813   2.316   0.693
    2MOL1     C 1414   2.907   2.381   0.558
    2MOL1    Cl 1415   3.074   2.413   0.607
    2MOL1    Cl 1416   2.903   2.270   0.420
    2MOL1     H 1417   2.862   2.476   0.527
    2MOL1    Cl 1418   1.479   0.626   4.854
    2MOL1     C 1419   1.653   0.635   4.886
    2MOL1    Cl 1420   1.690   0.774   4.990
    2MOL1    Cl 1421   1.711   0.485   4.961
    2MOL1     H 1422   1.705   0.648   4.791
    2MOL1    Cl 1423   0.630   1.585   1.576
    2MOL1     C 1424   0.748   1.680   1.667
    2MOL1    Cl 1425   0.689   1.714   1.831
    2MOL1    Cl 1426   0.904   1.594   1.674
    2MOL1     H 1427   0.764   1.775   1.616
    2MOL1    Cl 1428   5.122   3.202   0.481
    2MOL1     C 1429   5.021   3.154   0.343
    2MOL1    Cl 1430   4.885   3.056   0.398
    2MOL1    Cl 1431   4.964   3.298   0.256
    2MOL1     H 1432   5.082   3.094   0.275
    2MOL1    Cl 1433   0.739   1.787   3.880
    2MOL1     C 1434   0.676   1.693   4.017
    2MOL1    Cl 1435   0.674   1.791   4.164
    2MOL1    Cl 1436   0.514   1.631   3.980
    2MOL1     H 1437   0.742   1.608   4.034
    2MOL1    Cl 1438   1.050   0.821   0.314
    2MOL1     C 1439   0.943   0.810   0.455
    2MOL1    Cl 1440   0.898   0.641   0.485
    2MOL1    Cl 1441   1.021   0.880   0.598
    2MOL1     H 1442   0.852   0.867   0.434
    2MOL1    Cl 1443   3.458   4.778   4.876
    2MOL1     C 1444   3.547   4.926   4.915
    2MOL1    Cl 1445   3.710   4.888   4.972
    2MOL1    Cl 1446   3.554   5.033   4.773
    2MOL1     H 1447   3.494   4.978   4.995
    2MOL1    Cl 1448   3.244   3.971   3.742
    2MOL1     C 1449   3.079   3.930   3.692
    2MOL1    Cl 1450   3.034   4.020   3.546
    2MOL1    Cl 1451   3.064   3.755   3.665
    2MOL1     H 1452   3.011   3.959   3.772
    2MOL1    Cl 1453   2.722   4.382   3.227
    2MOL1     C 1454   2.875   4.307   3.276
    2MOL1    Cl 1455   2.946   4.393   3.414
    2MOL1    Cl 1456   2.850   4.136   3.315
    2MOL1     H 1457   2.945   4.313   3.192
    2MOL1    Cl 1458   3.629   1.279   2.733
    2MOL1     C 1459   3.473   1.360   2.755
    2MOL1    Cl 1460   3.368   1.265   2.862
    2MOL1    Cl 1461   3.496   1.523   2.819
    2MOL1     H 1462   3.425   1.368   2.657
    2MOL1    Cl 1463   4.434   2.177   5.211
    2MOL1     C 1464   4.571   2.079   5.157
    2MOL1    Cl 1465   4.582   1.930   5.252
    2MOL1    Cl 1466   4.556   2.042   4.984
    2MOL1     H 1467   4.662   2.136   5.172
    2MOL1    Cl 1468   3.095   2.271   0.779
    2MOL1     C 1469   3.257   2.200   0.780
    2MOL1    Cl 1470   3.381   2.327   0.789
    2MOL1    Cl 1471   3.275   2.085   0.913
    2MOL1     H 1472   3.271   2.145   0.686
    2MOL1    Cl 1473   4.590   4.658   1.570
    2MOL1     C 1474   4.574   4.827   1.520
    2MOL1    Cl 1475   4.427   4.898   1.589
    2MOL1    Cl 1476   4.716   4.921   1.568
    2MOL1     H 1477   4.566   4.830   1.411
    2MOL1    Cl 1478   4.485   0.753   3.322
    2MOL1     C 1479   4.642   0.704   3.257
    2MOL1    Cl 1480   4.622   0.614   3.106
    2MOL1    Cl 1481   4.746   0.845   3.232
    2MOL1     H 1482   4.690   0.639   3.331
    2MOL1    Cl 1483   3.467   2.243   0.577
    2MOL1     C 1484   3.565   2.220   0.431
    2MOL1    Cl 1485   3.723   2.151   0.473
    2MOL1    Cl 1486   3.480   2.116   0.315
    2MOL1     H 1487   3.581   2.317   0.385
    2MOL1    Cl 1488   1.840   0.012   2.797
    2MOL1     C 1489   1.756   0.155   2.734
    2MOL1    Cl 1490   1.837   0.304   2.788
    2MOL1    Cl 1491   1.748   0.149   2.557
    2MOL1     H 1492   1.654   0.155   2.773
    2MOL1    Cl 1493   1.286   4.855   5.052
    2MOL1     C 1494   1.278   4.678   5.042
    2MOL1    Cl 1495   1.329   4.605   5.195
    2MOL1    Cl 1496   1.114   4.626   4.999
    2MOL1     H 1497   1.346   4.645   4.963
    2MOL1    Cl 1498   5.238   0.405   4.547
    2MOL1     C 1499   5.117   0.284   4.501
    2MOL1    Cl 1500   5.169   0.122   4.550
    2MOL1    Cl 1501   4.960   0.323   4.573
    2MOL1     H 1502   5.106   0.285   4.392
    2MOL1    Cl 1503   4.381   4.710   0.185
    2MOL1     C 1504   4.335   4.867   0.252
    2MOL1    Cl 1505   4.382   4.879   0.422
    2MOL1    Cl 1506   4.408   4.998   0.158
    2MOL1     H 1507   4.226   4.876   0.245
    2MOL1    Cl 1508   0.512   2.554   3.881
    2MOL1     C 1509   0.662   2.639   3.920
    2MOL1    Cl 1510   0.669   2.678   4.092
    2MOL1    Cl 1511   0.802   2.541   3.873
    2MOL1     H 1512   0.665   2.732   3.863
    2MOL1    Cl 1513   3.900   1.307   1.657
    2MOL1     C 1514   4.074   1.338   1.660
    2MOL1    Cl 1515   4.106   1.512   1.665
    2MOL1    Cl 1516   4.149   1.258   1.799
    2MOL1     H 1517   4.119   1.297   1.569
    2MOL1    Cl 1518   1.401   5.061   0.340
    2MOL1     C 1519   1.474   4.900   0.356
    2MOL1    Cl 1520   1.604   4.902   0.476
    2MOL1    Cl 1521   1.351   4.780   0.398
    2MOL1     H 1522   1.517   4.872   0.259
    2MOL1    Cl 1523   3.451   1.198   4.065
    2MOL1     C 1524   3.286   1.138   4.041
    2MOL1    Cl 1525   3.261   1.092   3.872
    2MOL1    Cl 1526   3.253   1.001   4.148
    2MOL1     H 1527   3.216   1.218   4.066
    2MOL1    Cl 1528   4.744   3.557   3.840
    2MOL1     C 1529   4.629   3.527   3.708
    2MOL1    Cl 1530   4.570   3.360   3.713
    2MOL1    Cl 1531   4.494   3.642   3.716
    2MOL1     H 1532   4.682   3.542   3.613
    2MOL1    Cl 1533   1.338   0.684   0.575
    2MOL1     C 1534   1.374   0.854   0.609
    2MOL1    Cl 1535   1.471   0.870   0.756
    2MOL1    Cl 1536   1.456   0.929   0.471
    2MOL1     H 1537   1.279   0.906   0.625
    2MOL1    Cl 1538   1.244   1.974   1.040
    2MOL1     C 1539   1.261   2.086   1.176
    2MOL1    Cl 1540   1.428   2.142   1.191
    2MOL1    Cl 1541   1.151   2.224   1.157
    2MOL1     H 1542   1.234   2.033   1.268
    2MOL1    Cl 1543   3.544   2.970   2.253
    2MOL1     C 1544   3.495   3.076   2.386
    2MOL1    Cl 1545   3.369   3.189   2.334
    2MOL1    Cl 1546   3.439   2.980   2.524
    2MOL1     H 1547   3.582   3.134   2.418
    2MOL1    Cl 1548   3.298   3.537   2.682
    2MOL1     C 1549   3.241   3.571   2.846
    2MOL1    Cl 1550   3.086   3.492   2.876
    2MOL1    Cl 1551   3.362   3.520   2.965
    2MOL1     H 1552   3.227   3.679   2.856
    2MOL1    Cl 1553   1.216   1.135   0.445
    2MOL1     C 1554   1.330   1.132   0.310
    2MOL1    Cl 1555   1.304   0.988   0.210
    2MOL1    Cl 1556   1.315   1.279   0.212
    2MOL1     H 1557   1.432   1.128   0.350
    2MOL1    Cl 1558   2.881   0.198   0.916
    2MOL1     C 1559   3.056   0.184   0.898
    2MOL1    Cl 1560   3.120   0.060   1.008
    2MOL1    Cl 1561   3.099   0.146   0.730
    2MOL1     H 1562   3.102   0.279   0.924
    2MOL1    Cl 1563   2.046   3.231   0.952
    2MOL1     C 1564   1.955   3.376   0.997
    2MOL1    Cl 1565   1.860   3.347   1.144
    2MOL1    Cl 1566   2.064   3.514   1.020
    2MOL1     H 1567   1.886   3.400   0.916
    2MOL1    Cl 1568   2.951   3.934   1.991
    2MOL1     C 1569   2.979   3.759   1.980
    2MOL1    Cl 1570   3.042   3.697   2.133
    2MOL1    Cl 1571   2.830   3.674   1.935
    2MOL1     H 1572   3.053   3.741   1.902
    2MOL1    Cl 1573   4.710   0.384   3.954
    2MOL1     C 1574   4.650   0.473   4.094
    2MOL1    Cl 1575   4.720   0.409   4.244
    2MOL1    Cl 1576   4.684   0.646   4.078
    2MOL1     H 1577   4.541   0.460   4.099
    2MOL1    Cl 1578   4.648   3.203   4.812
    2MOL1     C 1579   4.651   3.028   4.785
    2MOL1    Cl 1580   4.758   2.949   4.901
    2MOL1    Cl 1581   4.487   2.961   4.796
    2MOL1     H 1582   4.689   3.009   4.684
    2MOL1    Cl 1583   0.962   4.699   2.499
    2MOL1     C 1584   1.106   4.664   2.403
    2MOL1    Cl 1585   1.212   4.806   2.394
    2MOL1    Cl 1586   1.194   4.526   2.471
    2MOL1     H 1587   1.075   4.638   2.302
    2MOL1    Cl 1588   5.135   0.382   0.436
    2MOL1     C 1589   5.120   0.222   0.361
    2MOL1    Cl 1590   5.092   0.238   0.187
    2MOL1    Cl 1591   5.265   0.125   0.392
    2MOL1     H 1592   5.034   0.171   0.405
    2MOL1    Cl 1593   4.307   0.195   3.040
    2MOL1     C 1594   4.455   0.098   3.051
    2MOL1    Cl 1595   4.587   0.175   2.962
    2MOL1    Cl 1596   4.500   0.073   3.220
    2MOL1     H 1597   4.435   0.000   3.006
    2MOL1    Cl 1598   4.533   0.330   3.729
    2MOL1     C 1599   4.589   0.490   3.681
    2MOL1    Cl 1600   4.764   0.506   3.708
    2MOL1    Cl 1601   4.550   0.523   3.511
    2MOL1     H 1602   4.538   0.565   3.743
    2MOL1    Cl 1603   3.561   4.947   4.455
    2MOL1     C 1604   3.624   5.112   4.452
    2MOL1    Cl 1605   3.557   5.203   4.315
    2MOL1    Cl 1606   3.590   5.195   4.605
    2MOL1     H 1607   3.733   5.107   4.439
    2MOL1    Cl 1608   1.370   2.039   1.517
    2MOL1     C 1609   1.421   1.880   1.575
    2MOL1    Cl 1610   1.437   1.767   1.439
    2MOL1    Cl 1611   1.574   1.892   1.664
    2MOL1     H 1612   1.345   1.841   1.643
    2MOL1    Cl 1613   5.323   0.117   1.611
    2MOL1     C 1614   5.253   0.213   1.480
    2MOL1    Cl 1615   5.076   0.216   1.492
    2MOL1    Cl 1616   5.318   0.378   1.482
    2MOL1     H 1617   5.280   0.167   1.385
    2MOL1    Cl 1618   3.321   1.645   2.897
    2MOL1     C 1619   3.338   1.792   2.799
    2MOL1    Cl 1620   3.454   1.766   2.668
    2MOL1    Cl 1621   3.180   1.841   2.733
    2MOL1     H 1622   3.374   1.872   2.863
    2MOL1    Cl 1623   3.662   0.314   0.410
    2MOL1     C 1624   3.653   0.427   0.546
    2MOL1    Cl 1625   3.497   0.413   0.628
    2MOL1    Cl 1626   3.786   0.398   0.659
    2MOL1     H 1627   3.663   0.528   0.507
    2MOL1    Cl 1628   0.756   1.484   2.204
    2MOL1     C 1629   0.745   1.405   2.045
    2MOL1    Cl 1630   0.712   1.232   2.064
    2MOL1    Cl 1631   0.620   1.482   1.946
    2MOL1     H 1632   0.841   1.416   1.995
    2MOL1    Cl 1633   2.750   3.904   1.193
    2MOL1     C 1634   2.828   3.803   1.316
    2MOL1    Cl 1635   2.951   3.895   1.404
    2MOL1    Cl 1636   2.707   3.737   1.428
    2MOL1     H 1637   2.877   3.719   1.265
    2MOL1    Cl 1638   2.330   2.514   4.366
    2MOL1     C 1639   2.471   2.575   4.454
    2MOL1    Cl 1640   2.482   2.751   4.439
    2MOL1    Cl 1641   2.462   2.528   4.625
    2MOL1     H 1642   2.561   2.531   4.411
    2MOL1    Cl 1643   0.534   2.503   0.960
    2MOL1     C 1644   0.568   2.339   0.903
    2MOL1    Cl 1645   0.492   2.219   1.009
    2MOL1    Cl 1646   0.513   2.318   0.736
    2MOL1     H 1647   0.676   2.324   0.906
    2MOL1    Cl 1648   2.590   0.218   1.533
    2MOL1     C 1649   2.542   0.387   1.551
    2MOL1    Cl 1650   2.365   0.402   1.552
    2MOL1    Cl 1651   2.611   0.457   1.698
    2MOL1     H 1652   2.580   0.443   1.465
    2MOL1    Cl 1653   2.292   3.536   0.165
    2MOL1     C 1654   2.460   3.590   0.148
    2MOL1    Cl 1655   2.532   3.524   0.000
    2MOL1    Cl 1656   2.470   3.767   0.148
    2MOL1     H 1657   2.517   3.552   0.234
    2MOL1    Cl 1658   0.258   3.319   5.043
    2MOL1     C 1659   0.159   3.439   4.958
    2MOL1    Cl 1660   0.030   3.500   5.064
    2MOL1    Cl 1661   0.260   3.573   4.900
    2MOL1     H 1662   0.113   3.391   4.872
    2MOL1    Cl 1663   4.007   1.857   1.699
    2MOL1     C 1664   3.835   1.898   1.688
    2MOL1    Cl 1665   3.785   1.910   1.519
    2MOL1    Cl 1666   3.737   1.779   1.775
    2MOL1     H 1667   3.820   1.996   1.736
    2MOL1    Cl 1668   2.202   2.976   2.676
    2MOL1     C 1669   2.237   2.818   2.748
    2MOL1    Cl 1670   2.359   2.834   2.876
    2MOL1    Cl 1671   2.090   2.744   2.812
    2MOL1     H 1672   2.278   2.753   2.670
    2MOL1    Cl 1673   4.556   2.755   0.735
    2MOL1     C 1674   4.457   2.894   0.688
    2MOL1    Cl 1675   4.550   3.004   0.585
    2MOL1    Cl 1676   4.310   2.841   0.605
    2MOL1     H 1677   4.428   2.948   0.779
    2MOL1    Cl 1678   5.226   4.316   1.662
    2MOL1     C 1679   5.098   4.303   1.783
    2MOL1    Cl 1680   5.136   4.175   1.900
    2MOL1    Cl 1681   5.074   4.458   1.866
    2MOL1     H 1682   5.005   4.276   1.733
    2MOL1    Cl 1683   3.379   1.812   3.755
    2MOL1     C 1684   3.281   1.677   3.813
    2MOL1    Cl 1685   3.364   1.592   3.945
    2MOL1    Cl 1686   3.122   1.734   3.867
    2MOL1     H 1687   3.267   1.607   3.731
    2MOL1    Cl 1688   1.039   3.899   2.422
    2MOL1     C 1689   0.928   3.764   2.446
    2MOL1    Cl 1690   1.002   3.639   2.549
    2MOL1    Cl 1691   0.776   3.820   2.518
    2MOL1     H 1692   0.905   3.719   2.349
    2MOL1    Cl 1693   2.970   4.166   2.123
    2MOL1     C 1694   3.037   4.127   2.283
    2MOL1    Cl 1695   2.933   4.192   2.411
    2MOL1    Cl 1696   3.057   3.952   2.302
    2MOL1     H 1697   3.135   4.174   2.291
    2MOL1    Cl 1698   1.304   3.098   2.218
    2MOL1     C 1699   1.400   3.026   2.349
    2MOL1    Cl 1700   1.466   3.152   2.454
    2MOL1    Cl 1701   1.302   2.912   2.443
    2MOL1     H 1702   1.484   2.971   2.304
    2MOL1    Cl 1703   4.504   0.288   5.228
    2MOL1     C 1704   4.605   0.152   5.179
    2MOL1    Cl 1705   4.545   0.082   5.027
    2MOL1    Cl 1706   4.774   0.202   5.162
    2MOL1     H 1707   4.599   0.075   5.256
    2MOL1    Cl 1708   4.067   4.802   2.463
    2MOL1     C 1709   4.125   4.966   2.432
    2MOL1    Cl 1710   4.208   5.030   2.575
    2MOL1    Cl 1711   4.233   4.968   2.291
    2MOL1     H 1712   4.039   5.030   2.411
    2MOL1    Cl 1713   1.335   4.923   3.100
    2MOL1     C 1714   1.446   5.060   3.087
    2MOL1    Cl 1715   1.553   5.068   3.228
    2MOL1    Cl 1716   1.541   5.049   2.938
    2MOL1     H 1717   1.387   5.152   3.084
    2MOL1    Cl 1718   3.306   5.210   3.668
    2MOL1     C 1719   3.379   5.065   3.738
    2MOL1    Cl 1720   3.478   5.107   3.878
    2MOL1    Cl 1721   3.254   4.948   3.783
    2MOL1     H 1722   3.443   5.019   3.663
    2MOL1    Cl 1723   3.794   2.119   4.875
    2MOL1     C 1724   3.640   2.206   4.869
    2MOL1    Cl 1725   3.532   2.135   4.748
    2MOL1    Cl 1726   3.562   2.206   5.029
    2MOL1     H 1727   3.660   2.310   4.841
    2MOL1    Cl 1728   5.029   4.305   2.499
    2MOL1     C 1729   4.869   4.250   2.552
    2MOL1    Cl 1730   4.870   4.216   2.726
    2MOL1    Cl 1731   4.746   4.371   2.513
    2MOL1     H 1732   4.845   4.158   2.499
    2MOL1    Cl 1733   4.855   3.213   2.550
    2MOL1     C 1734   5.011   3.145   2.499
    2MOL1    Cl 1735   4.989   3.031   2.366
    2MOL1    Cl 1736   5.123   3.275   2.453
    2MOL1     H 1737   5.054   3.091   2.584
    2MOL1    Cl 1738   1.274   2.340   0.801
    2MOL1     C 1739   1.434   2.294   0.863
    2MOL1    Cl 1740   1.534   2.226   0.734
    2MOL1    Cl 1741   1.514   2.433   0.938
    2MOL1     H 1742   1.420   2.217   0.940
    2MOL1    Cl 1743   1.263   1.914   3.992
    2MOL1     C 1744   1.128   1.987   4.081
    2MOL1    Cl 1745   1.011   2.058   3.969
    2MOL1    Cl 1746   1.050   1.867   4.185
    2MOL1     H 1747   1.168   2.067   4.144
    2MOL1    Cl 1748   3.944   3.615   1.380
    2MOL1     C 1749   4.084   3.517   1.335
    2MOL1    Cl 1750   4.230   3.577   1.415
    2MOL1    Cl 1751   4.057   3.347   1.376
    2MOL1     H 1752   4.099   3.524   1.227
    2MOL1    Cl 1753   0.150   5.330   2.117
    2MOL1     C 1754   0.234   5.175   2.119
    2MOL1    Cl 1755   0.385   5.187   2.211
    2MOL1    Cl 1756   0.130   5.049   2.187
    2MOL1     H 1757   0.258   5.147   2.016
    2MOL1    Cl 1758   1.314   2.560   1.926
    2MOL1     C 1759   1.328   2.547   1.750
    2MOL1    Cl 1760   1.473   2.455   1.706
    2MOL1    Cl 1761   1.183   2.471   1.682
    2MOL1     H 1762   1.337   2.648   1.709
    2MOL1    Cl 1763   0.887   2.271   4.152
    2MOL1     C 1764   0.727   2.306   4.220
    2MOL1    Cl 1765   0.736   2.321   4.396
    2MOL1    Cl 1766   0.659   2.452   4.148
    2MOL1     H 1767   0.661   2.222   4.196
    2MOL1    Cl 1768   1.243   0.864   5.254
    2MOL1     C 1769   1.085   0.903   5.183
    2MOL1    Cl 1770   1.079   1.074   5.136
    2MOL1    Cl 1771   1.053   0.799   5.043
    2MOL1     H 1772   1.008   0.885   5.258
    2MOL1    Cl 1773   3.502   2.858   1.141
    2MOL1     C 1774   3.613   2.944   1.033
    2MOL1    Cl 1775   3.706   2.829   0.935
    2MOL1    Cl 1776   3.525   3.057   0.930
    2MOL1     H 1777   3.683   3.001   1.095
    2MOL1    Cl 1778   3.662   4.843   2.940
    2MOL1     C 1779   3.676   5.005   3.009
    2MOL1    Cl 1780   3.542   5.038   3.120
    2MOL1    Cl 1781   3.832   5.024   3.091
    2MOL1     H 1782   3.672   5.078   2.927
    2MOL1    Cl 1783   4.698   3.038   5.130
    2MOL1     C 1784   4.624   3.196   5.160
    2MOL1    Cl 1785   4.453   3.178   5.205
    2MOL1    Cl 1786   4.712   3.284   5.287
    2MOL1     H 1787   4.629   3.255   5.068
    2MOL1    Cl 1788   4.281   2.854   2.975
    2MOL1     C 1789   4.456   2.835   2.961
    2MOL1    Cl 1790   4.538   2.921   3.093
    2MOL1    Cl 1791   4.501   2.664   2.962
    2MOL1     H 1792   4.488   2.879   2.866
    2MOL1    Cl 1793   2.519   4.424   3.547
    2MOL1     C 1794   2.350   4.475   3.533
    2MOL1    Cl 1795   2.337   4.624   3.438
    2MOL1    Cl 1796   2.252   4.346   3.461
    2MOL1     H 1797   2.312   4.495   3.634
    2MOL1    Cl 1798   3.653   2.372   0.906
    2MOL1     C 1799   3.577   2.236   0.989
    2MOL1    Cl 1800   3.407   2.270   1.023
    2MOL1    Cl 1801   3.593   2.088   0.893
    2MOL1     H 1802   3.629   2.220   1.084
    2MOL1    Cl 1803   2.557   2.012   2.742
    2MOL1     C 1804   2.414   2.116   2.738
    2MOL1    Cl 1805   2.317   2.083   2.593
    2MOL1    Cl 1806   2.317   2.094   2.885
    2MOL1     H 1807   2.447   2.221   2.734
    2MOL1    Cl 1808   3.096   2.881   3.391
    2MOL1     C 1809   2.956   2.948   3.475
    2MOL1    Cl 1810   2.833   2.823   3.502
    2MOL1    Cl 1811   3.004   3.021   3.629
    2MOL1     H 1812   2.912   3.026   3.413
    2MOL1    Cl 1813   5.018   1.829   1.519
    2MOL1     C 1814   5.002   1.903   1.679
    2MOL1    Cl 1815   5.130   1.846   1.787
    2MOL1    Cl 1816   5.006   2.080   1.666
    2MOL1     H 1817   4.906   1.874   1.721
    2MOL1    Cl 1818   1.800   1.462   3.595
    2MOL1     C 1819   1.655   1.360   3.604
    2MOL1    Cl 1820   1.521   1.450   3.677
    2MOL1    Cl 1821   1.611   1.301   3.443
    2MOL1     H 1822   1.678   1.274   3.668
    2MOL1    Cl 1823   3.302   4.226   2.104
    2MOL1     C 1824   3.417   4.188   2.234
    2MOL1    Cl 1825   3.509   4.332   2.279
    2MOL1    Cl 1826   3.332   4.121   2.374
    2MOL1     H 1827   3.487   4.113   2.197
    2MOL1    Cl 1828   2.131   3.414   0.486
    2MOL1     C 1829   2.083   3.584   0.476
    2MOL1    Cl 1830   1.995   3.615   0.325
    2MOL1    Cl 1831   1.984   3.628   0.616
    2MOL1     H 1832   2.173   3.645   0.477
    2MOL1    Cl 1833   4.443   2.097   3.286
    2MOL1     C 1834   4.616   2.129   3.271
    2MOL1    Cl 1835   4.705   1.977   3.247
    2MOL1    Cl 1836   4.648   2.240   3.137
    2MOL1     H 1837   4.651   2.175   3.363
    2MOL1    Cl 1838   2.540   4.031   1.401
    2MOL1     C 1839   2.435   3.889   1.408
    2MOL1    Cl 1840   2.271   3.930   1.356
    2MOL1    Cl 1841   2.501   3.758   1.308
    2MOL1     H 1842   2.431   3.854   1.511
    2MOL1    Cl 1843   0.927   5.074   4.801
    2MOL1     C 1844   1.014   4.920   4.795
    2MOL1    Cl 1845   0.927   4.803   4.695
    2MOL1    Cl 1846   1.179   4.944   4.733
    2MOL1     H 1847   1.021   4.880   4.897
    2MOL1    Cl 1848   3.510   3.073   3.733
    2MOL1     C 1849   3.660   3.167   3.738
    2MOL1    Cl 1850   3.635   3.321   3.821
    2MOL1    Cl 1851   3.789   3.074   3.817
    2MOL1     H 1852   3.691   3.187   3.635
    2MOL1    Cl 1853   3.844   4.048   1.250
    2MOL1     C 1854   3.780   3.885   1.224
    2MOL1    Cl 1855   3.646   3.888   1.109
    2MOL1    Cl 1856   3.908   3.776   1.168
    2MOL1     H 1857   3.743   3.847   1.320
    2MOL1    Cl 1858   2.521   1.214   3.747
    2MOL1     C 1859   2.487   1.255   3.916
    2MOL1    Cl 1860   2.625   1.215   4.019
    2MOL1    Cl 1861   2.445   1.426   3.931
    2MOL1     H 1862   2.401   1.196   3.949
    2MOL1    Cl 1863   2.108   3.489   4.822
    2MOL1     C 1864   2.158   3.654   4.863
    2MOL1    Cl 1865   2.036   3.733   4.965
    2MOL1    Cl 1866   2.315   3.652   4.944
    2MOL1     H 1867   2.168   3.711   4.770
    2MOL1    Cl 1868   4.259   3.715   3.241
    2MOL1     C 1869   4.338   3.873   3.246
    2MOL1    Cl 1870   4.452   3.891   3.112
    2MOL1    Cl 1871   4.218   4.003   3.243
    2MOL1     H 1872   4.394   3.881   3.340
    2MOL1    Cl 1873   3.058   1.530   5.158
    2MOL1     C 1874   3.089   1.573   4.989
    2MOL1    Cl 1875   2.937   1.614   4.907
    2MOL1    Cl 1876   3.204   1.708   4.979
    2MOL1     H 1877   3.133   1.487   4.939
    2MOL1    Cl 1878   2.456   4.145   5.244
    2MOL1     C 1879   2.542   3.991   5.234
    2MOL1    Cl 1880   2.452   3.875   5.136
    2MOL1    Cl 1881   2.705   4.015   5.169
    2MOL1     H 1882   2.551   3.950   5.336
    2MOL1    Cl 1883   0.517   0.544   4.124
    2MOL1     C 1884   0.677   0.618   4.138
    2MOL1    Cl 1885   0.700   0.688   4.299
    2MOL1    Cl 1886   0.804   0.499   4.103
    2MOL1     H 1887   0.684   0.698   4.064
    2MOL1    Cl 1888   3.732   1.031   2.045
    2MOL1     C 1889   3.577   0.944   2.050
    2MOL1    Cl 1890   3.470   1.000   1.921
    2MOL1    Cl 1891   3.604   0.769   2.037
    2MOL1     H 1892   3.529   0.964   2.146
    2MOL1    Cl 1893   2.795   0.276   2.514
    2MOL1     C 1894   2.837   0.115   2.574
    2MOL1    Cl 1895   2.691   0.015   2.592
    2MOL1    Cl 1896   2.952   0.036   2.465
    2MOL1     H 1897   2.884   0.125   2.672
    2MOL1    Cl 1898   2.629   4.455   2.620
    2MOL1     C 1899   2.719   4.558   2.507
    2MOL1    Cl 1900   2.735   4.478   2.350
    2MOL1    Cl 1901   2.640   4.715   2.489
    2MOL1     H 1902   2.819   4.574   2.548
    2MOL1    Cl 1903   0.723   1.105   2.254
    2MOL1     C 1904   0.866   1.003   2.228
    2MOL1    Cl 1905   0.827   0.867   2.122
    2MOL1    Cl 1906   0.999   1.099   2.161
    2MOL1     H 1907   0.898   0.963   2.325
    2MOL1    Cl 1908   2.372   4.220   3.319
    2MOL1     C 1909   2.394   4.353   3.205
    2MOL1    Cl 1910   2.366   4.298   3.039
    2MOL1    Cl 1911   2.287   4.488   3.245
    2MOL1     H 1912   2.498   4.388   3.212
    2MOL1    Cl 1913   4.111   1.763   4.863
    2MOL1     C 1914   4.234   1.860   4.779
    2MOL1    Cl 1915   4.369   1.896   4.887
    2MOL1    Cl 1916   4.291   1.776   4.634
    2MOL1     H 1917   4.188   1.954   4.749
    2MOL1    Cl 1918   0.553   0.523   0.364
    2MOL1     C 1919   0.403   0.491   0.275
    2MOL1    Cl 1920   0.384   0.318   0.244
    2MOL1    Cl 1921   0.263   0.553   0.365
    2MOL1     H 1922   0.408   0.543   0.179
    2MOL1    Cl 1923   3.819   3.946   5.167
    2MOL1     C 1924   3.990   3.956   5.211
    2MOL1    Cl 1925   4.090   3.984   5.067
    2MOL1    Cl 1926   4.016   4.084   5.331
    2MOL1     H 1927   4.020   3.861   5.255
    2MOL1    Cl 1928   1.971   2.557   2.715
    2MOL1     C 1929   1.997   2.384   2.740
    2MOL1    Cl 1930   2.169   2.344   2.725
    2MOL1    Cl 1931   1.936   2.334   2.899
    2MOL1     H 1932   1.942   2.329   2.663
    2MOL1    Cl 1933   1.983   4.224   1.482
    2MOL1     C 1934   2.107   4.167   1.595
    2MOL1    Cl 1935   2.174   4.303   1.688
    2MOL1    Cl 1936   2.040   4.044   1.703
    2MOL1     H 1937   2.188   4.122   1.537
    2MOL1    Cl 1938   4.232   3.659   1.724
    2MOL1     C 1939   4.111   3.613   1.844
    2MOL1    Cl 1940   4.187   3.534   1.983
    2MOL1    Cl 1941   4.018   3.755   1.896
    2MOL1     H 1942   4.042   3.542   1.798
    2MOL1    Cl 1943   2.441   4.599   0.664
    2MOL1     C 1944   2.601   4.670   0.636
    2MOL1    Cl 1945   2.633   4.684   0.462
    2MOL1    Cl 1946   2.615   4.828   0.715
    2MOL1     H 1947   2.676   4.603   0.679
    2MOL1    Cl 1948   2.996   2.489   4.710
    2MOL1     C 1949   2.853   2.384   4.721
    2MOL1    Cl 1950   2.889   2.241   4.819
    2MOL1    Cl 1951   2.716   2.473   4.789
    2MOL1     H 1952   2.827   2.352   4.620
    2MOL1    Cl 1953   1.382   3.304   2.704
    2MOL1     C 1954   1.551   3.354   2.693
    2MOL1    Cl 1955   1.659   3.213   2.693
    2MOL1    Cl 1956   1.577   3.452   2.547
    2MOL1     H 1957   1.575   3.416   2.780
    2MOL1    Cl 1958   0.802   4.090   4.955
    2MOL1     C 1959   0.736   4.252   4.935
    2MOL1    Cl 1960   0.857   4.361   4.865
    2MOL1    Cl 1961   0.590   4.248   4.833
    2MOL1     H 1962   0.708   4.291   5.033
    2MOL1    Cl 1963   0.142   2.493   1.767
    2MOL1     C 1964   0.276   2.378   1.786
    2MOL1    Cl 1965   0.404   2.449   1.886
    2MOL1    Cl 1966   0.218   2.226   1.857
    2MOL1     H 1967   0.317   2.357   1.687
    2MOL1    Cl 1968   4.594   0.849   4.159
    2MOL1     C 1969   4.445   0.945   4.166
    2MOL1    Cl 1970   4.328   0.869   4.275
    2MOL1    Cl 1971   4.481   1.111   4.218
    2MOL1     H 1972   4.402   0.949   4.066
    2MOL1    Cl 1973   3.786   1.032   0.493
    2MOL1     C 1974   3.953   1.087   0.468
    2MOL1    Cl 1975   4.025   1.006   0.328
    2MOL1    Cl 1976   3.958   1.263   0.449
    2MOL1     H 1977   4.011   1.060   0.557
    2MOL1    Cl 1978   1.811   1.908   3.857
    2MOL1     C 1979   1.865   1.743   3.892
    2MOL1    Cl 1980   1.969   1.740   4.035
    2MOL1    Cl 1981   1.727   1.635   3.914
    2MOL1     H 1982   1.923   1.707   3.806
    2MOL1    Cl 1983   0.217   1.677   2.129
    2MOL1     C 1984   0.232   1.831   2.043
    2MOL1    Cl 1985   0.092   1.857   1.937
    2MOL1    Cl 1986   0.248   1.965   2.157
    2MOL1     H 1987   0.321   1.827   1.981
    2MOL1    Cl 1988   1.618   0.496   3.534
    2MOL1     C 1989   1.680   0.610   3.413
    2MOL1    Cl 1990   1.690   0.533   3.254
    2MOL1    Cl 1991   1.577   0.754   3.406
    2MOL1     H 1992   1.780   0.641   3.443
    2MOL1    Cl 1993   2.274   4.213   1.341
    2MOL1     C 1994   2.184   4.231   1.189
    2MOL1    Cl 1995   2.124   4.397   1.171
    2MOL1    Cl 1996   2.285   4.186   1.051
    2MOL1     H 1997   2.098   4.164   1.192
    2MOL1    Cl 1998   3.498   1.828   4.205
    2MOL1     C 1999   3.513   1.785   4.376
    2MOL1    Cl 2000   3.617   1.900   4.460
    2MOL1    Cl 2001   3.353   1.778   4.452
    2MOL1     H 2002   3.558   1.686   4.382
    2MOL1    Cl 2003   2.007   3.753   4.132
    2MOL1     C 2004   2.182   3.747   4.160
    2MOL1    Cl 2005   2.224   3.840   4.305
    2MOL1    Cl 2006   2.237   3.579   4.176
    2MOL1     H 2007   2.232   3.792   4.075
    2MOL1    Cl 2008   3.316   0.894   4.949
    2MOL1     C 2009   3.164   0.984   4.964
    2MOL1    Cl 2010   3.171   1.133   4.867
    2MOL1    Cl 2011   3.026   0.884   4.915
    2MOL1     H 2012   3.151   1.012   5.068
    2MOL1    Cl 2013   2.968   2.663   2.391
    2MOL1     C 2014   3.090   2.791   2.407
    2MOL1    Cl 2015   3.040   2.937   2.320
    2MOL1    Cl 2016   3.120   2.827   2.578
    2MOL1     H 2017   3.183   2.755   2.363
    2MOL1    Cl 2018   4.673   4.408   0.838
    2MOL1     C 2019   4.741   4.244   0.833
    2MOL1    Cl 2020   4.898   4.239   0.915
    2MOL1    Cl 2021   4.628   4.128   0.907
    2MOL1     H 2022   4.756   4.216   0.729
    2MOL1    Cl 2023   2.150   2.953   4.517
    2MOL1     C 2024   2.071   2.836   4.410
    2MOL1    Cl 2025   2.119   2.671   4.450
    2MOL1    Cl 2026   1.894   2.853   4.419
    2MOL1     H 2027   2.102   2.857   4.307
    2MOL1    Cl 2028   2.553   4.246   4.335
    2MOL1     C 2029   2.569   4.097   4.430
    2MOL1    Cl 2030   2.659   4.127   4.579
    2MOL1    Cl 2031   2.409   4.029   4.466
    2MOL1     H 2032   2.624   4.024   4.371
    2MOL1    Cl 2033   4.325   5.275   2.616
    2MOL1     C 2034   4.443   5.143   2.609
    2MOL1    Cl 2035   4.601   5.198   2.669
    2MOL1    Cl 2036   4.386   5.004   2.702
    2MOL1     H 2037   4.455   5.113   2.504
    2MOL1    Cl 2038   1.601   3.777   2.177
    2MOL1     C 2039   1.773   3.735   2.182
    2MOL1    Cl 2040   1.839   3.762   2.344
    2MOL1    Cl 2041   1.798   3.567   2.131
    2MOL1     H 2042   1.826   3.800   2.111
    2MOL1    Cl 2043   3.536   0.808   0.895
    2MOL1     C 2044   3.447   0.802   1.048
    2MOL1    Cl 2045   3.422   0.635   1.099
    2MOL1    Cl 2046   3.534   0.894   1.173
    2MOL1     H 2047   3.349   0.849   1.033
    2MOL1    Cl 2048   0.294   3.902   3.123
    2MOL1     C 2049   0.321   3.738   3.063
    2MOL1    Cl 2050   0.173   3.641   3.079
    2MOL1    Cl 2051   0.376   3.741   2.895
    2MOL1     H 2052   0.399   3.691   3.124
    2MOL1    Cl 2053   2.897   2.598   4.876
    2MOL1     C 2054   2.882   2.748   4.784
    2MOL1    Cl 2055   3.009   2.758   4.661
    2MOL1    Cl 2056   2.722   2.760   4.709
    2MOL1     H 2057   2.894   2.832   4.853
    2MOL1    Cl 2058   2.407   0.717   0.793
    2MOL1     C 2059   2.278   0.672   0.680
    2MOL1    Cl 2060   2.287   0.499   0.642
    2MOL1    Cl 2061   2.119   0.713   0.747
    2MOL1     H 2062   2.292   0.728   0.588
    2MOL1    Cl 2063   3.002   0.118   2.231
    2MOL1     C 2064   2.954   0.288   2.227
    2MOL1    Cl 2065   2.777   0.303   2.218
    2MOL1    Cl 2066   3.016   0.374   2.370
    2MOL1     H 2067   2.997   0.334   2.138
    2MOL1    Cl 2068   1.886   3.673   4.613
    2MOL1     C 2069   1.795   3.534   4.674
    2MOL1    Cl 2070   1.621   3.559   4.651
    2MOL1    Cl 2071   1.847   3.385   4.595
    2MOL1     H 2072   1.815   3.525   4.781
    2MOL1    Cl 2073   0.647   2.762   0.841
    2MOL1     C 2074   0.790   2.821   0.755
    2MOL1    Cl 2075   0.935   2.802   0.855
    2MOL1    Cl 2076   0.809   2.737   0.600
    2MOL1     H 2077   0.776   2.928   0.734
    2MOL1    Cl 2078   3.000   0.233   3.237
    2MOL1     C 2079   2.970   0.249   3.410
    2MOL1    Cl 2080   3.086   0.361   3.484
    2MOL1    Cl 2081   2.804   0.305   3.439
    2MOL1     H 2082   2.982   0.151   3.457
    2MOL1    Cl 2083   1.927   2.958   1.079
    2MOL1     C 2084   2.071   3.021   1.160
    2MOL1    Cl 2085   2.091   2.945   1.319
    2MOL1    Cl 2086   2.215   2.994   1.060
    2MOL1     H 2087   2.058   3.128   1.174
    2MOL1    Cl 2088   3.156   5.318   3.976
    2MOL1     C 2089   3.158   5.141   3.968
    2MOL1    Cl 2090   3.083   5.071   4.112
    2MOL1    Cl 2091   3.077   5.085   3.821
    2MOL1     H 2092   3.262   5.108   3.964
    2MOL1    Cl 2093   0.176   0.321   4.216
    2MOL1     C 2094   0.319   0.423   4.191
    2MOL1    Cl 2095   0.434   0.344   4.082
    2MOL1    Cl 2096   0.271   0.581   4.128
    2MOL1     H 2097   0.367   0.438   4.288
    2MOL1    Cl 2098   2.395   2.797   4.015
    2MOL1     C 2099   2.435   2.625   4.005
    2MOL1    Cl 2100   2.493   2.583   3.843
    2MOL1    Cl 2101   2.556   2.582   4.128
    2MOL1     H 2102   2.344   2.567   4.026
    2MOL1    Cl 2103   0.955   1.376   0.210
    2MOL1     C 2104   0.780   1.384   0.240
    2MOL1    Cl 2105   0.733   1.269   0.366
    2MOL1    Cl 2106   0.733   1.549   0.285
    2MOL1     H 2107   0.728   1.358   0.148
    2MOL1    Cl 2108   4.506   2.867   1.934
    2MOL1     C 2109   4.624   2.997   1.950
    2MOL1    Cl 2110   4.566   3.121   2.063
    2MOL1    Cl 2111   4.781   2.933   2.003
    2MOL1     H 2112   4.638   3.044   1.852
    2MOL1    Cl 2113   3.199   3.399   0.558
    2MOL1     C 2114   3.114   3.251   0.604
    2MOL1    Cl 2115   2.987   3.212   0.486
    2MOL1    Cl 2116   3.228   3.116   0.620
    2MOL1     H 2117   3.066   3.267   0.702
    2MOL1    Cl 2118   2.709   4.830   1.655
    2MOL1     C 2119   2.579   4.922   1.578
    2MOL1    Cl 2120   2.552   4.866   1.412
    2MOL1    Cl 2121   2.430   4.911   1.673
    2MOL1     H 2122   2.609   5.027   1.574
    2MOL1    Cl 2123   2.524   4.086   5.006
    2MOL1     C 2124   2.665   4.047   4.907
    2MOL1    Cl 2125   2.814   4.101   4.987
    2MOL1    Cl 2126   2.672   3.873   4.874
    2MOL1     H 2127   2.656   4.100   4.812
    2MOL1    Cl 2128   4.173   4.037   2.577
    2MOL1     C 2129   4.059   4.038   2.713
    2MOL1    Cl 2130   4.146   4.030   2.867
    2MOL1    Cl 2131   3.956   4.182   2.707
    2MOL1     H 2132   3.995   3.950   2.705
    2MOL1    Cl 2133   2.454   1.530   2.594
    2MOL1     C 2134   2.339   1.560   2.462
    2MOL1    Cl 2135   2.173   1.549   2.522
    2MOL1    Cl 2136   2.368   1.718   2.388
    2MOL1     H 2137   2.354   1.483   2.386
    2MOL1    Cl 2138   5.052   2.270   0.704
    2MOL1     C 2139   4.911   2.376   0.685
    2MOL1    Cl 2140   4.951   2.515   0.583
    2MOL1    Cl 2141   4.775   2.286   0.616
    2MOL1     H 2142   4.882   2.412   0.783
    2MOL1    Cl 2143   4.194   0.631   3.336
    2MOL1     C 2144   4.256   0.535   3.201
    2MOL1    Cl 2145   4.124   0.450   3.119
    2MOL1    Cl 2146   4.344   0.638   3.086
    2MOL1     H 2147   4.325   0.460   3.240
    2MOL1    Cl 2148   5.005   2.384   0.235
    2MOL1     C 2149   4.868   2.362   0.125
    2MOL1    Cl 2150   4.823   2.515   0.050
    2MOL1    Cl 2151   4.906   2.241   0.001
    2MOL1     H 2152   4.782   2.325   0.183
    2MOL1    Cl 2153   0.712   3.451   5.340
    2MOL1     C 2154   0.715   3.615   5.275
    2MOL1    Cl 2155   0.574   3.707   5.331
    2MOL1    Cl 2156   0.865   3.698   5.320
    2MOL1     H 2157   0.710   3.609   5.166
    2MOL1    Cl 2158   3.466   1.141   1.197
    2MOL1     C 2159   3.409   1.224   1.051
    2MOL1    Cl 2160   3.543   1.252   0.939
    2MOL1    Cl 2161   3.280   1.131   0.973
    2MOL1     H 2162   3.368   1.321   1.081
    2MOL1    Cl 2163   2.939   4.454   4.658
    2MOL1     C 2164   2.852   4.351   4.773
    2MOL1    Cl 2165   2.678   4.385   4.767
    2MOL1    Cl 2166   2.884   4.180   4.740
    2MOL1     H 2167   2.888   4.374   4.874
    2MOL1    Cl 2168   1.454   5.336   0.492
    2MOL1     C 2169   1.515   5.261   0.640
    2MOL1    Cl 2170   1.398   5.144   0.704
    2MOL1    Cl 2171   1.671   5.182   0.610
    2MOL1     H 2172   1.530   5.339   0.715
    2MOL1    Cl 2173   1.540   3.341   4.628
    2MOL1     C 2174   1.418   3.325   4.500
    2MOL1    Cl 2175   1.490   3.351   4.341
    2MOL1    Cl 2176   1.340   3.166   4.508
    2MOL1     H 2177   1.341   3.401   4.516
    2MOL1    Cl 2178   0.969   2.318   2.397
    2MOL1     C 2179   1.142   2.280   2.412
    2MOL1    Cl 2180   1.189   2.156   2.295
    2MOL1    Cl 2181   1.240   2.426   2.390
    2MOL1     H 2182   1.160   2.242   2.512
    2MOL1    Cl 2183   1.198   1.381   0.683
    2MOL1     C 2184   1.356   1.381   0.603
    2MOL1    Cl 2185   1.400   1.217   0.553
    2MOL1    Cl 2186   1.356   1.491   0.464
    2MOL1     H 2187   1.431   1.416   0.675
    2MOL1    Cl 2188   2.812   3.854   0.407
    2MOL1     C 2189   2.791   4.011   0.327
    2MOL1    Cl 2190   2.944   4.066   0.257
    2MOL1    Cl 2191   2.665   4.001   0.203
    2MOL1     H 2192   2.760   4.084   0.402
    2MOL1    Cl 2193   5.015   2.034   0.909
    2MOL1     C 2194   5.104   1.885   0.874
    2MOL1    Cl 2195   5.202   1.903   0.728
    2MOL1    Cl 2196   5.206   1.839   1.012
    2MOL1     H 2197   5.032   1.804   0.857
    2MOL1    Cl 2198   3.235   4.816   4.273
    2MOL1     C 2199   3.246   4.753   4.108
    2MOL1    Cl 2200   3.118   4.822   4.007
    2MOL1    Cl 2201   3.406   4.785   4.039
    2MOL1     H 2202   3.232   4.644   4.112
    2MOL1    Cl 2203   0.220   3.284   3.432
    2MOL1     C 2204   0.389   3.234   3.415
    2MOL1    Cl 2205   0.399   3.069   3.351
    2MOL1    Cl 2206   0.478   3.346   3.311
    2MOL1     H 2207   0.435   3.234   3.514
    2MOL1    Cl 2208   3.031   0.504   1.989
    2MOL1     C 2209   2.875   0.561   1.927
    2MOL1    Cl 2210   2.748   0.441   1.958
    2MOL1    Cl 2211   2.832   0.717   1.998
    2MOL1     H 2212   2.884   0.574   1.819
    2MOL1    Cl 2213   4.683   5.044   4.441
    2MOL1     C 2214   4.829   5.011   4.348
    2MOL1    Cl 2215   4.809   4.864   4.250
    2MOL1    Cl 2216   4.870   5.149   4.244
    2MOL1     H 2217   4.912   4.995   4.417
    2MOL1    Cl 2218   3.941   1.081   1.950
    2MOL1     C 2219   4.062   0.993   2.045
    2MOL1    Cl 2220   3.994   0.943   2.201
    2MOL1    Cl 2221   4.122   0.853   1.955
    2MOL1     H 2222   4.146   1.061   2.064
    2MOL1    Cl 2223   2.316   4.894   2.312
    2MOL1     C 2224   2.302   4.754   2.419
    2MOL1    Cl 2225   2.139   4.685   2.411
    2MOL1    Cl 2226   2.424   4.632   2.376
    2MOL1     H 2227   2.321   4.786   2.521
    2MOL1    Cl 2228   2.441   2.669   0.845
    2MOL1     C 2229   2.282   2.622   0.906
    2MOL1    Cl 2230   2.236   2.722   1.044
    2MOL1    Cl 2231   2.160   2.633   0.777
    2MOL1     H 2232   2.287   2.518   0.939
    2MOL1    Cl 2233   2.243   4.758   0.569
    2MOL1     C 2234   2.191   4.765   0.400
    2MOL1    Cl 2235   2.025   4.706   0.384
    2MOL1    Cl 2236   2.205   4.930   0.337
    2MOL1     H 2237   2.257   4.701   0.341
    2MOL1    Cl 2238   3.782   1.113   2.459
    2MOL1     C 2239   3.606   1.134   2.451
    2MOL1    Cl 2240   3.524   1.017   2.557
    2MOL1    Cl 2241   3.561   1.299   2.494
    2MOL1     H 2242   3.574   1.115   2.348
    2MOL1    Cl 2243   3.688   3.851   0.866
    2MOL1     C 2244   3.730   4.023   0.860
    2MOL1    Cl 2245   3.835   4.056   0.720
    2MOL1    Cl 2246   3.584   4.123   0.853
    2MOL1     H 2247   3.785   4.048   0.951
    2MOL1    Cl 2248   1.559   4.297   2.157
    2MOL1     C 2249   1.731   4.257   2.167
    2MOL1    Cl 2250   1.769   4.118   2.065
    2MOL1    Cl 2251   1.830   4.397   2.121
    2MOL1     H 2252   1.754   4.232   2.271
    2MOL1    Cl 2253   5.121   2.770   2.956
    2MOL1     C 2254   4.952   2.787   3.009
    2MOL1    Cl 2255   4.849   2.671   2.925
    2MOL1    Cl 2256   4.940   2.767   3.185
    2MOL1     H 2257   4.918   2.888   2.984
    2MOL1    Cl 2258   1.447   1.220   2.225
    2MOL1     C 2259   1.612   1.283   2.241
    2MOL1    Cl 2260   1.614   1.423   2.350
    2MOL1    Cl 2261   1.722   1.157   2.298
    2MOL1     H 2262   1.646   1.316   2.142
    2MOL1    Cl 2263   0.178   0.380   1.371
    2MOL1     C 2264   0.136   0.495   1.499
    2MOL1    Cl 2265   0.000   0.435   1.595
    2MOL1    Cl 2266   0.276   0.528   1.602
    2MOL1     H 2267   0.106   0.589   1.452
    2MOL1    Cl 2268   1.158   4.226   0.118
    2MOL1     C 2269   1.074   4.329   0.235
    2MOL1    Cl 2270   1.012   4.475   0.157
    2MOL1    Cl 2271   0.943   4.239   0.313
    2MOL1     H 2272   1.146   4.359   0.312
    2MOL1    Cl 2273   2.900   2.670   0.753
    2MOL1     C 2274   3.061   2.741   0.766
    2MOL1    Cl 2275   3.061   2.878   0.879
    2MOL1    Cl 2276   3.179   2.619   0.817
    2MOL1     H 2277   3.091   2.778   0.667
    2MOL1    Cl 2278   0.479   2.092   2.447
    2MOL1     C 2279   0.618   2.007   2.516
    2MOL1    Cl 2280   0.583   1.954   2.681
    2MOL1    Cl 2281   0.665   1.870   2.415
    2MOL1     H 2282   0.702   2.077   2.520
    2MOL1    Cl 2283   2.658   0.630   4.905
    2MOL1     C 2284   2.611   0.777   4.993
    2MOL1    Cl 2285   2.646   0.760   5.166
    2MOL1    Cl 2286   2.693   0.919   4.926
    2MOL1     H 2287   2.503   0.791   4.981
    2MOL1    Cl 2288   0.292   4.433   4.296
    2MOL1     C 2289   0.416   4.326   4.229
    2MOL1    Cl 2290   0.570   4.413   4.211
    2MOL1    Cl 2291   0.437   4.182   4.330
    2MOL1     H 2292   0.384   4.294   4.130
    2MOL1    Cl 2293   4.941   4.123   1.467
    2MOL1     C 2294   5.047   3.994   1.526
    2MOL1    Cl 2295   5.169   4.059   1.637
    2MOL1    Cl 2296   4.952   3.868   1.606
    2MOL1     H 2297   5.098   3.949   1.441
    2MOL1    Cl 2298   2.434   2.323   0.372
    2MOL1     C 2299   2.595   2.327   0.447
    2MOL1    Cl 2300   2.635   2.170   0.519
    2MOL1    Cl 2301   2.718   2.374   0.328
    2MOL1     H 2302   2.594   2.402   0.527
    2MOL1    Cl 2303   5.040   5.061   3.664
    2MOL1     C 2304   5.208   5.049   3.610
    2MOL1    Cl 2305   5.246   4.883   3.560
    2MOL1    Cl 2306   5.239   5.162   3.476
    2MOL1     H 2307   5.273   5.075   3.693
    2MOL1    Cl 2308   3.193   2.490   2.220
    2MOL1     C 2309   3.355   2.456   2.158
    2MOL1    Cl 2310   3.472   2.573   2.222
    2MOL1    Cl 2311   3.404   2.290   2.199
    2MOL1     H 2312   3.353   2.465   2.049
    2MOL1    Cl 2313   3.965   1.291   5.055
    2MOL1     C 2314   4.076   1.281   5.193
    2MOL1    Cl 2315   4.052   1.420   5.301
    2MOL1    Cl 2316   4.053   1.129   5.281
    2MOL1     H 2317   4.178   1.284   5.155
    2MOL1    Cl 2318   1.207   2.161   4.509
    2MOL1     C 2319   1.098   2.023   4.484
    2MOL1    Cl 2320   1.108   1.910   4.620
    2MOL1    Cl 2321   0.931   2.079   4.462
    2MOL1     H 2322   1.128   1.971   4.393
    2MOL1    Cl 2323   0.314   0.411   2.225
    2MOL1     C 2324   0.429   0.324   2.122
    2MOL1    Cl 2325   0.435   0.153   2.167
    2MOL1    Cl 2326   0.385   0.342   1.951
    2MOL1     H 2327   0.528   0.367   2.137
    2MOL1    Cl 2328   3.987   0.427   1.108
    2MOL1     C 2329   3.810   0.443   1.103
    2MOL1    Cl 2330   3.757   0.483   0.939
    2MOL1    Cl 2331   3.733   0.294   1.159
    2MOL1     H 2332   3.781   0.524   1.170
    2MOL1    Cl 2333   3.112   2.385   3.746
    2MOL1     C 2334   3.146   2.279   3.608
    2MOL1    Cl 2335   3.095   2.356   3.457
    2MOL1    Cl 2336   3.318   2.238   3.601
    2MOL1     H 2337   3.089   2.187   3.620
    2MOL1    Cl 2338   3.695   2.780   3.662
    2MOL1     C 2339   3.744   2.859   3.511
    2MOL1    Cl 2340   3.851   2.753   3.417
    2MOL1    Cl 2341   3.602   2.905   3.415
    2MOL1     H 2342   3.799   2.950   3.536
    2MOL1    Cl 2343   3.100   4.506   1.792
    2MOL1     C 2344   3.241   4.400   1.780
    2MOL1    Cl 2345   3.287   4.376   1.610
    2MOL1    Cl 2346   3.377   4.465   1.873
    2MOL1     H 2347   3.215   4.302   1.822
    2MOL1    Cl 2348   0.339   1.340   4.206
    2MOL1     C 2349   0.514   1.332   4.233
    2MOL1    Cl 2350   0.581   1.183   4.165
    2MOL1    Cl 2351   0.594   1.474   4.164
    2MOL1     H 2352   0.532   1.331   4.341
    2MOL1    Cl 2353   0.283   1.822   1.493
    2MOL1     C 2354   0.365   1.898   1.631
    2MOL1    Cl 2355   0.451   1.777   1.727
    2MOL1    Cl 2356   0.476   2.025   1.576
    2MOL1     H 2357   0.289   1.944   1.695
    2MOL1    Cl 2358   0.180   2.815   1.245
    2MOL1     C 2359   0.109   2.937   1.352
    2MOL1    Cl 2360   0.153   2.905   1.521
    2MOL1    Cl 2361   0.160   3.100   1.304
    2MOL1     H 2362   0.000   2.931   1.343
    2MOL1    Cl 2363   0.807   3.615   0.249
    2MOL1     C 2364   0.832   3.609   0.074
    2MOL1    Cl 2365   0.790   3.765   0.000
    2MOL1    Cl 2366   0.999   3.565   0.036
    2MOL1     H 2367   0.766   3.533   0.032
    2MOL1    Cl 2368   3.740   1.184   1.569
    2MOL1     C 2369   3.626   1.309   1.518
    2MOL1    Cl 2370   3.460   1.247   1.523
    2MOL1    Cl 2371   3.641   1.452   1.621
    2MOL1     H 2372   3.649   1.338   1.416
    2MOL1    Cl 2373   3.292   1.655   4.690
    2MOL1     C 2374   3.448   1.696   4.762
    2MOL1    Cl 2375   3.579   1.607   4.682
    2MOL1    Cl 2376   3.477   1.871   4.753
    2MOL1     H 2377   3.447   1.667   4.867
    2MOL1    Cl 2378   0.758   3.826   4.283
    2MOL1     C 2379   0.693   3.990   4.303
    2MOL1    Cl 2380   0.772   4.072   4.438
    2MOL1    Cl 2381   0.714   4.083   4.153
    2MOL1     H 2382   0.586   3.982   4.324
    2MOL1    Cl 2383   1.045   2.561   1.368
    2MOL1     C 2384   0.967   2.685   1.468
    2MOL1    Cl 2385   0.872   2.609   1.598
    2MOL1    Cl 2386   1.087   2.796   1.536
    2MOL1     H 2387   0.899   2.742   1.405
    2MOL1    Cl 2388   4.247   5.158   5.257
    2MOL1     C 2389   4.396   5.083   5.196
    2MOL1    Cl 2390   4.523   5.204   5.176
    2MOL1    Cl 2391   4.449   4.954   5.306
    2MOL1     H 2392   4.374   5.038   5.099
    2MOL1    Cl 2393   4.508   1.045   0.398
    2MOL1     C 2394   4.428   1.173   0.305
    2MOL1    Cl 2395   4.498   1.184   0.142
    2MOL1    Cl 2396   4.254   1.143   0.296
    2MOL1     H 2397   4.445   1.268   0.356
    2MOL1    Cl 2398   3.075   0.909   3.665
    2MOL1     C 2399   3.104   0.825   3.512
    2MOL1    Cl 2400   2.969   0.853   3.399
    2MOL1    Cl 2401   3.257   0.878   3.440
    2MOL1     H 2402   3.110   0.718   3.531
    2MOL1    Cl 2403   4.395   1.447   5.123
    2MOL1     C 2404   4.373   1.354   4.975
    2MOL1    Cl 2405   4.496   1.397   4.855
    2MOL1    Cl 2406   4.378   1.180   5.009
    2MOL1     H 2407   4.274   1.378   4.933
    2MOL1    Cl 2408   4.841   2.303   3.839
    2MOL1     C 2409   4.753   2.152   3.813
    2MOL1    Cl 2410   4.792   2.084   3.654
    2MOL1    Cl 2411   4.791   2.035   3.941
    2MOL1     H 2412   4.646   2.173   3.816
    2MOL1    Cl 2413   0.186   4.996   3.782
    2MOL1     C 2414   0.100   4.894   3.666
    2MOL1    Cl 2415   0.000   4.775   3.750
    2MOL1    Cl 2416   0.001   4.994   3.557
    2MOL1     H 2417   0.174   4.841   3.605
    2MOL1    Cl 2418   3.298   0.829   3.926
    2MOL1     C 2419   3.389   0.739   3.803
    2MOL1    Cl 2420   3.303   0.591   3.758
    2MOL1    Cl 2421   3.418   0.840   3.660
    2MOL1     H 2422   3.486   0.711   3.846
    2MOL1    Cl 2423   3.813   3.677   1.678
    2MOL1     C 2424   3.896   3.829   1.641
    2MOL1    Cl 2425   4.054   3.797   1.567
    2MOL1    Cl 2426   3.796   3.929   1.534
    2MOL1     H 2427   3.912   3.883   1.734
    2MOL1    Cl 2428   0.570   0.005   1.297
    2MOL1     C 2429   0.539   0.164   1.367
    2MOL1    Cl 2430   0.689   0.259   1.376
    2MOL1    Cl 2431   0.416   0.251   1.273
    2MOL1     H 2432   0.501   0.150   1.469
    2MOL1    Cl 2433   2.163   3.908   3.527
    2MOL1     C 2434   2.167   3.983   3.687
    2MOL1    Cl 2435   2.103   3.871   3.809
    2MOL1    Cl 2436   2.332   4.033   3.729
    2MOL1     H 2437   2.103   4.072   3.685
    2MOL1    Cl 2438   4.683   4.014   1.318
    2MOL1     C 2439   4.517   3.965   1.356
    2MOL1    Cl 2440   4.414   3.974   1.212
    2MOL1    Cl 2441   4.515   3.801   1.424
    2MOL1     H 2442   4.477   4.033   1.431
    2MOL1    Cl 2443   3.100   4.262   4.520
    2MOL1     C 2444   3.199   4.390   4.592
    2MOL1    Cl 2445   3.184   4.389   4.768
    2MOL1    Cl 2446   3.369   4.372   4.544
    2MOL1     H 2447   3.163   4.487   4.555
    2MOL1    Cl 2448   1.987   1.707   4.812
    2MOL1     C 2449   2.066   1.865   4.805
    2MOL1    Cl 2450   2.214   1.857   4.708
    2MOL1    Cl 2451   1.956   1.987   4.740
    2MOL1     H 2452   2.093   1.894   4.907
    2MOL1    Cl 2453   1.488   3.407   1.831
    2MOL1     C 2454   1.547   3.518   1.955
    2MOL1    Cl 2455   1.549   3.440   2.114
    2MOL1    Cl 2456   1.709   3.577   1.913
    2MOL1     H 2457   1.480   3.604   1.960
    2MOL1    Cl 2458   4.173   4.585   3.855
    2MOL1     C 2459   4.165   4.437   3.758
    2MOL1    Cl 2460   4.317   4.346   3.770
    2MOL1    Cl 2461   4.029   4.336   3.809
    2MOL1     H 2462   4.150   4.465   3.654
    2MOL1    Cl 2463   0.560   1.043   3.649
    2MOL1     C 2464   0.641   1.057   3.806
    2MOL1    Cl 2465   0.603   1.212   3.882
    2MOL1    Cl 2466   0.593   0.923   3.912
    2MOL1     H 2467   0.749   1.051   3.790
    2MOL1    Cl 2468   1.541   4.528   0.759
    2MOL1     C 2469   1.699   4.456   0.721
    2MOL1    Cl 2470   1.680   4.319   0.610
    2MOL1    Cl 2471   1.808   4.577   0.653
    2MOL1     H 2472   1.742   4.419   0.814
    2MOL1    Cl 2473   3.165   0.456   0.009
    2MOL1     C 2474   3.328   0.428   0.072
    2MOL1    Cl 2475   3.350   0.510   0.228
    2MOL1    Cl 2476   3.359   0.254   0.088
    2MOL1     H 2477   3.400   0.469   0.001
    2MOL1    Cl 2478   3.975   0.754   3.248
    2MOL1     C 2479   3.847   0.873   3.277
    2MOL1    Cl 2480   3.725   0.809   3.388
    2MOL1    Cl 2481   3.915   1.024   3.340
    2MOL1     H 2482   3.798   0.895   3.181
    2MOL1    Cl 2483   0.284   4.489   4.055
    2MOL1     C 2484   0.189   4.634   4.020
    2MOL1    Cl 2485   0.284   4.749   3.925
    2MOL1    Cl 2486   0.040   4.591   3.934
    2MOL1     H 2487   0.162   4.681   4.114
    2MOL1    Cl 2488   4.318   1.684   5.016
    2MOL1     C 2489   4.424   1.751   5.142
    2MOL1    Cl 2490   4.357   1.902   5.205
    2MOL1    Cl 2491   4.447   1.633   5.272
    2MOL1     H 2492   4.521   1.772   5.097
    2MOL1    Cl 2493   0.432   0.812   2.853
    2MOL1     C 2494   0.386   0.651   2.797
    2MOL1    Cl 2495   0.267   0.661   2.667
    2MOL1    Cl 2496   0.529   0.561   2.743
    2MOL1     H 2497   0.341   0.597   2.881
    2MOL1    Cl 2498   0.415   2.266   2.198
    2MOL1     C 2499   0.433   2.139   2.076
    2MOL1    Cl 2500   0.559   2.182   1.960
    2MOL1    Cl 2501   0.469   1.984   2.154
    2MOL1     H 2502   0.338   2.129   2.022
    2MOL1    Cl 2503   3.878   2.331   1.659
    2MOL1     C 2504   3.704   2.312   1.686
    2MOL1    Cl 2505   3.673   2.174   1.793
    2MOL1    Cl 2506   3.635   2.460   1.753
    2MOL1     H 2507   3.657   2.292   1.590
    2MOL1    Cl 2508   2.757   0.882   4.178
    2MOL1     C 2509   2.659   0.893   4.326
    2MOL1    Cl 2510   2.516   0.788   4.313
    2MOL1    Cl 2511   2.756   0.849   4.468
    2MOL1     H 2512   2.625   0.996   4.337
    2MOL1    Cl 2513   4.565   2.576   5.084
    2MOL1     C 2514   4.649   2.528   4.935
    2MOL1    Cl 2515   4.676   2.669   4.831
    2MOL1    Cl 2516   4.802   2.448   4.974
    2MOL1     H 2517   4.586   2.457   4.881
    2MOL1    Cl 2518   3.667   0.768   2.925
    2MOL1     C 2519   3.826   0.768   2.846
    2MOL1    Cl 2520   3.844   0.910   2.742
    2MOL1    Cl 2521   3.955   0.762   2.967
    2MOL1     H 2522   3.833   0.678   2.784
    2MOL1    Cl 2523   3.192   2.058   3.333
    2MOL1     C 2524   3.359   2.102   3.292
    2MOL1    Cl 2525   3.412   2.240   3.389
    2MOL1    Cl 2526   3.467   1.964   3.316
    2MOL1     H 2527   3.362   2.130   3.186
    2MOL1    Cl 2528   3.869   1.421   1.411
    2MOL1     C 2529   3.848   1.591   1.455
    2MOL1    Cl 2530   3.996   1.683   1.424
    2MOL1    Cl 2531   3.711   1.662   1.368
    2MOL1     H 2532   3.826   1.596   1.562
    2MOL1    Cl 2533   0.595   3.466   1.657
    2MOL1     C 2534   0.440   3.408   1.597
    2MOL1    Cl 2535   0.320   3.400   1.727
    2MOL1    Cl 2536   0.381   3.511   1.465
    2MOL1     H 2537   0.454   3.307   1.557
    2MOL1    Cl 2538   2.387   3.703   4.719
    2MOL1     C 2539   2.511   3.779   4.619
    2MOL1    Cl 2540   2.485   3.742   4.448
    2MOL1    Cl 2541   2.514   3.954   4.645
    2MOL1     H 2542   2.608   3.738   4.648
    2MOL1    Cl 2543   1.853   1.720   1.821
    2MOL1     C 2544   2.003   1.655   1.889
    2MOL1    Cl 2545   2.099   1.785   1.963
    2MOL1    Cl 2546   1.968   1.528   2.007
    2MOL1     H 2547   2.061   1.612   1.807
    2MOL1    Cl 2548   4.689   2.411   0.425
    2MOL1     C 2549   4.550   2.496   0.357
    2MOL1    Cl 2550   4.556   2.493   0.180
    2MOL1    Cl 2551   4.398   2.426   0.415
    2MOL1     H 2552   4.555   2.601   0.389
    2MOL1    Cl 2553   3.113   4.667   3.719
    2MOL1     C 2554   3.098   4.600   3.556
    2MOL1    Cl 2555   2.955   4.667   3.475
    2MOL1    Cl 2556   3.244   4.632   3.461
    2MOL1     H 2557   3.085   4.492   3.564
    2MOL1    Cl 2558   4.876   3.926   5.182
    2MOL1     C 2559   5.035   3.868   5.234
    2MOL1    Cl 2560   5.085   3.728   5.137
    2MOL1    Cl 2561   5.155   3.998   5.223
    2MOL1     H 2562   5.028   3.837   5.339
    2MOL1    Cl 2563   1.335   2.575   3.332
    2MOL1     C 2564   1.176   2.653   3.328
    2MOL1    Cl 2565   1.073   2.578   3.206
    2MOL1    Cl 2566   1.100   2.646   3.488
    2MOL1     H 2567   1.190   2.758   3.301
    2MOL1    Cl 2568   2.579   2.717   1.460
    2MOL1     C 2569   2.563   2.839   1.332
    2MOL1    Cl 2570   2.436   2.793   1.218
    2MOL1    Cl 2571   2.529   2.998   1.403
    2MOL1     H 2572   2.658   2.845   1.278
    2MOL1    Cl 2573   0.074   3.733   3.537
    2MOL1     C 2574   0.130   3.569   3.573
    2MOL1    Cl 2575   0.130   3.540   3.748
    2MOL1    Cl 2576   0.030   3.449   3.490
    2MOL1     H 2577   0.233   3.559   3.536
    2MOL1    Cl 2578   2.423   4.775   3.194
    2MOL1     C 2579   2.492   4.848   3.340
    2MOL1    Cl 2580   2.557   5.009   3.305
    2MOL1    Cl 2581   2.371   4.856   3.469
    2MOL1     H 2582   2.575   4.785   3.375
    2MOL1    Cl 2583   5.147   2.776   4.278
    2MOL1     C 2584   4.998   2.710   4.208
    2MOL1    Cl 2585   4.944   2.810   4.071
    2MOL1    Cl 2586   5.023   2.542   4.156
    2MOL1     H 2587   4.920   2.712   4.284
    2MOL1    Cl 2588   2.692   2.217   3.446
    2MOL1     C 2589   2.567   2.238   3.570
    2MOL1    Cl 2590   2.617   2.360   3.688
    2MOL1    Cl 2591   2.412   2.281   3.497
    2MOL1     H 2592   2.555   2.143   3.623
    2MOL1    Cl 2593   1.906   0.790   4.095
    2MOL1     C 2594   1.967   0.956   4.084
    2MOL1    Cl 2595   2.120   0.960   3.996
    2MOL1    Cl 2596   1.847   1.061   4.006
    2MOL1     H 2597   1.984   0.993   4.185
    2MOL1    Cl 2598   0.888   0.173   0.968
    2MOL1     C 2599   0.969   0.325   1.010
    2MOL1    Cl 2600   0.884   0.406   1.143
    2MOL1    Cl 2601   1.138   0.296   1.053
    2MOL1     H 2602   0.966   0.391   0.923
    2MOL1    Cl 2603   4.229   1.579   3.749
    2MOL1     C 2604   4.165   1.441   3.658
    2MOL1    Cl 2605   4.077   1.331   3.766
    2MOL1    Cl 2606   4.059   1.497   3.528
    2MOL1     H 2607   4.248   1.387   3.614
    2MOL1    Cl 2608   3.204   4.854   3.566
    2MOL1     C 2609   3.213   4.946   3.415
    2MOL1    Cl 2610   3.064   5.039   3.390
    2MOL1    Cl 2611   3.354   5.054   3.416
    2MOL1     H 2612   3.224   4.876   3.332
    2MOL1    Cl 2613   2.288   2.487   2.939
    2MOL1     C 2614   2.216   2.559   3.084
    2MOL1    Cl 2615   2.088   2.672   3.040
    2MOL1    Cl 2616   2.154   2.433   3.192
    2MOL1     H 2617   2.294   2.614   3.137
    2MOL1    Cl 2618   1.292   0.593   5.224
    2MOL1     C 2619   1.457   0.657   5.234
    2MOL1    Cl 2620   1.459   0.810   5.323
    2MOL1    Cl 2621   1.565   0.539   5.311
    2MOL1     H 2622   1.493   0.676   5.133
    2MOL1    Cl 2623   2.336   4.510   4.364
    2MOL1     C 2624   2.193   4.525   4.260
    2MOL1    Cl 2625   2.233   4.483   4.093
    2MOL1    Cl 2626   2.062   4.422   4.320
    2MOL1     H 2627   2.159   4.628   4.263
    2MOL1    Cl 2628   0.633   3.717   4.963
    2MOL1     C 2629   0.791   3.788   4.998
    2MOL1    Cl 2630   0.774   3.927   5.107
    2MOL1    Cl 2631   0.899   3.667   5.068
    2MOL1     H 2632   0.835   3.823   4.905
    2MOL1    Cl 2633   5.299   3.098   1.904
    2MOL1     C 2634   5.132   3.060   1.862
    2MOL1    Cl 2635   5.060   3.190   1.765
    2MOL1    Cl 2636   5.123   2.905   1.776
    2MOL1     H 2637   5.074   3.050   1.955
    2MOL1    Cl 2638   3.221   1.339   3.544
    2MOL1     C 2639   3.348   1.223   3.585
    2MOL1    Cl 2640   3.430   1.271   3.735
    2MOL1    Cl 2641   3.281   1.060   3.601
    2MOL1     H 2642   3.422   1.222   3.505
    2MOL1    Cl 2643   0.105   1.451   1.732
    2MOL1     C 2644   0.109   1.307   1.835
    2MOL1    Cl 2645   0.205   1.178   1.759
    2MOL1    Cl 2646   0.175   1.347   1.995
    2MOL1     H 2647   0.007   1.271   1.849
    2MOL1    Cl 2648   1.478   0.199   1.220
    2MOL1     C 2649   1.568   0.091   1.326
    2MOL1    Cl 2650   1.716   0.034   1.248
    2MOL1    Cl 2651   1.606   0.171   1.480
    2MOL1     H 2652   1.505   0.004   1.348
    2MOL1    Cl 2653   2.827   2.786   3.845
    2MOL1     C 2654   2.765   2.946   3.888
    2MOL1    Cl 2655   2.591   2.939   3.921
    2MOL1    Cl 2656   2.852   3.011   4.029
    2MOL1     H 2657   2.781   3.014   3.804
    2MOL1    Cl 2658   5.043   3.466   1.146
    2MOL1     C 2659   5.092   3.341   1.261
    2MOL1    Cl 2660   5.158   3.200   1.177
    2MOL1    Cl 2661   5.210   3.405   1.376
    2MOL1     H 2662   5.004   3.309   1.317
    2MOL1    Cl 2663   1.942   0.329   0.021
    2MOL1     C 2664   1.882   0.265   0.175
    2MOL1    Cl 2665   2.009   0.174   0.259
    2MOL1    Cl 2666   1.822   0.396   0.278
    2MOL1     H 2667   1.799   0.197   0.154
    2MOL1    Cl 2668   1.133   1.975   2.841
    2MOL1     C 2669   1.143   1.876   2.988
    2MOL1    Cl 2670   1.289   1.916   3.081
    2MOL1    Cl 2671   0.998   1.899   3.088
    2MOL1     H 2672   1.148   1.771   2.959
    2MOL1    Cl 2673   2.574   3.787   2.439
    2MOL1     C 2674   2.714   3.894   2.460
    2MOL1    Cl 2675   2.689   4.004   2.596
    2MOL1    Cl 2676   2.862   3.798   2.483
    2MOL1     H 2677   2.726   3.953   2.369
    2MOL1    Cl 2678   1.468   0.670   3.031
    2MOL1     C 2679   1.485   0.556   2.896
    2MOL1    Cl 2680   1.656   0.522   2.865
    2MOL1    Cl 2681   1.397   0.405   2.930
    2MOL1     H 2682   1.442   0.601   2.807
    2MOL1    Cl 2683   5.003   5.080   2.827
    2MOL1     C 2684   5.176   5.040   2.827
    2MOL1    Cl 2685   5.205   4.888   2.741
    2MOL1    Cl 2686   5.270   5.172   2.755
    2MOL1     H 2687   5.208   5.028   2.931
    2MOL1    Cl 2688   2.732   3.875   3.343
    2MOL1     C 2689   2.621   3.881   3.205
    2MOL1    Cl 2690   2.692   3.800   3.064
    2MOL1    Cl 2691   2.465   3.807   3.247
    2MOL1     H 2692   2.603   3.986   3.179
    2MOL1    Cl 2693   5.127   5.240   0.155
    2MOL1     C 2694   5.032   5.094   0.183
    2MOL1    Cl 2695   5.115   4.952   0.116
    2MOL1    Cl 2696   5.002   5.072   0.357
    2MOL1     H 2697   4.936   5.104   0.133
    2MOL1    Cl 2698   1.658   3.952   5.122
    2MOL1     C 2699   1.532   4.065   5.174
    2MOL1    Cl 2700   1.375   3.982   5.185
    2MOL1    Cl 2701   1.575   4.139   5.329
    2MOL1     H 2702   1.524   4.144   5.099
    2MOL1    Cl 2703   0.491   1.887   3.346
    2MOL1     C 2704   0.439   1.952   3.503
    2MOL1    Cl 2705   0.572   2.039   3.582
    2MOL1    Cl 2706   0.298   2.058   3.483
    2MOL1     H 2707   0.410   1.868   3.567
    2MOL1    Cl 2708   4.481   0.275   4.873
    2MOL1     C 2709   4.598   0.403   4.907
    2MOL1    Cl 2710   4.555   0.488   5.056
    2MOL1    Cl 2711   4.762   0.337   4.917
    2MOL1     H 2712   4.595   0.475   4.824
    2MOL1    Cl 2713   4.227   2.555   2.476
    2MOL1     C 2714   4.321   2.416   2.531
    2MOL1    Cl 2715   4.441   2.369   2.409
    2MOL1    Cl 2716   4.400   2.452   2.686
    2MOL1     H 2717   4.253   2.332   2.546
    2MOL1    Cl 2718   3.363   4.820   1.508
    2MOL1     C 2719   3.468   4.750   1.633
    2MOL1    Cl 2720   3.437   4.827   1.790
    2MOL1    Cl 2721   3.443   4.575   1.644
    2MOL1     H 2722   3.572   4.769   1.605
    2MOL1    Cl 2723   5.105   5.262   0.601
    2MOL1     C 2724   5.168   5.197   0.753
    2MOL1    Cl 2725   5.309   5.093   0.723
    2MOL1    Cl 2726   5.210   5.328   0.865
    2MOL1     H 2727   5.090   5.136   0.799
    2MOL1    Cl 2728   4.141   5.216   0.271
    2MOL1     C 2729   3.974   5.158   0.269
    2MOL1    Cl 2730   3.876   5.254   0.156
    2MOL1    Cl 2731   3.968   4.986   0.227
    2MOL1     H 2732   3.932   5.171   0.369
    2MOL1    Cl 2733   0.737   5.008   2.505
    2MOL1     C 2734   0.635   5.106   2.398
    2MOL1    Cl 2735   0.590   5.015   2.253
    2MOL1    Cl 2736   0.490   5.162   2.484
    2MOL1     H 2737   0.692   5.194   2.367
    2MOL1    Cl 2738   3.002   5.339   4.265
    2MOL1     C 2739   2.861   5.254   4.330
    2MOL1    Cl 2740   2.901   5.085   4.366
    2MOL1    Cl 2741   2.800   5.336   4.474
    2MOL1     H 2742   2.782   5.255   4.254
    2MOL1    Cl 2743   4.259   4.123   1.915
    2MOL1     C 2744   4.414   4.190   1.861
    2MOL1    Cl 2745   4.473   4.104   1.718
    2MOL1    Cl 2746   4.398   4.363   1.828
    2MOL1     H 2747   4.487   4.177   1.942
    2MOL1    Cl 2748   3.263   3.541   4.919
    2MOL1     C 2749   3.259   3.713   4.875
    2MOL1    Cl 2750   3.422   3.782   4.880
    2MOL1    Cl 2751   3.187   3.734   4.714
    2MOL1     H 2752   3.197   3.765   4.948
    2MOL1    Cl 2753   2.591   0.498   4.302
    2MOL1     C 2754   2.752   0.521   4.373
    2MOL1    Cl 2755   2.741   0.617   4.521
    2MOL1    Cl 2756   2.828   0.364   4.406
    2MOL1     H 2757   2.814   0.575   4.301
    2MOL1    Cl 2758   3.459   3.477   1.769
    2MOL1     C 2759   3.354   3.340   1.810
    2MOL1    Cl 2760   3.412   3.259   1.956
    2MOL1    Cl 2761   3.186   3.393   1.830
    2MOL1     H 2762   3.358   3.268   1.727
    2MOL1    Cl 2763   0.289   3.069   3.605
    2MOL1     C 2764   0.148   3.020   3.699
    2MOL1    Cl 2765   0.106   3.144   3.818
    2MOL1    Cl 2766   0.010   2.986   3.593
    2MOL1     H 2767   0.173   2.928   3.753
    2MOL1    Cl 2768   1.644   3.766   3.049
    2MOL1     C 2769   1.496   3.848   3.101
    2MOL1    Cl 2770   1.443   3.787   3.259
    2MOL1    Cl 2771   1.522   4.023   3.108
    2MOL1     H 2772   1.417   3.828   3.028
    2MOL1    Cl 2773   2.834   4.397   1.851
    2MOL1     C 2774   2.818   4.249   1.755
    2MOL1    Cl 2775   2.908   4.263   1.603
    2MOL1    Cl 2776   2.874   4.109   1.848
    2MOL1     H 2777   2.712   4.235   1.732
    2MOL1    Cl 2778   5.228   1.773   3.060
    2MOL1     C 2779   5.148   1.657   2.953
    2MOL1    Cl 2780   5.039   1.552   3.046
    2MOL1    Cl 2781   5.059   1.741   2.825
    2MOL1     H 2782   5.224   1.594   2.906
    2MOL1    Cl 2783   4.534   3.494   2.846
    2MOL1     C 2784   4.444   3.454   2.993
    2MOL1    Cl 2785   4.413   3.599   3.089
    2MOL1    Cl 2786   4.292   3.372   2.953
    2MOL1     H 2787   4.505   3.385   3.053
    2MOL1    Cl 2788   2.721   5.092   2.711
    2MOL1     C 2789   2.749   4.922   2.669
    2MOL1    Cl 2790   2.760   4.903   2.493
    2MOL1    Cl 2791   2.895   4.861   2.748
    2MOL1     H 2792   2.664   4.863   2.704
    2MOL1    Cl 2793   2.896   3.311   2.498
    2MOL1     C 2794   3.063   3.255   2.504
    2MOL1    Cl 2795   3.161   3.362   2.606
    2MOL1    Cl 2796   3.071   3.088   2.564
    2MOL1     H 2797   3.104   3.257   2.403
    2MOL1    Cl 2798   2.080   3.425   4.191
    2MOL1     C 2799   1.919   3.483   4.146
    2MOL1    Cl 2800   1.800   3.352   4.158
    2MOL1    Cl 2801   1.871   3.620   4.247
    2MOL1     H 2802   1.923   3.516   4.042
    2MOL1    Cl 2803   4.718   1.752   0.625
    2MOL1     C 2804   4.861   1.851   0.590
    2MOL1    Cl 2805   4.978   1.759   0.494
    2MOL1    Cl 2806   4.814   2.000   0.506
    2MOL1     H 2807   4.908   1.878   0.685
    2MOL1    Cl 2808   2.192   3.122   2.232
    2MOL1     C 2809   2.099   3.106   2.082
    2MOL1    Cl 2810   2.160   3.218   1.959
    2MOL1    Cl 2811   2.106   2.939   2.022
    2MOL1     H 2812   1.995   3.130   2.103
    2MOL1    Cl 2813   2.025   0.781   4.939
    2MOL1     C 2814   1.995   0.953   4.969
    2MOL1    Cl 2815   2.097   1.054   4.865
    2MOL1    Cl 2816   1.823   0.991   4.943
    2MOL1     H 2817   2.020   0.975   5.073
    2MOL1    Cl 2818   0.294   5.244   4.165
    2MOL1     C 2819   0.325   5.145   4.021
    2MOL1    Cl 2820   0.465   5.207   3.932
    2MOL1    Cl 2821   0.349   4.976   4.066
    2MOL1     H 2822   0.238   5.152   3.956
    2MOL1    Cl 2823   1.584   4.632   1.774
    2MOL1     C 2824   1.667   4.485   1.722
    2MOL1    Cl 2825   1.585   4.413   1.583
    2MOL1    Cl 2826   1.837   4.519   1.683
    2MOL1     H 2827   1.665   4.413   1.805
    2MOL1    Cl 2828   5.021   0.870   4.236
    2MOL1     C 2829   4.869   0.962   4.234
    2MOL1    Cl 2830   4.742   0.874   4.320
    2MOL1    Cl 2831   4.893   1.122   4.306
    2MOL1     H 2832   4.838   0.975   4.130
    2MOL1    Cl 2833   2.462   3.198   0.166
    2MOL1     C 2834   2.351   3.283   0.275
    2MOL1    Cl 2835   2.204   3.331   0.189
    2MOL1    Cl 2836   2.311   3.181   0.415
    2MOL1     H 2837   2.401   3.373   0.311
    2MOL1    Cl 2838   2.552   4.235   1.551
    2MOL1     C 2839   2.663   4.310   1.436
    2MOL1    Cl 2840   2.574   4.390   1.306
    2MOL1    Cl 2841   2.769   4.426   1.519
    2MOL1     H 2842   2.726   4.232   1.392
    2MOL1    Cl 2843   1.678   0.909   4.012
    2MOL1     C 2844   1.584   0.907   3.862
    2MOL1    Cl 2845   1.504   0.750   3.840
    2MOL1    Cl 2846   1.465   1.038   3.862
    2MOL1     H 2847   1.653   0.923   3.778
    2MOL1    Cl 2848   1.474   1.052   2.989
    2MOL1     C 2849   1.569   1.119   2.856
    2MOL1    Cl 2850   1.468   1.221   2.752
    2MOL1    Cl 2851   1.707   1.211   2.917
    2MOL1     H 2852   1.607   1.036   2.796
    2MOL1    Cl 2853   2.154   3.124   3.510
    2MOL1     C 2854   1.997   3.201   3.482
    2MOL1    Cl 2855   2.012   3.333   3.365
    2MOL1    Cl 2856   1.879   3.082   3.426
    2MOL1     H 2857   1.962   3.243   3.577
    2MOL1    Cl 2858   3.933   4.315   2.921
    2MOL1     C 2859   3.816   4.289   3.051
    2MOL1    Cl 2860   3.882   4.342   3.206
    2MOL1    Cl 2861   3.664   4.373   3.016
    2MOL1     H 2862   3.795   4.182   3.057
    2MOL1    Cl 2863   2.494   5.180   0.562
    2MOL1     C 2864   2.647   5.124   0.491
    2MOL1    Cl 2865   2.725   5.007   0.599
    2MOL1    Cl 2866   2.619   5.052   0.332
    2MOL1     H 2867   2.713   5.210   0.480
    2MOL1    Cl 2868   1.702   3.742   3.957
    2MOL1     C 2869   1.658   3.829   4.105
    2MOL1    Cl 2870   1.564   3.974   4.066
    2MOL1    Cl 2871   1.568   3.723   4.215
    2MOL1     H 2872   1.750   3.860   4.155
    2MOL1    Cl 2873   2.507   2.218   1.240
    2MOL1     C 2874   2.367   2.242   1.345
    2MOL1    Cl 2875   2.325   2.414   1.354
    2MOL1    Cl 2876   2.229   2.147   1.288
    2MOL1     H 2877   2.393   2.208   1.446
    2MOL1    Cl 2878   3.176   0.000   3.686
    2MOL1     C 2879   3.096   0.151   3.732
    2MOL1    Cl 2880   2.921   0.139   3.706
    2MOL1    Cl 2881   3.132   0.192   3.901
    2MOL1     H 2882   3.135   0.231   3.668
    2MOL1    Cl 2883   2.165   1.217   2.071
    2MOL1     C 2884   2.013   1.253   2.154
    2MOL1    Cl 2885   1.891   1.310   2.039
    2MOL1    Cl 2886   1.954   1.109   2.241
    2MOL1     H 2887   2.031   1.332   2.228
    2MOL1    Cl 2888   2.145   2.910   0.452
    2MOL1     C 2889   2.287   2.857   0.360
    2MOL1    Cl 2890   2.381   2.740   0.453
    2MOL1    Cl 2891   2.238   2.788   0.204
    2MOL1     H 2892   2.350   2.944   0.341
    2MOL1    Cl 2893   3.686   2.562   4.300
    2MOL1     C 2894   3.520   2.550   4.359
    2MOL1    Cl 2895   3.494   2.397   4.443
    2MOL1    Cl 2896   3.481   2.687   4.465
    2MOL1     H 2897   3.452   2.554   4.273
    2MOL1    Cl 2898   0.622   0.548   1.977
    2MOL1     C 2899   0.761   0.445   2.012
    2MOL1    Cl 2900   0.829   0.484   2.171
    2MOL1    Cl 2901   0.717   0.274   2.003
    2MOL1     H 2902   0.838   0.465   1.936
    2MOL1    Cl 2903   4.417   4.785   0.725
    2MOL1     C 2904   4.281   4.863   0.807
    2MOL1    Cl 2905   4.322   5.030   0.850
    2MOL1    Cl 2906   4.136   4.860   0.704
    2MOL1     H 2907   4.259   4.809   0.899
    2MOL1    Cl 2908   0.341   4.316   1.249
    2MOL1     C 2909   0.235   4.330   1.108
    2MOL1    Cl 2910   0.173   4.496   1.093
    2MOL1    Cl 2911   0.320   4.281   0.960
    2MOL1     H 2912   0.149   4.263   1.122
    2MOL1    Cl 2913   2.181   2.517   3.750
    2MOL1     C 2914   2.227   2.348   3.730
    2MOL1    Cl 2915   2.398   2.324   3.770
    2MOL1    Cl 2916   2.124   2.243   3.830
    2MOL1     H 2917   2.211   2.320   3.625
    2MOL1    Cl 2918   0.793   4.120   1.312
    2MOL1     C 2919   0.633   4.064   1.260
    2MOL1    Cl 2920   0.554   3.972   1.389
    2MOL1    Cl 2921   0.532   4.202   1.211
    2MOL1     H 2922   0.646   3.999   1.173
    2MOL1    Cl 2923   1.332   3.736   0.348
    2MOL1     C 2924   1.466   3.811   0.436
    2MOL1    Cl 2925   1.454   3.987   0.430
    2MOL1    Cl 2926   1.470   3.754   0.603
    2MOL1     H 2927   1.559   3.781   0.387
    2MOL1    Cl 2928   3.002   2.055   2.523
    2MOL1     C 2929   3.169   2.105   2.556
    2MOL1    Cl 2930   3.269   2.091   2.410
    2MOL1    Cl 2931   3.173   2.271   2.618
    2MOL1     H 2932   3.210   2.039   2.633
    2MOL1    Cl 2933   1.914   2.880   2.434
    2MOL1     C 2934   1.947   2.739   2.535
    2MOL1    Cl 2935   1.819   2.719   2.656
    2MOL1    Cl 2936   1.961   2.593   2.435
    2MOL1     H 2937   2.042   2.755   2.586
    2MOL1    Cl 2938   3.460   5.002   2.005
    2MOL1     C 2939   3.407   5.145   2.095
    2MOL1    Cl 2940   3.231   5.144   2.116
    2MOL1    Cl 2941   3.488   5.154   2.252
    2MOL1     H 2942   3.433   5.234   2.037
    2MOL1    Cl 2943   0.927   2.477   4.390
    2MOL1     C 2944   1.086   2.434   4.325
    2MOL1    Cl 2945   1.109   2.258   4.328
    2MOL1    Cl 2946   1.105   2.496   4.160
    2MOL1     H 2947   1.162   2.479   4.388
    2MOL1    Cl 2948   4.454   3.892   4.893
    2MOL1     C 2949   4.615   3.885   4.967
    2MOL1    Cl 2950   4.723   3.783   4.871
    2MOL1    Cl 2951   4.682   4.047   4.987
    2MOL1     H 2952   4.605   3.840   5.066
    2MOL1    Cl 2953   4.822   1.765   4.227
    2MOL1     C 2954   4.933   1.887   4.163
    2MOL1    Cl 2955   4.991   1.842   4.002
    2MOL1    Cl 2956   4.855   2.046   4.159
    2MOL1     H 2957   5.020   1.893   4.230
    2MOL1    Cl 2958   4.013   2.345   2.677
    2MOL1     C 2959   4.117   2.251   2.785
    2MOL1    Cl 2960   4.156   2.094   2.713
    2MOL1    Cl 2961   4.265   2.341   2.823
    2MOL1     H 2962   4.062   2.234   2.878
    2MOL1    Cl 2963   1.467   2.834   5.010
    2MOL1     C 2964   1.469   2.839   5.187
    2MOL1    Cl 2965   1.305   2.854   5.251
    2MOL1    Cl 2966   1.548   2.694   5.252
    2MOL1     H 2967   1.527   2.926   5.218
    2MOL1    Cl 2968   3.622   1.993   3.159
    2MOL1     C 2969   3.657   2.163   3.125
    2MOL1    Cl 2970   3.630   2.262   3.270
    2MOL1    Cl 2971   3.823   2.182   3.067
    2MOL1     H 2972   3.589   2.197   3.047
    2MOL1    Cl 2973   2.857   4.886   0.888
    2MOL1     C 2974   2.792   4.872   1.052
    2MOL1    Cl 2975   2.616   4.864   1.049
    2MOL1    Cl 2976   2.860   4.731   1.134
    2MOL1     H 2977   2.822   4.962   1.108
    2MOL1    Cl 2978   1.557   3.748   0.966
    2MOL1     C 2979   1.675   3.852   0.885
    2MOL1    Cl 2980   1.743   3.772   0.743
    2MOL1    Cl 2981   1.602   4.007   0.841
    2MOL1     H 2982   1.757   3.872   0.955
    2MOL1    Cl 2983   5.046   3.280   4.978
    2MOL1     C 2984   5.068   3.224   5.145
    2MOL1    Cl 2985   4.917   3.156   5.209
    2MOL1    Cl 2986   5.199   3.105   5.154
    2MOL1     H 2987   5.095   3.310   5.207
    2MOL1    Cl 2988   2.990   4.868   3.110
    2MOL1     C 2989   2.935   5.035   3.088
    2MOL1    Cl 2990   2.946   5.082   2.918
    2MOL1    Cl 2991   2.769   5.055   3.148
    2MOL1     H 2992   3.000   5.101   3.146
    2MOL1    Cl 2993   4.877   4.009   3.636
    2MOL1     C 2994   4.819   3.841   3.640
    2MOL1    Cl 2995   4.655   3.831   3.575
    2MOL1    Cl 2996   4.929   3.735   3.550
    2MOL1     H 2997   4.817   3.808   3.744
    2MOL1    Cl 2998   1.766   0.977   3.062
    2MOL1     C 2999   1.675   0.925   3.205
    2MOL1    Cl 3000   1.644   1.062   3.312
    2MOL1    Cl 3001   1.523   0.848   3.157
    2MOL1     H 3002   1.735   0.852   3.259
    2MOL1    Cl 3003   3.425   2.813   4.662
    2MOL1     C 3004   3.281   2.712   4.646
    2MOL1    Cl 3005   3.190   2.754   4.499
    2MOL1    Cl 3006   3.325   2.540   4.644
    2MOL1     H 3007   3.216   2.730   4.732
    2MOL1    Cl 3008   2.457   4.221   0.461
    2MOL1     C 3009   2.413   4.261   0.627
    2MOL1    Cl 3010   2.323   4.128   0.702
    2MOL1    Cl 3011   2.558   4.300   0.722
    2MOL1     H 3012   2.349   4.350   0.625
    2MOL1    Cl 3013   3.328   1.484   0.373
    2MOL1     C 3014   3.238   1.608   0.284
    2MOL1    Cl 3015   3.212   1.559   0.116
    2MOL1    Cl 3016   3.083   1.641   0.364
    2MOL1     H 3017   3.297   1.700   0.285
    2MOL1    Cl 3018   2.479   1.992   4.170
    2MOL1     C 3019   2.409   1.835   4.126
    2MOL1    Cl 3020   2.233   1.837   4.148
    2MOL1    Cl 3021   2.450   1.794   3.958
    2MOL1     H 3022   2.452   1.759   4.191
    2MOL1    Cl 3023   1.219   0.805   2.690
    2MOL1     C 3024   1.329   0.941   2.658
    2MOL1    Cl 3025   1.392   0.932   2.493
    2MOL1    Cl 3026   1.246   1.095   2.685
    2MOL1     H 3027   1.413   0.934   2.728
    2MOL1    Cl 3028   2.852   4.496   5.147
    2MOL1     C 3029   2.829   4.323   5.121
    2MOL1    Cl 3030   2.684   4.293   5.024
    2MOL1    Cl 3031   2.971   4.252   5.042
    2MOL1     H 3032   2.816   4.274   5.218
    2MOL1    Cl 3033   2.189   4.565   1.592
    2MOL1     C 3034   2.358   4.521   1.565
    2MOL1    Cl 3035   2.370   4.383   1.454
    2MOL1    Cl 3036   2.449   4.659   1.502
    2MOL1     H 3037   2.402   4.492   1.661
    2MOL1    Cl 3038   0.949   2.639   5.010
    2MOL1     C 3039   0.959   2.531   5.151
    2MOL1    Cl 3040   0.933   2.363   5.102
    2MOL1    Cl 3041   1.115   2.549   5.232
    2MOL1     H 3042   0.880   2.559   5.221
    2MOL1    Cl 3043   1.783   1.115   1.715
    2MOL1     C 3044   1.688   1.176   1.852
    2MOL1    Cl 3045   1.518   1.194   1.807
    2MOL1    Cl 3046   1.705   1.069   1.992
    2MOL1     H 3047   1.727   1.275   1.879
    2MOL1    Cl 3048   0.566   3.724   3.683
    2MOL1     C 3049   0.481   3.572   3.652
    2MOL1    Cl 3050   0.445   3.554   3.479
    2MOL1    Cl 3051   0.576   3.435   3.710
    2MOL1     H 3052   0.386   3.574   3.706
    2MOL1    Cl 3053   0.291   0.074   3.906
    2MOL1     C 3054   0.192   0.148   3.779
    2MOL1    Cl 3055   0.294   0.241   3.668
    2MOL1    Cl 3056   0.100   0.025   3.692
    2MOL1     H 3057   0.122   0.217   3.827
    2MOL1    Cl 3058   4.152   5.126   3.407
    2MOL1     C 3059   4.275   5.209   3.309
    2MOL1    Cl 3060   4.395   5.095   3.249
    2MOL1    Cl 3061   4.199   5.296   3.175
    2MOL1     H 3062   4.325   5.282   3.373
    2MOL1    Cl 3063   3.173   4.040   1.685
    2MOL1     C 3064   3.290   4.017   1.554
    2MOL1    Cl 3065   3.438   3.942   1.615
    2MOL1    Cl 3066   3.220   3.919   1.424
    2MOL1     H 3067   3.315   4.115   1.513
    2MOL1    Cl 3068   4.533   4.183   3.877
    2MOL1     C 3069   4.685   4.273   3.865
    2MOL1    Cl 3070   4.699   4.390   3.997
    2MOL1    Cl 3071   4.823   4.163   3.865
    2MOL1     H 3072   4.685   4.328   3.770
    2MOL1    Cl 3073   0.910   3.792   0.443
    2MOL1     C 3074   0.953   3.893   0.304
    2MOL1    Cl 3075   0.850   4.037   0.298
    2MOL1    Cl 3076   1.124   3.939   0.311
    2MOL1     H 3077   0.936   3.835   0.213
    2MOL1    Cl 3078   5.139   2.202   5.005
    2MOL1     C 3079   5.095   2.342   5.105
    2MOL1    Cl 3080   5.228   2.383   5.215
    2MOL1    Cl 3081   5.053   2.480   5.003
    2MOL1     H 3082   5.008   2.315   5.164
    2MOL1    Cl 3083   1.048   5.340   2.442
    2MOL1     C 3084   1.060   5.179   2.515
    2MOL1    Cl 3085   1.168   5.075   2.420
    2MOL1    Cl 3086   1.116   5.190   2.682
    2MOL1     H 3087   0.960   5.134   2.515
    2MOL1    Cl 3088   1.039   1.135   4.164
    2MOL1     C 3089   0.973   1.299   4.175
    2MOL1    Cl 3090   1.055   1.408   4.062
    2MOL1    Cl 3091   0.798   1.298   4.144
    2MOL1     H 3092   0.989   1.336   4.276
    2MOL1    Cl 3093   4.057   2.805   4.153
    2MOL1     C 3094   3.927   2.692   4.194
    2MOL1    Cl 3095   3.995   2.537   4.247
    2MOL1    Cl 3096   3.822   2.760   4.320
    2MOL1     H 3097   3.867   2.674   4.105
    2MOL1    Cl 3098   2.319   3.446   5.340
    2MOL1     C 3099   2.306   3.524   5.181
    2MOL1    Cl 3100   2.265   3.404   5.057
    2MOL1    Cl 3101   2.186   3.653   5.185
    2MOL1     H 3102   2.403   3.567   5.157
    2MOL1    Cl 3103   1.204   0.567   0.987
    2MOL1     C 3104   1.290   0.684   0.886
    2MOL1    Cl 3105   1.189   0.827   0.855
    2MOL1    Cl 3106   1.443   0.732   0.962
    2MOL1     H 3107   1.313   0.637   0.790
    2MOL1    Cl 3108   0.539   3.721   0.640
    2MOL1     C 3109   0.406   3.658   0.542
    2MOL1    Cl 3110   0.420   3.482   0.525
    2MOL1    Cl 3111   0.250   3.702   0.614
    2MOL1     H 3112   0.412   3.703   0.443
    2MOL1    Cl 3113   3.270   1.799   3.528
    2MOL1     C 3114   3.198   1.721   3.386
    2MOL1    Cl 3115   3.306   1.595   3.322
    2MOL1    Cl 3116   3.040   1.653   3.426
    2MOL1     H 3117   3.184   1.797   3.309
    2MOL1    Cl 3118   2.857   4.641   0.477
    2MOL1     C 3119   2.852   4.734   0.326
    2MOL1    Cl 3120   2.783   4.637   0.195
    2MOL1    Cl 3121   2.760   4.884   0.348
    2MOL1     H 3122   2.955   4.761   0.299
    2MOL1    Cl 3123   3.543   3.575   3.414
    2MOL1     C 3124   3.718   3.599   3.436
    2MOL1    Cl 3125   3.805   3.554   3.288
    2MOL1    Cl 3126   3.752   3.767   3.480
    2MOL1     H 3127   3.752   3.534   3.517
    2MOL1    Cl 3128   2.911   3.821   0.843
    2MOL1     C 3129   2.890   3.968   0.939
    2MOL1    Cl 3130   2.718   4.005   0.959
    2MOL1    Cl 3131   2.969   3.951   1.097
    2MOL1     H 3132   2.937   4.051   0.886
    2MOL1    Cl 3133   4.549   4.462   1.272
    2MOL1     C 3134   4.457   4.335   1.189
    2MOL1    Cl 3135   4.566   4.217   1.115
    2MOL1    Cl 3136   4.346   4.255   1.302
    2MOL1     H 3137   4.398   4.382   1.110
    2MOL1    Cl 3138   4.642   2.949   0.353
    2MOL1     C 3139   4.560   3.071   0.254
    2MOL1    Cl 3140   4.662   3.214   0.233
    2MOL1    Cl 3141   4.514   3.003   0.097
    2MOL1     H 3142   4.468   3.101   0.306
    2MOL1    Cl 3143   2.937   1.173   2.268
    2MOL1     C 3144   2.852   1.020   2.242
    2MOL1    Cl 3145   2.714   1.043   2.133
    2MOL1    Cl 3146   2.963   0.898   2.178
    2MOL1     H 3147   2.814   0.985   2.338
    2MOL1    Cl 3148   3.413   4.455   2.943
    2MOL1     C 3149   3.447   4.622   2.991
    2MOL1    Cl 3150   3.307   4.694   3.071
    2MOL1    Cl 3151   3.589   4.628   3.097
    2MOL1     H 3152   3.469   4.680   2.901
    2MOL1    Cl 3153   3.568   3.491   3.969
    2MOL1     C 3154   3.741   3.505   3.935
    2MOL1    Cl 3155   3.828   3.363   3.995
    2MOL1    Cl 3156   3.768   3.526   3.761
    2MOL1     H 3157   3.779   3.593   3.987
    2MOL1    Cl 3158   4.074   0.192   0.261
    2MOL1     C 3159   4.181   0.325   0.214
    2MOL1    Cl 3160   4.308   0.267   0.104
    2MOL1    Cl 3161   4.089   0.456   0.139
    2MOL1     H 3162   4.230   0.364   0.304
    2MOL1    Cl 3163   3.297   2.994   3.456
    2MOL1     C 3164   3.240   3.161   3.473
    2MOL1    Cl 3165   3.357   3.274   3.403
    2MOL1    Cl 3166   3.081   3.181   3.396
    2MOL1     H 3167   3.230   3.183   3.579
    2MOL1    Cl 3168   0.807   2.675   1.921
    2MOL1     C 3169   0.640   2.622   1.895
    2MOL1    Cl 3170   0.548   2.745   1.806
    2MOL1    Cl 3171   0.636   2.467   1.810
    2MOL1     H 3172   0.593   2.609   1.993
    2MOL1    Cl 3173   5.032   4.275   3.053
    2MOL1     C 3174   5.201   4.306   3.011
    2MOL1    Cl 3175   5.275   4.416   3.130
    2MOL1    Cl 3176   5.292   4.155   3.001
    2MOL1     H 3177   5.203   4.355   2.913
    2MOL1    Cl 3178   2.160   3.568   1.590
    2MOL1     C 3179   2.316   3.484   1.583
    2MOL1    Cl 3180   2.438   3.570   1.680
    2MOL1    Cl 3181   2.300   3.317   1.639
    2MOL1     H 3182   2.350   3.483   1.479
    2MOL1    Cl 3183   5.089   1.431   2.599
    2MOL1     C 3184   5.068   1.373   2.433
    2MOL1    Cl 3185   5.146   1.216   2.411
    2MOL1    Cl 3186   4.896   1.364   2.391
    2MOL1     H 3187   5.116   1.445   2.366
    2MOL1    Cl 3188   4.180   3.109   3.839
    2MOL1     C 3189   4.179   3.121   4.016
    2MOL1    Cl 3190   4.210   2.962   4.089
    2MOL1    Cl 3191   4.299   3.240   4.071
    2MOL1     H 3192   4.080   3.155   4.048
    2MOL1    Cl 3193   1.816   3.613   3.489
    2MOL1     C 3194   1.644   3.570   3.476
    2MOL1    Cl 3195   1.622   3.438   3.360
    2MOL1    Cl 3196   1.578   3.526   3.634
    2MOL1     H 3197   1.590   3.658   3.439
    2MOL1    Cl 3198   2.583   3.134   2.530
    2MOL1     C 3199   2.529   3.251   2.652
    2MOL1    Cl 3200   2.630   3.241   2.797
    2MOL1    Cl 3201   2.530   3.415   2.587
    2MOL1     H 3202   2.426   3.226   2.681
    2MOL1    Cl 3203   1.793   3.004   0.178
    2MOL1     C 3204   1.912   2.878   0.141
    2MOL1    Cl 3205   1.842   2.757   0.033
    2MOL1    Cl 3206   2.057   2.950   0.068
    2MOL1     H 3207   1.941   2.829   0.234
    2MOL1    Cl 3208   4.747   0.932   2.998
    2MOL1     C 3209   4.823   0.818   2.886
    2MOL1    Cl 3210   4.706   0.763   2.765
    2MOL1    Cl 3211   4.963   0.892   2.807
    2MOL1     H 3212   4.857   0.731   2.943
    2MOL1    Cl 3213   4.857   1.939   1.390
    2MOL1     C 3214   4.880   2.053   1.256
    2MOL1    Cl 3215   4.766   2.188   1.269
    2MOL1    Cl 3216   5.047   2.113   1.252
    2MOL1     H 3217   4.860   2.000   1.162
    2MOL1    Cl 3218   3.062   3.866   0.334
    2MOL1     C 3219   3.181   3.950   0.435
    2MOL1    Cl 3220   3.286   4.052   0.336
    2MOL1    Cl 3221   3.100   4.046   0.560
    2MOL1     H 3222   3.243   3.874   0.485
    2MOL1    Cl 3223   2.550   4.067   3.624
    2MOL1     C 3224   2.722   4.104   3.649
    2MOL1    Cl 3225   2.823   3.970   3.592
    2MOL1    Cl 3226   2.765   4.254   3.566
    2MOL1     H 3227   2.739   4.118   3.756
    2MOL1    Cl 3228   2.228   4.536   2.244
    2MOL1     C 3229   2.059   4.578   2.215
    2MOL1    Cl 3230   1.955   4.511   2.342
    2MOL1    Cl 3231   2.039   4.754   2.206
    2MOL1     H 3232   2.028   4.535   2.119
    2MOL1    Cl 3233   1.616   1.624   0.636
    2MOL1     C 3234   1.576   1.786   0.697
    2MOL1    Cl 3235   1.724   1.872   0.745
    2MOL1    Cl 3236   1.488   1.878   0.575
    2MOL1     H 3237   1.513   1.775   0.785
    2MOL1    Cl 3238   0.331   2.858   4.513
    2MOL1     C 3239   0.236   2.848   4.364
    2MOL1    Cl 3240   0.326   2.764   4.237
    2MOL1    Cl 3241   0.081   2.766   4.394
    2MOL1     H 3242   0.214   2.950   4.330
    2MOL1    Cl 3243   0.379   1.569   4.885
    2MOL1     C 3244   0.486   1.599   4.748
    2MOL1    Cl 3245   0.646   1.530   4.778
    2MOL1    Cl 3246   0.417   1.531   4.599
    2MOL1     H 3247   0.496   1.707   4.735
    2MOL1    Cl 3248   4.873   2.818   0.786
    2MOL1     C 3249   4.945   2.948   0.692
    2MOL1    Cl 3250   5.082   3.020   0.779
    2MOL1    Cl 3251   4.997   2.889   0.533
    2MOL1     H 3252   4.870   3.026   0.676
    2MOL1    Cl 3253   2.381   4.311   4.830
    2MOL1     C 3254   2.233   4.220   4.861
    2MOL1    Cl 3255   2.258   4.102   4.991
    2MOL1    Cl 3256   2.100   4.329   4.901
    2MOL1     H 3257   2.206   4.165   4.770
    2MOL1    Cl 3258   3.209   3.474   3.370
    2MOL1     C 3259   3.096   3.449   3.236
    2MOL1    Cl 3260   3.077   3.597   3.142
    2MOL1    Cl 3261   3.151   3.316   3.133
    2MOL1     H 3262   2.999   3.422   3.278
    2MOL1    Cl 3263   2.859   4.420   0.331
    2MOL1     C 3264   3.032   4.410   0.368
    2MOL1    Cl 3265   3.110   4.287   0.268
    2MOL1    Cl 3266   3.109   4.568   0.344
    2MOL1     H 3267   3.043   4.382   0.473
    2MOL1    Cl 3268   3.466   4.610   0.462
    2MOL1     C 3269   3.405   4.444   0.460
    2MOL1    Cl 3270   3.525   4.334   0.532
    2MOL1    Cl 3271   3.251   4.432   0.546
    2MOL1     H 3272   3.389   4.414   0.356
    2MOL1    Cl 3273   2.357   3.889   1.067
    2MOL1     C 3274   2.393   3.730   0.998
    2MOL1    Cl 3275   2.426   3.612   1.125
    2MOL1    Cl 3276   2.258   3.676   0.896
    2MOL1     H 3277   2.482   3.740   0.935
    2MOL1    Cl 3278   4.011   4.060   3.714
    2MOL1     C 3279   4.093   3.906   3.743
    2MOL1    Cl 3280   4.224   3.926   3.860
    2MOL1    Cl 3281   3.977   3.784   3.800
    2MOL1     H 3282   4.135   3.871   3.649
    2MOL1    Cl 3283   5.294   4.639   4.246
    2MOL1     C 3284   5.215   4.790   4.196
    2MOL1    Cl 3285   5.091   4.837   4.314
    2MOL1    Cl 3286   5.335   4.919   4.177
    2MOL1     H 3287   5.167   4.773   4.100
    2MOL1    Cl 3288   4.268   0.385   3.677
    2MOL1     C 3289   4.172   0.304   3.552
    2MOL1    Cl 3290   4.019   0.245   3.620
    2MOL1    Cl 3291   4.142   0.412   3.415
    2MOL1     H 3292   4.229   0.218   3.516
    2MOL1    Cl 3293   2.339   2.544   3.418
    2MOL1     C 3294   2.448   2.681   3.445
    2MOL1    Cl 3295   2.374   2.799   3.553
    2MOL1    Cl 3296   2.603   2.626   3.510
    2MOL1     H 3297   2.466   2.729   3.348
    2MOL1    Cl 3298   4.788   4.737   2.656
    2MOL1     C 3299   4.955   4.680   2.646
    2MOL1    Cl 3300   5.006   4.608   2.799
    2MOL1    Cl 3301   4.974   4.565   2.513
    2MOL1     H 3302   5.020   4.766   2.626
    2MOL1    Cl 3303   2.538   0.808   2.031
    2MOL1     C 3304   2.366   0.838   2.059
    2MOL1    Cl 3305   2.299   0.717   2.170
    2MOL1    Cl 3306   2.340   1.002   2.121
    2MOL1     H 3307   2.313   0.829   1.963
    2MOL1    Cl 3308   0.423   2.399   2.990
    2MOL1     C 3309   0.268   2.358   3.064
    2MOL1    Cl 3310   0.209   2.202   3.003
    2MOL1    Cl 3311   0.283   2.354   3.241
    2MOL1     H 3312   0.195   2.435   3.037
    2MOL1    Cl 3313   1.163   4.198   1.155
    2MOL1     C 3314   1.091   4.047   1.098
    2MOL1    Cl 3315   1.216   3.932   1.050
    2MOL1    Cl 3316   0.986   3.977   1.222
    2MOL1     H 3317   1.030   4.070   1.010
    2MOL1    Cl 3318   2.463   3.027   0.606
    2MOL1     C 3319   2.623   3.052   0.679
    2MOL1    Cl 3320   2.666   3.223   0.679
    2MOL1    Cl 3321   2.626   2.986   0.843
    2MOL1     H 3322   2.696   2.998   0.619
    2MOL1    Cl 3323   0.781   0.843   0.936
    2MOL1     C 3324   0.669   0.777   0.817
    2MOL1    Cl 3325   0.609   0.618   0.868
    2MOL1    Cl 3326   0.534   0.888   0.789
    2MOL1     H 3327   0.723   0.764   0.722
    2MOL1    Cl 3328   5.198   2.082   3.264
    2MOL1     C 3329   5.043   2.157   3.225
    2MOL1    Cl 3330   5.065   2.290   3.111
    2MOL1    Cl 3331   4.930   2.037   3.160
    2MOL1     H 3332   5.000   2.198   3.317
    2MOL1    Cl 3333   2.472   1.170   3.469
    2MOL1     C 3334   2.526   1.005   3.505
    2MOL1    Cl 3335   2.690   1.007   3.573
    2MOL1    Cl 3336   2.414   0.925   3.616
    2MOL1     H 3337   2.529   0.949   3.412
    2MOL1    Cl 3338   5.188   0.986   2.393
    2MOL1     C 3339   5.106   1.009   2.238
    2MOL1    Cl 3340   5.093   0.855   2.151
    2MOL1    Cl 3341   4.946   1.081   2.262
    2MOL1     H 3342   5.166   1.077   2.177
    2MOL1    Cl 3343   4.082   0.419   4.595
    2MOL1     C 3344   3.956   0.538   4.559
    2MOL1    Cl 3345   3.833   0.539   4.686
    2MOL1    Cl 3346   4.027   0.699   4.539
    2MOL1     H 3347   3.909   0.510   4.464
    2MOL1    Cl 3348   5.142   1.040   5.054
    2MOL1     C 3349   5.104   0.867   5.060
    2MOL1    Cl 3350   5.232   0.778   5.144
    2MOL1    Cl 3351   4.947   0.840   5.138
    2MOL1     H 3352   5.098   0.830   4.957
    2MOL1    Cl 3353   2.871   0.711   1.575
    2MOL1     C 3354   2.916   0.548   1.522
    2MOL1    Cl 3355   3.091   0.536   1.498
    2MOL1    Cl 3356   2.860   0.427   1.639
    2MOL1     H 3357   2.867   0.529   1.426
    2MOL1    Cl 3358   2.120   1.514   3.770
    2MOL1     C 3359   2.134   1.356   3.846
    2MOL1    Cl 3360   1.985   1.262   3.826
    2MOL1    Cl 3361   2.273   1.267   3.780
    2MOL1     H 3362   2.151   1.371   3.953
    2MOL1    Cl 3363   3.555   1.444   2.184
    2MOL1     C 3364   3.496   1.385   2.028
    2MOL1    Cl 3365   3.621   1.401   1.904
    2MOL1    Cl 3366   3.443   1.216   2.041
    2MOL1     H 3367   3.410   1.446   1.999
  5.5400000  5.5400000  5.5400000
