[ defaults ]
; nbfunc	comb-rule	gen-pairs	fudgeLJ	fudgeQQ
     1	     2	yes   	0.500000	0.833333

[ atomtypes ]
;type, bondingtype, atomic_number, mass, charge, ptype, sigma, epsilon
pmp_tetramer.pdb_0	     6	12.01078	0.0000000000000000	A    	0.337953176162662	0.4553891161106184
pmp_tetramer.pdb_1	     8	15.99943	0.0000000000000000	A    	0.3025106490435313	0.7048581468486769
pmp_tetramer.pdb_2	     6	12.01078	0.0000000000000000	A    	0.3480646886945065	0.3635030558377792
pmp_tetramer.pdb_3	     6	12.01078	0.0000000000000000	A    	0.3480646886945065	0.3635030558377792
pmp_tetramer.pdb_4	     6	12.01078	0.0000000000000000	A    	0.3480646886945065	0.3635030558377792
pmp_tetramer.pdb_5	     6	12.01078	0.0000000000000000	A    	0.3480646886945065	0.3635030558377792
pmp_tetramer.pdb_6	     6	12.01078	0.0000000000000000	A    	0.3480646886945065	0.3635030558377792
pmp_tetramer.pdb_7	     6	12.01078	0.0000000000000000	A    	0.3480646886945065	0.3635030558377792
pmp_tetramer.pdb_8	     6	12.01078	0.0000000000000000	A    	0.3480646886945065	0.3635030558377792
pmp_tetramer.pdb_9	     6	12.01078	0.0000000000000000	A    	0.3480646886945065	0.3635030558377792
pmp_tetramer.pdb_10	     8	15.99943	0.0000000000000000	A    	0.3039812205065809	0.8795023257036865
pmp_tetramer.pdb_11	     6	12.01078	0.0000000000000000	A    	0.3480646886945065	0.3635030558377792
pmp_tetramer.pdb_12	     6	12.01078	0.0000000000000000	A    	0.3480646886945065	0.3635030558377792
pmp_tetramer.pdb_13	     6	12.01078	0.0000000000000000	A    	0.3480646886945065	0.3635030558377792
pmp_tetramer.pdb_14	     6	12.01078	0.0000000000000000	A    	0.3480646886945065	0.3635030558377792
pmp_tetramer.pdb_15	     6	12.01078	0.0000000000000000	A    	0.3480646886945065	0.3635030558377792
pmp_tetramer.pdb_16	     6	12.01078	0.0000000000000000	A    	0.3480646886945065	0.3635030558377792
pmp_tetramer.pdb_17	     6	12.01078	0.0000000000000000	A    	0.3480646886945065	0.3635030558377792
pmp_tetramer.pdb_18	     6	12.01078	0.0000000000000000	A    	0.3480646886945065	0.3635030558377792
pmp_tetramer.pdb_19	     6	12.01078	0.0000000000000000	A    	0.337953176162662	0.4553891161106184
pmp_tetramer.pdb_20	     6	12.01078	0.0000000000000000	A    	0.337953176162662	0.4553891161106184
pmp_tetramer.pdb_21	     7	14.00672	0.0000000000000000	A    	0.3206876023663901	0.7016212989374017
pmp_tetramer.pdb_22	     6	12.01078	0.0000000000000000	A    	0.3480646886945065	0.3635030558377792
pmp_tetramer.pdb_23	     6	12.01078	0.0000000000000000	A    	0.3480646886945065	0.3635030558377792
pmp_tetramer.pdb_24	     6	12.01078	0.0000000000000000	A    	0.3480646886945065	0.3635030558377792
pmp_tetramer.pdb_25	     1	1.007947	0.0000000000000000	A    	0.2583225710839196	0.068656285380106
pmp_tetramer.pdb_26	     1	1.007947	0.0000000000000000	A    	0.2583225710839196	0.068656285380106
pmp_tetramer.pdb_27	     1	1.007947	0.0000000000000000	A    	0.2583225710839196	0.068656285380106
pmp_tetramer.pdb_28	     1	1.007947	0.0000000000000000	A    	0.2572581535063279	0.06531785996356952
pmp_tetramer.pdb_29	     1	1.007947	0.0000000000000000	A    	0.2572581535063279	0.06531785996356952
pmp_tetramer.pdb_30	     1	1.007947	0.0000000000000000	A    	0.2572581535063279	0.06531785996356952
pmp_tetramer.pdb_31	     1	1.007947	0.0000000000000000	A    	0.2572581535063279	0.06531785996356952
pmp_tetramer.pdb_32	     1	1.007947	0.0000000000000000	A    	0.2572581535063279	0.06531785996356952
pmp_tetramer.pdb_33	     1	1.007947	0.0000000000000000	A    	0.2572581535063279	0.06531785996356952
pmp_tetramer.pdb_34	     1	1.007947	0.0000000000000000	A    	0.2572581535063279	0.06531785996356952
pmp_tetramer.pdb_35	     1	1.007947	0.0000000000000000	A    	0.2572581535063279	0.06531785996356952
pmp_tetramer.pdb_36	     1	1.007947	0.0000000000000000	A    	0.2583225710839196	0.068656285380106
pmp_tetramer.pdb_37	     1	1.007947	0.0000000000000000	A    	0.2644543413268124	0.06602135607582665
pmp_tetramer.pdb_38	     1	1.007947	0.0000000000000000	A    	0.2644543413268124	0.06602135607582665
pmp_tetramer.pdb_39	     1	1.007947	0.0000000000000000	A    	0.2644543413268124	0.06602135607582665
pmp_tetramer.pdb_40	     1	1.007947	0.0000000000000000	A    	0.1103427677297317	0.05895596890015097
pmp_tetramer.pdb_41	     1	1.007947	0.0000000000000000	A    	0.2572581535063279	0.06531785996356952
pmp_tetramer.pdb_42	     1	1.007947	0.0000000000000000	A    	0.2572581535063279	0.06531785996356952
pmp_tetramer.pdb_43	     1	1.007947	0.0000000000000000	A    	0.2572581535063279	0.06531785996356952
pmp_tetramer.pdb_44	     6	12.01078	0.0000000000000000	A    	0.337953176162662	0.4553891161106184
pmp_tetramer.pdb_45	     8	15.99943	0.0000000000000000	A    	0.3025106490435313	0.7048581468486769
pmp_tetramer.pdb_46	     6	12.01078	0.0000000000000000	A    	0.3480646886945065	0.3635030558377792
pmp_tetramer.pdb_47	     6	12.01078	0.0000000000000000	A    	0.3480646886945065	0.3635030558377792
pmp_tetramer.pdb_48	     6	12.01078	0.0000000000000000	A    	0.3480646886945065	0.3635030558377792
pmp_tetramer.pdb_49	     6	12.01078	0.0000000000000000	A    	0.3480646886945065	0.3635030558377792
pmp_tetramer.pdb_50	     6	12.01078	0.0000000000000000	A    	0.3480646886945065	0.3635030558377792
pmp_tetramer.pdb_51	     6	12.01078	0.0000000000000000	A    	0.3480646886945065	0.3635030558377792
pmp_tetramer.pdb_52	     6	12.01078	0.0000000000000000	A    	0.3480646886945065	0.3635030558377792
pmp_tetramer.pdb_53	     6	12.01078	0.0000000000000000	A    	0.3480646886945065	0.3635030558377792
pmp_tetramer.pdb_54	     8	15.99943	0.0000000000000000	A    	0.3039812205065809	0.8795023257036865
pmp_tetramer.pdb_55	     6	12.01078	0.0000000000000000	A    	0.3480646886945065	0.3635030558377792
pmp_tetramer.pdb_56	     6	12.01078	0.0000000000000000	A    	0.3480646886945065	0.3635030558377792
pmp_tetramer.pdb_57	     6	12.01078	0.0000000000000000	A    	0.3480646886945065	0.3635030558377792
pmp_tetramer.pdb_58	     6	12.01078	0.0000000000000000	A    	0.3480646886945065	0.3635030558377792
pmp_tetramer.pdb_59	     6	12.01078	0.0000000000000000	A    	0.3480646886945065	0.3635030558377792
pmp_tetramer.pdb_60	     6	12.01078	0.0000000000000000	A    	0.3480646886945065	0.3635030558377792
pmp_tetramer.pdb_61	     6	12.01078	0.0000000000000000	A    	0.3480646886945065	0.3635030558377792
pmp_tetramer.pdb_62	     6	12.01078	0.0000000000000000	A    	0.3480646886945065	0.3635030558377792
pmp_tetramer.pdb_63	     6	12.01078	0.0000000000000000	A    	0.337953176162662	0.4553891161106184
pmp_tetramer.pdb_64	     6	12.01078	0.0000000000000000	A    	0.337953176162662	0.4553891161106184
pmp_tetramer.pdb_65	     7	14.00672	0.0000000000000000	A    	0.3206876023663901	0.7016212989374017
pmp_tetramer.pdb_66	     6	12.01078	0.0000000000000000	A    	0.3480646886945065	0.3635030558377792
pmp_tetramer.pdb_67	     6	12.01078	0.0000000000000000	A    	0.3480646886945065	0.3635030558377792
pmp_tetramer.pdb_68	     6	12.01078	0.0000000000000000	A    	0.3480646886945065	0.3635030558377792
pmp_tetramer.pdb_69	     1	1.007947	0.0000000000000000	A    	0.2583225710839196	0.068656285380106
pmp_tetramer.pdb_70	     1	1.007947	0.0000000000000000	A    	0.2583225710839196	0.068656285380106
pmp_tetramer.pdb_71	     1	1.007947	0.0000000000000000	A    	0.2583225710839196	0.068656285380106
pmp_tetramer.pdb_72	     1	1.007947	0.0000000000000000	A    	0.2572581535063279	0.06531785996356952
pmp_tetramer.pdb_73	     1	1.007947	0.0000000000000000	A    	0.2572581535063279	0.06531785996356952
pmp_tetramer.pdb_74	     1	1.007947	0.0000000000000000	A    	0.2572581535063279	0.06531785996356952
pmp_tetramer.pdb_75	     1	1.007947	0.0000000000000000	A    	0.2572581535063279	0.06531785996356952
pmp_tetramer.pdb_76	     1	1.007947	0.0000000000000000	A    	0.2572581535063279	0.06531785996356952
pmp_tetramer.pdb_77	     1	1.007947	0.0000000000000000	A    	0.2572581535063279	0.06531785996356952
pmp_tetramer.pdb_78	     1	1.007947	0.0000000000000000	A    	0.2572581535063279	0.06531785996356952
pmp_tetramer.pdb_79	     1	1.007947	0.0000000000000000	A    	0.2572581535063279	0.06531785996356952
pmp_tetramer.pdb_80	     1	1.007947	0.0000000000000000	A    	0.2583225710839196	0.068656285380106
pmp_tetramer.pdb_81	     1	1.007947	0.0000000000000000	A    	0.2644543413268124	0.06602135607582665
pmp_tetramer.pdb_82	     1	1.007947	0.0000000000000000	A    	0.2644543413268124	0.06602135607582665
pmp_tetramer.pdb_83	     1	1.007947	0.0000000000000000	A    	0.2644543413268124	0.06602135607582665
pmp_tetramer.pdb_84	     1	1.007947	0.0000000000000000	A    	0.1103427677297317	0.05895596890015097
pmp_tetramer.pdb_85	     1	1.007947	0.0000000000000000	A    	0.2572581535063279	0.06531785996356952
pmp_tetramer.pdb_86	     1	1.007947	0.0000000000000000	A    	0.2572581535063279	0.06531785996356952
pmp_tetramer.pdb_87	     1	1.007947	0.0000000000000000	A    	0.2572581535063279	0.06531785996356952
pmp_tetramer.pdb_88	     6	12.01078	0.0000000000000000	A    	0.337953176162662	0.4553891161106184
pmp_tetramer.pdb_89	     8	15.99943	0.0000000000000000	A    	0.3025106490435313	0.7048581468486769
pmp_tetramer.pdb_90	     6	12.01078	0.0000000000000000	A    	0.3480646886945065	0.3635030558377792
pmp_tetramer.pdb_91	     6	12.01078	0.0000000000000000	A    	0.3480646886945065	0.3635030558377792
pmp_tetramer.pdb_92	     6	12.01078	0.0000000000000000	A    	0.3480646886945065	0.3635030558377792
pmp_tetramer.pdb_93	     6	12.01078	0.0000000000000000	A    	0.3480646886945065	0.3635030558377792
pmp_tetramer.pdb_94	     6	12.01078	0.0000000000000000	A    	0.3480646886945065	0.3635030558377792
pmp_tetramer.pdb_95	     6	12.01078	0.0000000000000000	A    	0.3480646886945065	0.3635030558377792
pmp_tetramer.pdb_96	     6	12.01078	0.0000000000000000	A    	0.3480646886945065	0.3635030558377792
pmp_tetramer.pdb_97	     6	12.01078	0.0000000000000000	A    	0.3480646886945065	0.3635030558377792
pmp_tetramer.pdb_98	     8	15.99943	0.0000000000000000	A    	0.3039812205065809	0.8795023257036865
pmp_tetramer.pdb_99	     6	12.01078	0.0000000000000000	A    	0.3480646886945065	0.3635030558377792
pmp_tetramer.pdb_100	     6	12.01078	0.0000000000000000	A    	0.3480646886945065	0.3635030558377792
pmp_tetramer.pdb_101	     6	12.01078	0.0000000000000000	A    	0.3480646886945065	0.3635030558377792
pmp_tetramer.pdb_102	     6	12.01078	0.0000000000000000	A    	0.3480646886945065	0.3635030558377792
pmp_tetramer.pdb_103	     6	12.01078	0.0000000000000000	A    	0.3480646886945065	0.3635030558377792
pmp_tetramer.pdb_104	     6	12.01078	0.0000000000000000	A    	0.3480646886945065	0.3635030558377792
pmp_tetramer.pdb_105	     6	12.01078	0.0000000000000000	A    	0.3480646886945065	0.3635030558377792
pmp_tetramer.pdb_106	     6	12.01078	0.0000000000000000	A    	0.3480646886945065	0.3635030558377792
pmp_tetramer.pdb_107	     6	12.01078	0.0000000000000000	A    	0.337953176162662	0.4553891161106184
pmp_tetramer.pdb_108	     6	12.01078	0.0000000000000000	A    	0.337953176162662	0.4553891161106184
pmp_tetramer.pdb_109	     7	14.00672	0.0000000000000000	A    	0.3206876023663901	0.7016212989374017
pmp_tetramer.pdb_110	     6	12.01078	0.0000000000000000	A    	0.3480646886945065	0.3635030558377792
pmp_tetramer.pdb_111	     6	12.01078	0.0000000000000000	A    	0.3480646886945065	0.3635030558377792
pmp_tetramer.pdb_112	     6	12.01078	0.0000000000000000	A    	0.3480646886945065	0.3635030558377792
pmp_tetramer.pdb_113	     1	1.007947	0.0000000000000000	A    	0.2583225710839196	0.068656285380106
pmp_tetramer.pdb_114	     1	1.007947	0.0000000000000000	A    	0.2583225710839196	0.068656285380106
pmp_tetramer.pdb_115	     1	1.007947	0.0000000000000000	A    	0.2583225710839196	0.068656285380106
pmp_tetramer.pdb_116	     1	1.007947	0.0000000000000000	A    	0.2572581535063279	0.06531785996356952
pmp_tetramer.pdb_117	     1	1.007947	0.0000000000000000	A    	0.2572581535063279	0.06531785996356952
pmp_tetramer.pdb_118	     1	1.007947	0.0000000000000000	A    	0.2572581535063279	0.06531785996356952
pmp_tetramer.pdb_119	     1	1.007947	0.0000000000000000	A    	0.2572581535063279	0.06531785996356952
pmp_tetramer.pdb_120	     1	1.007947	0.0000000000000000	A    	0.2572581535063279	0.06531785996356952
pmp_tetramer.pdb_121	     1	1.007947	0.0000000000000000	A    	0.2572581535063279	0.06531785996356952
pmp_tetramer.pdb_122	     1	1.007947	0.0000000000000000	A    	0.2572581535063279	0.06531785996356952
pmp_tetramer.pdb_123	     1	1.007947	0.0000000000000000	A    	0.2572581535063279	0.06531785996356952
pmp_tetramer.pdb_124	     1	1.007947	0.0000000000000000	A    	0.2583225710839196	0.068656285380106
pmp_tetramer.pdb_125	     1	1.007947	0.0000000000000000	A    	0.2644543413268124	0.06602135607582665
pmp_tetramer.pdb_126	     1	1.007947	0.0000000000000000	A    	0.2644543413268124	0.06602135607582665
pmp_tetramer.pdb_127	     1	1.007947	0.0000000000000000	A    	0.2644543413268124	0.06602135607582665
pmp_tetramer.pdb_128	     1	1.007947	0.0000000000000000	A    	0.1103427677297317	0.05895596890015097
pmp_tetramer.pdb_129	     1	1.007947	0.0000000000000000	A    	0.2572581535063279	0.06531785996356952
pmp_tetramer.pdb_130	     1	1.007947	0.0000000000000000	A    	0.2572581535063279	0.06531785996356952
pmp_tetramer.pdb_131	     1	1.007947	0.0000000000000000	A    	0.2572581535063279	0.06531785996356952
pmp_tetramer.pdb_132	     6	12.01078	0.0000000000000000	A    	0.337953176162662	0.4553891161106184
pmp_tetramer.pdb_133	     8	15.99943	0.0000000000000000	A    	0.3025106490435313	0.7048581468486769
pmp_tetramer.pdb_134	     6	12.01078	0.0000000000000000	A    	0.3480646886945065	0.3635030558377792
pmp_tetramer.pdb_135	     6	12.01078	0.0000000000000000	A    	0.3480646886945065	0.3635030558377792
pmp_tetramer.pdb_136	     6	12.01078	0.0000000000000000	A    	0.3480646886945065	0.3635030558377792
pmp_tetramer.pdb_137	     6	12.01078	0.0000000000000000	A    	0.3480646886945065	0.3635030558377792
pmp_tetramer.pdb_138	     6	12.01078	0.0000000000000000	A    	0.3480646886945065	0.3635030558377792
pmp_tetramer.pdb_139	     6	12.01078	0.0000000000000000	A    	0.3480646886945065	0.3635030558377792
pmp_tetramer.pdb_140	     6	12.01078	0.0000000000000000	A    	0.3480646886945065	0.3635030558377792
pmp_tetramer.pdb_141	     6	12.01078	0.0000000000000000	A    	0.3480646886945065	0.3635030558377792
pmp_tetramer.pdb_142	     8	15.99943	0.0000000000000000	A    	0.3039812205065809	0.8795023257036865
pmp_tetramer.pdb_143	     6	12.01078	0.0000000000000000	A    	0.3480646886945065	0.3635030558377792
pmp_tetramer.pdb_144	     6	12.01078	0.0000000000000000	A    	0.3480646886945065	0.3635030558377792
pmp_tetramer.pdb_145	     6	12.01078	0.0000000000000000	A    	0.3480646886945065	0.3635030558377792
pmp_tetramer.pdb_146	     6	12.01078	0.0000000000000000	A    	0.3480646886945065	0.3635030558377792
pmp_tetramer.pdb_147	     6	12.01078	0.0000000000000000	A    	0.3480646886945065	0.3635030558377792
pmp_tetramer.pdb_148	     6	12.01078	0.0000000000000000	A    	0.3480646886945065	0.3635030558377792
pmp_tetramer.pdb_149	     6	12.01078	0.0000000000000000	A    	0.3480646886945065	0.3635030558377792
pmp_tetramer.pdb_150	     6	12.01078	0.0000000000000000	A    	0.3480646886945065	0.3635030558377792
pmp_tetramer.pdb_151	     6	12.01078	0.0000000000000000	A    	0.337953176162662	0.4553891161106184
pmp_tetramer.pdb_152	     6	12.01078	0.0000000000000000	A    	0.337953176162662	0.4553891161106184
pmp_tetramer.pdb_153	     7	14.00672	0.0000000000000000	A    	0.3206876023663901	0.7016212989374017
pmp_tetramer.pdb_154	     6	12.01078	0.0000000000000000	A    	0.3480646886945065	0.3635030558377792
pmp_tetramer.pdb_155	     6	12.01078	0.0000000000000000	A    	0.3480646886945065	0.3635030558377792
pmp_tetramer.pdb_156	     6	12.01078	0.0000000000000000	A    	0.3480646886945065	0.3635030558377792
pmp_tetramer.pdb_157	     1	1.007947	0.0000000000000000	A    	0.2583225710839196	0.068656285380106
pmp_tetramer.pdb_158	     1	1.007947	0.0000000000000000	A    	0.2583225710839196	0.068656285380106
pmp_tetramer.pdb_159	     1	1.007947	0.0000000000000000	A    	0.2583225710839196	0.068656285380106
pmp_tetramer.pdb_160	     1	1.007947	0.0000000000000000	A    	0.2572581535063279	0.06531785996356952
pmp_tetramer.pdb_161	     1	1.007947	0.0000000000000000	A    	0.2572581535063279	0.06531785996356952
pmp_tetramer.pdb_162	     1	1.007947	0.0000000000000000	A    	0.2572581535063279	0.06531785996356952
pmp_tetramer.pdb_163	     1	1.007947	0.0000000000000000	A    	0.2572581535063279	0.06531785996356952
pmp_tetramer.pdb_164	     1	1.007947	0.0000000000000000	A    	0.2572581535063279	0.06531785996356952
pmp_tetramer.pdb_165	     1	1.007947	0.0000000000000000	A    	0.2572581535063279	0.06531785996356952
pmp_tetramer.pdb_166	     1	1.007947	0.0000000000000000	A    	0.2572581535063279	0.06531785996356952
pmp_tetramer.pdb_167	     1	1.007947	0.0000000000000000	A    	0.2572581535063279	0.06531785996356952
pmp_tetramer.pdb_168	     1	1.007947	0.0000000000000000	A    	0.2583225710839196	0.068656285380106
pmp_tetramer.pdb_169	     1	1.007947	0.0000000000000000	A    	0.2644543413268124	0.06602135607582665
pmp_tetramer.pdb_170	     1	1.007947	0.0000000000000000	A    	0.2644543413268124	0.06602135607582665
pmp_tetramer.pdb_171	     1	1.007947	0.0000000000000000	A    	0.2644543413268124	0.06602135607582665
pmp_tetramer.pdb_172	     1	1.007947	0.0000000000000000	A    	0.1103427677297317	0.05895596890015097
pmp_tetramer.pdb_173	     1	1.007947	0.0000000000000000	A    	0.2572581535063279	0.06531785996356952
pmp_tetramer.pdb_174	     1	1.007947	0.0000000000000000	A    	0.2572581535063279	0.06531785996356952
pmp_tetramer.pdb_175	     1	1.007947	0.0000000000000000	A    	0.2572581535063279	0.06531785996356952
pmp_tetramer.pdb_176	     6	12.01078	0.0000000000000000	A    	0.337953176162662	0.4553891161106184
pmp_tetramer.pdb_177	     8	15.99943	0.0000000000000000	A    	0.3025106490435313	0.7048581468486769
pmp_tetramer.pdb_178	     1	1.007947	0.0000000000000000	A    	0.2583225710839196	0.068656285380106
pmp_tetramer.pdb_179	     1	1.007947	0.0000000000000000	A    	0.2583225710839196	0.068656285380106
pmp_tetramer.pdb_180	     1	1.007947	0.0000000000000000	A    	0.2583225710839196	0.068656285380106
pmp_tetramer.pdb_181	     6	12.01078	0.0000000000000000	A    	0.337953176162662	0.4553891161106184
pmp_tetramer.pdb_182	     6	12.01078	0.0000000000000000	A    	0.337953176162662	0.4553891161106184
pmp_tetramer.pdb_183	     6	12.01078	0.0000000000000000	A    	0.337953176162662	0.4553891161106184
pmp_tetramer.pdb_184	     6	12.01078	0.0000000000000000	A    	0.337953176162662	0.4553891161106184
pmp_tetramer.pdb_185	     8	15.99943	0.0000000000000000	A    	0.3025106490435313	0.7048581468486769
pmp_tetramer.pdb_186	     6	12.01078	0.0000000000000000	A    	0.3480646886945065	0.3635030558377792
pmp_tetramer.pdb_187	     8	15.99943	0.0000000000000000	A    	0.3039812205065809	0.8795023257036865
pmp_tetramer.pdb_188	     1	1.007947	0.0000000000000000	A    	0.2644543413268124	0.06602135607582665
pmp_tetramer.pdb_189	     1	1.007947	0.0000000000000000	A    	0.2644543413268124	0.06602135607582665
pmp_tetramer.pdb_190	     1	1.007947	0.0000000000000000	A    	0.2644543413268124	0.06602135607582665
pmp_tetramer.pdb_191	     1	1.007947	0.0000000000000000	A    	0.2644543413268124	0.06602135607582665
pmp_tetramer.pdb_192	     1	1.007947	0.0000000000000000	A    	0.2644543413268124	0.06602135607582665
pmp_tetramer.pdb_193	     1	1.007947	0.0000000000000000	A    	0.2644543413268124	0.06602135607582665
pmp_tetramer.pdb_194	     1	1.007947	0.0000000000000000	A    	0.2644543413268124	0.06602135607582665
pmp_tetramer.pdb_195	     1	1.007947	0.0000000000000000	A    	0.2644543413268124	0.06602135607582665
pmp_tetramer.pdb_196	     1	1.007947	0.0000000000000000	A    	0.2644543413268124	0.06602135607582665
MOL1_0     	    17	35.4532	0.0000000000000000	A    	0.3307527806460624	1.111270837866897
MOL1_1     	     6	12.01078	0.0000000000000000	A    	0.337953176162662	0.4553891161106184
MOL1_2     	    17	35.4532	0.0000000000000000	A    	0.3307527806460624	1.111270837866897
MOL1_3     	    17	35.4532	0.0000000000000000	A    	0.3307527806460624	1.111270837866897
MOL1_4     	     1	1.007947	0.0000000000000000	A    	0.2114993556865165	0.06568879999999999

[ moleculetype ]
pmp_tetramer.pdb	         3

[ atoms ]
;index, atom type, resnum, resname, name, cgnr, charge, mass
     1 pmp_tetramer.pdb_0       1 pmp_tetramer.pdb C          1      0.110059998930     12.010780000000
     2 pmp_tetramer.pdb_1       1 pmp_tetramer.pdb O          1     -0.321839988232     15.999430000000
     3 pmp_tetramer.pdb_2       1 pmp_tetramer.pdb C          1      0.122709996998     12.010780000000
     4 pmp_tetramer.pdb_3       1 pmp_tetramer.pdb C          1     -0.137869998813     12.010780000000
     5 pmp_tetramer.pdb_4       1 pmp_tetramer.pdb C          1     -0.011319999583     12.010780000000
     6 pmp_tetramer.pdb_5       1 pmp_tetramer.pdb C          1     -0.009859999642     12.010780000000
     7 pmp_tetramer.pdb_6       1 pmp_tetramer.pdb C          1     -0.133970007300     12.010780000000
     8 pmp_tetramer.pdb_7       1 pmp_tetramer.pdb C          1     -0.075779996812     12.010780000000
     9 pmp_tetramer.pdb_8       1 pmp_tetramer.pdb C          1     -0.127039998770     12.010780000000
    10 pmp_tetramer.pdb_9       1 pmp_tetramer.pdb C          1      0.644599974155     12.010780000000
    11 pmp_tetramer.pdb_10       1 pmp_tetramer.pdb O          1     -0.540650010109     15.999430000000
    12 pmp_tetramer.pdb_11       1 pmp_tetramer.pdb C          1     -0.075779996812     12.010780000000
    13 pmp_tetramer.pdb_12       1 pmp_tetramer.pdb C          1     -0.133970007300     12.010780000000
    14 pmp_tetramer.pdb_13       1 pmp_tetramer.pdb C          1     -0.140019997954     12.010780000000
    15 pmp_tetramer.pdb_14       1 pmp_tetramer.pdb C          1     -0.005710000172     12.010780000000
    16 pmp_tetramer.pdb_15       1 pmp_tetramer.pdb C          1     -0.033739998937     12.010780000000
    17 pmp_tetramer.pdb_16       1 pmp_tetramer.pdb C          1     -0.119609996676     12.010780000000
    18 pmp_tetramer.pdb_17       1 pmp_tetramer.pdb C          1     -0.117040000856     12.010780000000
    19 pmp_tetramer.pdb_18       1 pmp_tetramer.pdb C          1     -0.111469998956     12.010780000000
    20 pmp_tetramer.pdb_19       1 pmp_tetramer.pdb C          1      0.143270000815     12.010780000000
    21 pmp_tetramer.pdb_20       1 pmp_tetramer.pdb C          1     -0.106150001287     12.010780000000
    22 pmp_tetramer.pdb_21       1 pmp_tetramer.pdb N          1     -0.561730027199     14.006720000000
    23 pmp_tetramer.pdb_22       1 pmp_tetramer.pdb C          1     -0.117040000856     12.010780000000
    24 pmp_tetramer.pdb_23       1 pmp_tetramer.pdb C          1     -0.119609996676     12.010780000000
    25 pmp_tetramer.pdb_24       1 pmp_tetramer.pdb C          1     -0.193609997630     12.010780000000
    26 pmp_tetramer.pdb_25       1 pmp_tetramer.pdb H          1      0.045279998332      1.007947000000
    27 pmp_tetramer.pdb_26       1 pmp_tetramer.pdb H          1      0.045279998332      1.007947000000
    28 pmp_tetramer.pdb_27       1 pmp_tetramer.pdb H          1      0.045279998332      1.007947000000
    29 pmp_tetramer.pdb_28       1 pmp_tetramer.pdb H          1      0.155049994588      1.007947000000
    30 pmp_tetramer.pdb_29       1 pmp_tetramer.pdb H          1      0.140970006585      1.007947000000
    31 pmp_tetramer.pdb_30       1 pmp_tetramer.pdb H          1      0.155239999294      1.007947000000
    32 pmp_tetramer.pdb_31       1 pmp_tetramer.pdb H          1      0.155239999294      1.007947000000
    33 pmp_tetramer.pdb_32       1 pmp_tetramer.pdb H          1      0.140970006585      1.007947000000
    34 pmp_tetramer.pdb_33       1 pmp_tetramer.pdb H          1      0.141509994864      1.007947000000
    35 pmp_tetramer.pdb_34       1 pmp_tetramer.pdb H          1      0.136360004544      1.007947000000
    36 pmp_tetramer.pdb_35       1 pmp_tetramer.pdb H          1      0.136529996991      1.007947000000
    37 pmp_tetramer.pdb_36       1 pmp_tetramer.pdb H          1      0.090029999614      1.007947000000
    38 pmp_tetramer.pdb_37       1 pmp_tetramer.pdb H          1      0.046489998698      1.007947000000
    39 pmp_tetramer.pdb_38       1 pmp_tetramer.pdb H          1      0.046489998698      1.007947000000
    40 pmp_tetramer.pdb_39       1 pmp_tetramer.pdb H          1      0.046489998698      1.007947000000
    41 pmp_tetramer.pdb_40       1 pmp_tetramer.pdb H          1      0.304300010204      1.007947000000
    42 pmp_tetramer.pdb_41       1 pmp_tetramer.pdb H          1      0.136529996991      1.007947000000
    43 pmp_tetramer.pdb_42       1 pmp_tetramer.pdb H          1      0.136360004544      1.007947000000
    44 pmp_tetramer.pdb_43       1 pmp_tetramer.pdb H          1      0.144360005856      1.007947000000
    45 pmp_tetramer.pdb_44       1 pmp_tetramer.pdb C          1      0.113569997251     12.010780000000
    46 pmp_tetramer.pdb_45       1 pmp_tetramer.pdb O          1     -0.326380014420     15.999430000000
    47 pmp_tetramer.pdb_46       1 pmp_tetramer.pdb C          1      0.126800000668     12.010780000000
    48 pmp_tetramer.pdb_47       1 pmp_tetramer.pdb C          1     -0.136950001121     12.010780000000
    49 pmp_tetramer.pdb_48       1 pmp_tetramer.pdb C          1     -0.013059999794     12.010780000000
    50 pmp_tetramer.pdb_49       1 pmp_tetramer.pdb C          1     -0.012810000218     12.010780000000
    51 pmp_tetramer.pdb_50       1 pmp_tetramer.pdb C          1     -0.129679992795     12.010780000000
    52 pmp_tetramer.pdb_51       1 pmp_tetramer.pdb C          1     -0.089599996805     12.010780000000
    53 pmp_tetramer.pdb_52       1 pmp_tetramer.pdb C          1     -0.144099995494     12.010780000000
    54 pmp_tetramer.pdb_53       1 pmp_tetramer.pdb C          1      0.673160016537     12.010780000000
    55 pmp_tetramer.pdb_54       1 pmp_tetramer.pdb O          1     -0.596199989319     15.999430000000
    56 pmp_tetramer.pdb_55       1 pmp_tetramer.pdb C          1     -0.089599996805     12.010780000000
    57 pmp_tetramer.pdb_56       1 pmp_tetramer.pdb C          1     -0.129679992795     12.010780000000
    58 pmp_tetramer.pdb_57       1 pmp_tetramer.pdb C          1     -0.142849996686     12.010780000000
    59 pmp_tetramer.pdb_58       1 pmp_tetramer.pdb C          1     -0.003980000038     12.010780000000
    60 pmp_tetramer.pdb_59       1 pmp_tetramer.pdb C          1     -0.032990001142     12.010780000000
    61 pmp_tetramer.pdb_60       1 pmp_tetramer.pdb C          1     -0.117279998958     12.010780000000
    62 pmp_tetramer.pdb_61       1 pmp_tetramer.pdb C          1     -0.120849996805     12.010780000000
    63 pmp_tetramer.pdb_62       1 pmp_tetramer.pdb C          1     -0.095849998295     12.010780000000
    64 pmp_tetramer.pdb_63       1 pmp_tetramer.pdb C          1      0.151519998908     12.010780000000
    65 pmp_tetramer.pdb_64       1 pmp_tetramer.pdb C          1     -0.112319998443     12.010780000000
    66 pmp_tetramer.pdb_65       1 pmp_tetramer.pdb N          1     -0.570720016956     14.006720000000
    67 pmp_tetramer.pdb_66       1 pmp_tetramer.pdb C          1     -0.120849996805     12.010780000000
    68 pmp_tetramer.pdb_67       1 pmp_tetramer.pdb C          1     -0.117279998958     12.010780000000
    69 pmp_tetramer.pdb_68       1 pmp_tetramer.pdb C          1     -0.190300002694     12.010780000000
    70 pmp_tetramer.pdb_69       1 pmp_tetramer.pdb H          1      0.045770000666      1.007947000000
    71 pmp_tetramer.pdb_70       1 pmp_tetramer.pdb H          1      0.045770000666      1.007947000000
    72 pmp_tetramer.pdb_71       1 pmp_tetramer.pdb H          1      0.045770000666      1.007947000000
    73 pmp_tetramer.pdb_72       1 pmp_tetramer.pdb H          1      0.155670002103      1.007947000000
    74 pmp_tetramer.pdb_73       1 pmp_tetramer.pdb H          1      0.140819996595      1.007947000000
    75 pmp_tetramer.pdb_74       1 pmp_tetramer.pdb H          1      0.149470001459      1.007947000000
    76 pmp_tetramer.pdb_75       1 pmp_tetramer.pdb H          1      0.149470001459      1.007947000000
    77 pmp_tetramer.pdb_76       1 pmp_tetramer.pdb H          1      0.140819996595      1.007947000000
    78 pmp_tetramer.pdb_77       1 pmp_tetramer.pdb H          1      0.138479992747      1.007947000000
    79 pmp_tetramer.pdb_78       1 pmp_tetramer.pdb H          1      0.136490002275      1.007947000000
    80 pmp_tetramer.pdb_79       1 pmp_tetramer.pdb H          1      0.136749997735      1.007947000000
    81 pmp_tetramer.pdb_80       1 pmp_tetramer.pdb H          1      0.087729997933      1.007947000000
    82 pmp_tetramer.pdb_81       1 pmp_tetramer.pdb H          1      0.045910000801      1.007947000000
    83 pmp_tetramer.pdb_82       1 pmp_tetramer.pdb H          1      0.045910000801      1.007947000000
    84 pmp_tetramer.pdb_83       1 pmp_tetramer.pdb H          1      0.045910000801      1.007947000000
    85 pmp_tetramer.pdb_84       1 pmp_tetramer.pdb H          1      0.310589998960      1.007947000000
    86 pmp_tetramer.pdb_85       1 pmp_tetramer.pdb H          1      0.136749997735      1.007947000000
    87 pmp_tetramer.pdb_86       1 pmp_tetramer.pdb H          1      0.136490002275      1.007947000000
    88 pmp_tetramer.pdb_87       1 pmp_tetramer.pdb H          1      0.142429992557      1.007947000000
    89 pmp_tetramer.pdb_88       1 pmp_tetramer.pdb C          1      0.111830003560     12.010780000000
    90 pmp_tetramer.pdb_89       1 pmp_tetramer.pdb O          1     -0.325780004263     15.999430000000
    91 pmp_tetramer.pdb_90       1 pmp_tetramer.pdb C          1      0.123479999602     12.010780000000
    92 pmp_tetramer.pdb_91       1 pmp_tetramer.pdb C          1     -0.190280005336     12.010780000000
    93 pmp_tetramer.pdb_92       1 pmp_tetramer.pdb C          1     -0.010329999961     12.010780000000
    94 pmp_tetramer.pdb_93       1 pmp_tetramer.pdb C          1     -0.013020000421     12.010780000000
    95 pmp_tetramer.pdb_94       1 pmp_tetramer.pdb C          1     -0.130239993334     12.010780000000
    96 pmp_tetramer.pdb_95       1 pmp_tetramer.pdb C          1     -0.090649999678     12.010780000000
    97 pmp_tetramer.pdb_96       1 pmp_tetramer.pdb C          1     -0.141629993916     12.010780000000
    98 pmp_tetramer.pdb_97       1 pmp_tetramer.pdb C          1      0.675809979439     12.010780000000
    99 pmp_tetramer.pdb_98       1 pmp_tetramer.pdb O          1     -0.606400012970     15.999430000000
   100 pmp_tetramer.pdb_99       1 pmp_tetramer.pdb C          1     -0.090649999678     12.010780000000
   101 pmp_tetramer.pdb_100       1 pmp_tetramer.pdb C          1     -0.130239993334     12.010780000000
   102 pmp_tetramer.pdb_101       1 pmp_tetramer.pdb C          1     -0.140750005841     12.010780000000
   103 pmp_tetramer.pdb_102       1 pmp_tetramer.pdb C          1     -0.004739999771     12.010780000000
   104 pmp_tetramer.pdb_103       1 pmp_tetramer.pdb C          1     -0.035069998354     12.010780000000
   105 pmp_tetramer.pdb_104       1 pmp_tetramer.pdb C          1     -0.116209998727     12.010780000000
   106 pmp_tetramer.pdb_105       1 pmp_tetramer.pdb C          1     -0.121979996562     12.010780000000
   107 pmp_tetramer.pdb_106       1 pmp_tetramer.pdb C          1     -0.093999996781     12.010780000000
   108 pmp_tetramer.pdb_107       1 pmp_tetramer.pdb C          1      0.152070000768     12.010780000000
   109 pmp_tetramer.pdb_108       1 pmp_tetramer.pdb C          1     -0.112070001662     12.010780000000
   110 pmp_tetramer.pdb_109       1 pmp_tetramer.pdb N          1     -0.568899989128     14.006720000000
   111 pmp_tetramer.pdb_110       1 pmp_tetramer.pdb C          1     -0.121979996562     12.010780000000
   112 pmp_tetramer.pdb_111       1 pmp_tetramer.pdb C          1     -0.116209998727     12.010780000000
   113 pmp_tetramer.pdb_112       1 pmp_tetramer.pdb C          1     -0.138989999890     12.010780000000
   114 pmp_tetramer.pdb_113       1 pmp_tetramer.pdb H          1      0.046080000699      1.007947000000
   115 pmp_tetramer.pdb_114       1 pmp_tetramer.pdb H          1      0.046080000699      1.007947000000
   116 pmp_tetramer.pdb_115       1 pmp_tetramer.pdb H          1      0.046080000699      1.007947000000
   117 pmp_tetramer.pdb_116       1 pmp_tetramer.pdb H          1      0.143710002303      1.007947000000
   118 pmp_tetramer.pdb_117       1 pmp_tetramer.pdb H          1      0.140760004520      1.007947000000
   119 pmp_tetramer.pdb_118       1 pmp_tetramer.pdb H          1      0.148359999061      1.007947000000
   120 pmp_tetramer.pdb_119       1 pmp_tetramer.pdb H          1      0.148359999061      1.007947000000
   121 pmp_tetramer.pdb_120       1 pmp_tetramer.pdb H          1      0.140760004520      1.007947000000
   122 pmp_tetramer.pdb_121       1 pmp_tetramer.pdb H          1      0.139579996467      1.007947000000
   123 pmp_tetramer.pdb_122       1 pmp_tetramer.pdb H          1      0.138490006328      1.007947000000
   124 pmp_tetramer.pdb_123       1 pmp_tetramer.pdb H          1      0.136340007186      1.007947000000
   125 pmp_tetramer.pdb_124       1 pmp_tetramer.pdb H          1      0.085610002279      1.007947000000
   126 pmp_tetramer.pdb_125       1 pmp_tetramer.pdb H          1      0.046689998358      1.007947000000
   127 pmp_tetramer.pdb_126       1 pmp_tetramer.pdb H          1      0.046689998358      1.007947000000
   128 pmp_tetramer.pdb_127       1 pmp_tetramer.pdb H          1      0.046689998358      1.007947000000
   129 pmp_tetramer.pdb_128       1 pmp_tetramer.pdb H          1      0.311540007591      1.007947000000
   130 pmp_tetramer.pdb_129       1 pmp_tetramer.pdb H          1      0.136340007186      1.007947000000
   131 pmp_tetramer.pdb_130       1 pmp_tetramer.pdb H          1      0.138490006328      1.007947000000
   132 pmp_tetramer.pdb_131       1 pmp_tetramer.pdb H          1      0.153699994087      1.007947000000
   133 pmp_tetramer.pdb_132       1 pmp_tetramer.pdb C          1      0.112750001252     12.010780000000
   134 pmp_tetramer.pdb_133       1 pmp_tetramer.pdb O          1     -0.324809998274     15.999430000000
   135 pmp_tetramer.pdb_134       1 pmp_tetramer.pdb C          1      0.126259997487     12.010780000000
   136 pmp_tetramer.pdb_135       1 pmp_tetramer.pdb C          1     -0.135920003057     12.010780000000
   137 pmp_tetramer.pdb_136       1 pmp_tetramer.pdb C          1     -0.012140000239     12.010780000000
   138 pmp_tetramer.pdb_137       1 pmp_tetramer.pdb C          1     -0.014320000075     12.010780000000
   139 pmp_tetramer.pdb_138       1 pmp_tetramer.pdb C          1     -0.129460006952     12.010780000000
   140 pmp_tetramer.pdb_139       1 pmp_tetramer.pdb C          1     -0.092440001667     12.010780000000
   141 pmp_tetramer.pdb_140       1 pmp_tetramer.pdb C          1     -0.142739996314     12.010780000000
   142 pmp_tetramer.pdb_141       1 pmp_tetramer.pdb C          1      0.675589978695     12.010780000000
   143 pmp_tetramer.pdb_142       1 pmp_tetramer.pdb O          1     -0.612659990788     15.999430000000
   144 pmp_tetramer.pdb_143       1 pmp_tetramer.pdb C          1     -0.092440001667     12.010780000000
   145 pmp_tetramer.pdb_144       1 pmp_tetramer.pdb C          1     -0.129460006952     12.010780000000
   146 pmp_tetramer.pdb_145       1 pmp_tetramer.pdb C          1     -0.141819998622     12.010780000000
   147 pmp_tetramer.pdb_146       1 pmp_tetramer.pdb C          1     -0.004040000029     12.010780000000
   148 pmp_tetramer.pdb_147       1 pmp_tetramer.pdb C          1     -0.030939999968     12.010780000000
   149 pmp_tetramer.pdb_148       1 pmp_tetramer.pdb C          1     -0.117190003395     12.010780000000
   150 pmp_tetramer.pdb_149       1 pmp_tetramer.pdb C          1     -0.117669999599     12.010780000000
   151 pmp_tetramer.pdb_150       1 pmp_tetramer.pdb C          1     -0.099150002003     12.010780000000
   152 pmp_tetramer.pdb_151       1 pmp_tetramer.pdb C          1      0.163220003247     12.010780000000
   153 pmp_tetramer.pdb_152       1 pmp_tetramer.pdb C          1     -0.112460002303     12.010780000000
   154 pmp_tetramer.pdb_153       1 pmp_tetramer.pdb N          1     -0.563180029392     14.006720000000
   155 pmp_tetramer.pdb_154       1 pmp_tetramer.pdb C          1     -0.117669999599     12.010780000000
   156 pmp_tetramer.pdb_155       1 pmp_tetramer.pdb C          1     -0.117190003395     12.010780000000
   157 pmp_tetramer.pdb_156       1 pmp_tetramer.pdb C          1     -0.189390003681     12.010780000000
   158 pmp_tetramer.pdb_157       1 pmp_tetramer.pdb H          1      0.045729998499      1.007947000000
   159 pmp_tetramer.pdb_158       1 pmp_tetramer.pdb H          1      0.045729998499      1.007947000000
   160 pmp_tetramer.pdb_159       1 pmp_tetramer.pdb H          1      0.045729998499      1.007947000000
   161 pmp_tetramer.pdb_160       1 pmp_tetramer.pdb H          1      0.155640006065      1.007947000000
   162 pmp_tetramer.pdb_161       1 pmp_tetramer.pdb H          1      0.143329992890      1.007947000000
   163 pmp_tetramer.pdb_162       1 pmp_tetramer.pdb H          1      0.149619996548      1.007947000000
   164 pmp_tetramer.pdb_163       1 pmp_tetramer.pdb H          1      0.149619996548      1.007947000000
   165 pmp_tetramer.pdb_164       1 pmp_tetramer.pdb H          1      0.143329992890      1.007947000000
   166 pmp_tetramer.pdb_165       1 pmp_tetramer.pdb H          1      0.137400001287      1.007947000000
   167 pmp_tetramer.pdb_166       1 pmp_tetramer.pdb H          1      0.137820005417      1.007947000000
   168 pmp_tetramer.pdb_167       1 pmp_tetramer.pdb H          1      0.137429997325      1.007947000000
   169 pmp_tetramer.pdb_168       1 pmp_tetramer.pdb H          1      0.084669999778      1.007947000000
   170 pmp_tetramer.pdb_169       1 pmp_tetramer.pdb H          1      0.046360000968      1.007947000000
   171 pmp_tetramer.pdb_170       1 pmp_tetramer.pdb H          1      0.046360000968      1.007947000000
   172 pmp_tetramer.pdb_171       1 pmp_tetramer.pdb H          1      0.046360000968      1.007947000000
   173 pmp_tetramer.pdb_172       1 pmp_tetramer.pdb H          1      0.334500014782      1.007947000000
   174 pmp_tetramer.pdb_173       1 pmp_tetramer.pdb H          1      0.137429997325      1.007947000000
   175 pmp_tetramer.pdb_174       1 pmp_tetramer.pdb H          1      0.137820005417      1.007947000000
   176 pmp_tetramer.pdb_175       1 pmp_tetramer.pdb H          1      0.142489999533      1.007947000000
   177 pmp_tetramer.pdb_176       1 pmp_tetramer.pdb C          1      0.126729995012     12.010780000000
   178 pmp_tetramer.pdb_177       1 pmp_tetramer.pdb O          1     -0.428860008717     15.999430000000
   179 pmp_tetramer.pdb_178       1 pmp_tetramer.pdb H          1      0.053500000387      1.007947000000
   180 pmp_tetramer.pdb_179       1 pmp_tetramer.pdb H          1      0.053500000387      1.007947000000
   181 pmp_tetramer.pdb_180       1 pmp_tetramer.pdb H          1      0.053500000387      1.007947000000
   182 pmp_tetramer.pdb_181       1 pmp_tetramer.pdb C          1     -0.114260002971     12.010780000000
   183 pmp_tetramer.pdb_182       1 pmp_tetramer.pdb C          1      0.186979994178     12.010780000000
   184 pmp_tetramer.pdb_183       1 pmp_tetramer.pdb C          1     -0.114260002971     12.010780000000
   185 pmp_tetramer.pdb_184       1 pmp_tetramer.pdb C          1     -0.114260002971     12.010780000000
   186 pmp_tetramer.pdb_185       1 pmp_tetramer.pdb O          1     -0.451499998569     15.999430000000
   187 pmp_tetramer.pdb_186       1 pmp_tetramer.pdb C          1      0.750270009041     12.010780000000
   188 pmp_tetramer.pdb_187       1 pmp_tetramer.pdb O          1     -0.604179978371     15.999430000000
   189 pmp_tetramer.pdb_188       1 pmp_tetramer.pdb H          1      0.051890000701      1.007947000000
   190 pmp_tetramer.pdb_189       1 pmp_tetramer.pdb H          1      0.051890000701      1.007947000000
   191 pmp_tetramer.pdb_190       1 pmp_tetramer.pdb H          1      0.051890000701      1.007947000000
   192 pmp_tetramer.pdb_191       1 pmp_tetramer.pdb H          1      0.051890000701      1.007947000000
   193 pmp_tetramer.pdb_192       1 pmp_tetramer.pdb H          1      0.051890000701      1.007947000000
   194 pmp_tetramer.pdb_193       1 pmp_tetramer.pdb H          1      0.051890000701      1.007947000000
   195 pmp_tetramer.pdb_194       1 pmp_tetramer.pdb H          1      0.051890000701      1.007947000000
   196 pmp_tetramer.pdb_195       1 pmp_tetramer.pdb H          1      0.051890000701      1.007947000000
   197 pmp_tetramer.pdb_196       1 pmp_tetramer.pdb H          1      0.051890000701      1.007947000000

[ pairs ]
;ai    aj   funct
    48	    59	     1
    66	   100	     1
   104	   130	     1
    68	    69	     1
    47	    71	     1
    97	   118	     1
   109	   111	     1
    74	    75	     1
   150	   156	     1
     6	    32	     1
    94	   122	     1
     5	    16	     1
    92	    95	     1
    95	   102	     1
   136	   147	     1
   186	   191	     1
   185	   187	     1
   169	   172	     1
   111	   124	     1
    60	    86	     1
   184	   197	     1
    64	    97	     1
   185	   194	     1
    76	    77	     1
   140	   164	     1
   108	   124	     1
    42	    43	     1
   153	   173	     1
     6	    15	     1
    62	    68	     1
    98	   120	     1
     2	     5	     1
    49	    74	     1
   148	   151	     1
   140	   145	     1
   151	   172	     1
    10	    13	     1
    89	    92	     1
   107	   123	     1
    52	    55	     1
    49	    52	     1
   110	   126	     1
    69	    73	     1
    12	    31	     1
    63	    79	     1
   106	   110	     1
     8	   178	     1
   164	   165	     1
   182	   187	     1
   150	   153	     1
    47	    60	     1
   149	   155	     1
   133	   157	     1
   146	   176	     1
    92	   101	     1
    93	   121	     1
   182	   194	     1
    99	   100	     1
    20	    55	     1
    91	    94	     1
    90	   103	     1
    94	    97	     1
    59	    62	     1
   154	   172	     1
    50	    76	     1
   152	   174	     1
    14	    44	     1
   129	   143	     1
    24	    25	     1
    22	    56	     1
    22	    23	     1
     2	    44	     1
    47	    58	     1
    48	    88	     1
   106	   125	     1
   108	   141	     1
    15	    35	     1
   146	   161	     1
    35	    36	     1
    48	    51	     1
    62	    65	     1
   144	   163	     1
    96	    99	     1
   186	   196	     1
   137	   144	     1
    61	    64	     1
    52	    76	     1
   184	   190	     1
   135	   146	     1
   167	   168	     1
     2	    15	     1
    14	    24	     1
    45	    48	     1
    50	    59	     1
   134	   176	     1
    18	    42	     1
   107	   129	     1
     6	    31	     1
   102	   117	     1
    14	    17	     1
   152	   188	     1
    97	   121	     1
   153	   187	     1
    66	    83	     1
    52	    57	     1
    16	    19	     1
   141	   162	     1
    98	   119	     1
     3	    16	     1
    16	    34	     1
   137	   148	     1
     5	    33	     1
    89	   113	     1
    37	    54	     1
   135	   159	     1
    59	    79	     1
    17	    25	     1
     5	    12	     1
   134	   161	     1
    49	    56	     1
    46	    88	     1
   147	   175	     1
    93	    96	     1
   107	   142	     1
    85	    97	     1
    54	    76	     1
    60	    78	     1
    64	    80	     1
   139	   165	     1
    66	    96	     1
   105	   113	     1
   169	   173	     1
    92	   122	     1
    65	    85	     1
    58	    73	     1
    49	    77	     1
     7	    10	     1
    95	    98	     1
    54	    57	     1
     5	    25	     1
   133	   136	     1
     6	    29	     1
    98	   101	     1
    21	    23	     1
    50	    53	     1
   186	   195	     1
   185	   191	     1
    50	    75	     1
    81	    85	     1
    32	    33	     1
   138	   164	     1
   125	   128	     1
    48	    78	     1
   186	   189	     1
    37	    41	     1
     7	    33	     1
   113	   117	     1
   151	   173	     1
    63	    82	     1
   102	   112	     1
    65	    98	     1
     7	    12	     1
    47	    50	     1
    96	   120	     1
    19	    40	     1
     7	    14	     1
    90	   117	     1
    93	   113	     1
   143	   144	     1
   147	   167	     1
   134	   147	     1
   107	   128	     1
     9	    30	     1
    69	    78	     1
    23	    36	     1
    18	    21	     1
    64	    86	     1
    22	    39	     1
   104	   132	     1
   186	   197	     1
    79	    80	     1
    67	    80	     1
   110	   111	     1
   183	   188	     1
     8	    32	     1
    66	    82	     1
   102	   105	     1
   147	   155	     1
    15	    18	     1
    61	    87	     1
   145	   146	     1
   174	   175	     1
    61	    67	     1
   135	   158	     1
   182	   197	     1
    86	    87	     1
   135	   138	     1
    54	    75	     1
    60	    88	     1
    81	    82	     1
    10	   180	     1
    64	    99	     1
     2	    29	     1
   169	   187	     1
   101	   118	     1
    92	   132	     1
    16	    42	     1
    62	    81	     1
   142	   163	     1
   173	   188	     1
    91	   114	     1
    21	    54	     1
    94	   117	     1
   184	   187	     1
   157	   166	     1
   137	   140	     1
    41	    53	     1
     6	    34	     1
     3	    14	     1
   110	   128	     1
     3	    28	     1
   118	   119	     1
   125	   127	     1
   150	   174	     1
   151	   187	     1
   155	   169	     1
   108	   130	     1
    47	    70	     1
   104	   107	     1
   149	   157	     1
    20	    42	     1
    49	    69	     1
    19	    43	     1
   186	   192	     1
    37	    38	     1
     4	    44	     1
    50	    78	     1
    46	    73	     1
   134	   137	     1
   123	   124	     1
   137	   165	     1
    21	    41	     1
   169	   170	     1
   108	   143	     1
    51	    77	     1
   182	   196	     1
    63	    85	     1
   104	   122	     1
   103	   131	     1
   182	   192	     1
   108	   112	     1
   137	   157	     1
    96	   101	     1
   186	   193	     1
    55	    56	     1
   156	   167	     1
     4	     7	     1
    94	   103	     1
   136	   139	     1
   135	   148	     1
   139	   142	     1
   107	   131	     1
    22	    38	     1
   151	   170	     1
    51	    58	     1
    63	    98	     1
   154	   183	     1
    17	    20	     1
   152	   186	     1
   185	   189	     1
   120	   121	     1
   106	   109	     1
   105	   111	     1
   138	   161	     1
   146	   156	     1
    13	    14	     1
   153	   155	     1
   138	   141	     1
    91	   102	     1
   139	   146	     1
    18	    24	     1
    85	    99	     1
     1	     4	     1
   102	   132	     1
    60	    80	     1
   148	   166	     1
   154	   170	     1
   136	   166	     1
   125	   126	     1
   156	   157	     1
    53	    74	     1
   150	   154	     1
   182	   195	     1
    10	   179	     1
   145	   162	     1
    94	   120	     1
    65	    67	     1
   103	   106	     1
    95	   100	     1
    12	   178	     1
   136	   145	     1
    18	    37	     1
     8	    13	     1
    81	    98	     1
    16	    36	     1
   169	   171	     1
   152	   156	     1
    63	    84	     1
    20	    53	     1
    22	    52	     1
   150	   169	     1
    62	    86	     1
    58	    88	     1
    19	    54	     1
   105	   108	     1
    46	    49	     1
    62	    66	     1
   138	   147	     1
    58	    68	     1
   184	   191	     1
    59	    87	     1
    19	    35	     1
   140	   143	     1
     1	    25	     1
    93	   104	     1
    59	    67	     1
     6	     9	     1
   151	   175	     1
   110	   144	     1
    57	    58	     1
   151	   171	     1
   106	   130	     1
    14	    29	     1
   157	   161	     1
    20	    36	     1
    64	    68	     1
    66	    84	     1
   103	   123	     1
    30	    31	     1
    90	   132	     1
    61	    69	     1
    19	    39	     1
   135	   160	     1
   185	   192	     1
     9	    33	     1
    19	    41	     1
    46	    59	     1
   186	   194	     1
    81	    84	     1
   129	   141	     1
   185	   190	     1
   154	   171	     1
   142	   164	     1
    57	    74	     1
    16	    44	     1
   106	   112	     1
     4	    13	     1
   148	   174	     1
   112	   113	     1
   147	   150	     1
    10	    32	     1
    95	   121	     1
   173	   186	     1
    91	   116	     1
    51	    56	     1
   137	   162	     1
   142	   145	     1
    94	   119	     1
    92	   103	     1
     3	     6	     1
   185	   193	     1
   148	   168	     1
    25	    29	     1
   151	   167	     1
    17	    43	     1
     5	    30	     1
     3	    27	     1
   107	   127	     1
   186	   190	     1
   125	   129	     1
    68	    79	     1
    60	    63	     1
    11	   177	     1
    47	    72	     1
    63	    83	     1
    18	    22	     1
    53	    77	     1
   152	   168	     1
    13	    30	     1
   184	   196	     1
   101	   102	     1
     4	    15	     1
   148	   176	     1
   136	   176	     1
    17	    23	     1
    37	    40	     1
    10	   181	     1
   111	   125	     1
   125	   142	     1
    41	    55	     1
   105	   131	     1
   113	   122	     1
   182	   193	     1
    63	    87	     1
    67	    81	     1
     8	    11	     1
    23	    37	     1
   104	   124	     1
   100	   119	     1
   154	   155	     1
    20	    24	     1
    58	    61	     1
   149	   152	     1
   103	   111	     1
    93	   118	     1
    45	    69	     1
   139	   144	     1
    50	    73	     1
    22	    40	     1
   141	   165	     1
    81	    83	     1
   110	   127	     1
    56	    75	     1
   109	   129	     1
     4	    34	     1
    24	    35	     1
    15	    43	     1
   112	   123	     1
    11	    12	     1
    51	    54	     1
   162	   163	     1
   138	   163	     1
   155	   168	     1
    66	    67	     1
    91	   115	     1
    19	    38	     1
   146	   149	     1
     5	     8	     1
   184	   195	     1
    91	   104	     1
    49	    60	     1
    90	    93	     1
    93	   100	     1
    48	    57	     1
    25	    34	     1
     3	    26	     1
   138	   166	     1
     9	   177	     1
   110	   140	     1
    10	    31	     1
   107	   126	     1
    37	    39	     1
   130	   131	     1
   149	   175	     1
   184	   189	     1
   109	   142	     1
    15	    23	     1

[ bonds ]
;ai    aj   funct r k
     1     28      1      0.109389949263  309655.084322414012 
     1      2      1      0.142589505373  306888.771877388994 
     2      3      1      0.136294580649  356218.264001121745 
     3      4      1      0.138719322718  301905.092578520998 
     4     29      1      0.108535849592  332422.631675317942 
     4      5      1      0.138719322718  301905.092578520998 
     5      6      1      0.145462892503  233580.248617646750 
     6     13      1      0.138719322718  301905.092578520998 
     6      7      1      0.138719322718  301905.092578520998 
     7      8      1      0.138719322718  301905.092578520998 
     8      9      1      0.138719322718  301905.092578520998 
     9     10      1      0.145462892503  233580.248617646750 
     9     12      1      0.138719322718  301905.092578520998 
    10    178      1      0.134574123280  252005.673256632901 
    10     11      1      0.122519838622  487602.327766196802 
    12     32      1      0.108535849592  332422.631675317942 
    13     33      1      0.108535849592  332422.631675317942 
    12     13      1      0.138719322718  301905.092578520998 
     5     14      1      0.138719322718  301905.092578520998 
    14     34      1      0.108535849592  332422.631675317942 
    14     15      1      0.138719322718  301905.092578520998 
    15     16      1      0.145462892503  233580.248617646750 
    16     24      1      0.138719322718  301905.092578520998 
    16     17      1      0.138719322718  301905.092578520998 
    17     18      1      0.138719322718  301905.092578520998 
    18     19      1      0.138719322718  301905.092578520998 
    19     23      1      0.138719322718  301905.092578520998 
    20     37      1      0.109389949263  309655.084322414012 
    19     20      1      0.149864681646  242452.869388089370 
    20     21      1      0.152190126495  221435.259290285845 
    21     39      1      0.109389949263  309655.084322414012 
    21     38      1      0.109389949263  309655.084322414012 
    22     54      1      0.138189777668  412347.817359175009 
    20     22      1      0.145009858627  294600.927775905351 
    23     24      1      0.138719322718  301905.092578520998 
    23     42      1      0.108535849592  332422.631675317942 
    24     43      1      0.108535849592  332422.631675317942 
     3     25      1      0.138719322718  301905.092578520998 
    15     25      1      0.138719322718  301905.092578520998 
     1     26      1      0.109389949263  309655.084322414012 
     1     27      1      0.109389949263  309655.084322414012 
     7     30      1      0.108535849592  332422.631675317942 
     8     31      1      0.108535849592  332422.631675317942 
    17     35      1      0.108535849592  332422.631675317942 
    18     36      1      0.108535849592  332422.631675317942 
    21     40      1      0.109389949263  309655.084322414012 
    22     41      1      0.101948186503  422704.914414302446 
    25     44      1      0.108535849592  332422.631675317942 
    45     70      1      0.109389949263  309655.084322414012 
    46     47      1      0.136294580649  356218.264001121745 
    45     46      1      0.142589505373  306888.771877388994 
    47     48      1      0.138719322718  301905.092578520998 
    48     49      1      0.138719322718  301905.092578520998 
    48     73      1      0.108535849592  332422.631675317942 
    49     50      1      0.145462892503  233580.248617646750 
    50     51      1      0.138719322718  301905.092578520998 
    51     74      1      0.108535849592  332422.631675317942 
    51     52      1      0.138719322718  301905.092578520998 
    52     75      1      0.108535849592  332422.631675317942 
    52     53      1      0.138719322718  301905.092578520998 
    53     54      1      0.145462892503  233580.248617646750 
    54     55      1      0.122519838622  487602.327766196802 
    53     56      1      0.138719322718  301905.092578520998 
    50     57      1      0.138719322718  301905.092578520998 
    56     57      1      0.138719322718  301905.092578520998 
    58     78      1      0.108535849592  332422.631675317942 
    49     58      1      0.138719322718  301905.092578520998 
    58     59      1      0.138719322718  301905.092578520998 
    59     60      1      0.145462892503  233580.248617646750 
    60     61      1      0.138719322718  301905.092578520998 
    61     79      1      0.108535849592  332422.631675317942 
    61     62      1      0.138719322718  301905.092578520998 
    62     80      1      0.108535849592  332422.631675317942 
    62     63      1      0.138719322718  301905.092578520998 
    63     64      1      0.149864681646  242452.869388089370 
    64     81      1      0.109389949263  309655.084322414012 
    65     82      1      0.109389949263  309655.084322414012 
    64     65      1      0.152190126495  221435.259290285845 
    64     66      1      0.145009858627  294600.927775905351 
    66     85      1      0.101948186503  422704.914414302446 
    67     68      1      0.138719322718  301905.092578520998 
    63     67      1      0.138719322718  301905.092578520998 
    60     68      1      0.138719322718  301905.092578520998 
    59     69      1      0.138719322718  301905.092578520998 
    47     69      1      0.138719322718  301905.092578520998 
    45     71      1      0.109389949263  309655.084322414012 
    45     72      1      0.109389949263  309655.084322414012 
    56     76      1      0.108535849592  332422.631675317942 
    57     77      1      0.108535849592  332422.631675317942 
    65     83      1      0.109389949263  309655.084322414012 
    65     84      1      0.109389949263  309655.084322414012 
    67     86      1      0.108535849592  332422.631675317942 
    68     87      1      0.108535849592  332422.631675317942 
    69     88      1      0.108535849592  332422.631675317942 
    89    116      1      0.109389949263  309655.084322414012 
    89     90      1      0.142589505373  306888.771877388994 
    90     91      1      0.136294580649  356218.264001121745 
    91    113      1      0.138719322718  301905.092578520998 
    91     92      1      0.138719322718  301905.092578520998 
    92     93      1      0.138719322718  301905.092578520998 
    93    102      1      0.138719322718  301905.092578520998 
    93     94      1      0.145462892503  233580.248617646750 
    94    101      1      0.138719322718  301905.092578520998 
    94     95      1      0.138719322718  301905.092578520998 
    95     96      1      0.138719322718  301905.092578520998 
    96     97      1      0.138719322718  301905.092578520998 
    97    100      1      0.138719322718  301905.092578520998 
    97     98      1      0.145462892503  233580.248617646750 
    66     98      1      0.138189777668  412347.817359175009 
    98     99      1      0.122519838622  487602.327766196802 
   100    101      1      0.138719322718  301905.092578520998 
   100    120      1      0.108535849592  332422.631675317942 
   101    121      1      0.108535849592  332422.631675317942 
   102    103      1      0.138719322718  301905.092578520998 
   102    122      1      0.108535849592  332422.631675317942 
   103    104      1      0.145462892503  233580.248617646750 
   104    105      1      0.138719322718  301905.092578520998 
   104    112      1      0.138719322718  301905.092578520998 
   105    106      1      0.138719322718  301905.092578520998 
   106    124      1      0.108535849592  332422.631675317942 
   106    107      1      0.138719322718  301905.092578520998 
   107    108      1      0.149864681646  242452.869388089370 
   108    125      1      0.109389949263  309655.084322414012 
   108    109      1      0.152190126495  221435.259290285845 
   109    127      1      0.109389949263  309655.084322414012 
   109    126      1      0.109389949263  309655.084322414012 
   109    128      1      0.109389949263  309655.084322414012 
   108    110      1      0.145009858627  294600.927775905351 
   107    111      1      0.138719322718  301905.092578520998 
   111    130      1      0.108535849592  332422.631675317942 
   111    112      1      0.138719322718  301905.092578520998 
   113    132      1      0.108535849592  332422.631675317942 
   103    113      1      0.138719322718  301905.092578520998 
    89    114      1      0.109389949263  309655.084322414012 
    89    115      1      0.109389949263  309655.084322414012 
    92    117      1      0.108535849592  332422.631675317942 
    95    118      1      0.108535849592  332422.631675317942 
    96    119      1      0.108535849592  332422.631675317942 
   105    123      1      0.108535849592  332422.631675317942 
   110    129      1      0.101948186503  422704.914414302446 
   112    131      1      0.108535849592  332422.631675317942 
   133    158      1      0.109389949263  309655.084322414012 
   133    160      1      0.109389949263  309655.084322414012 
   134    135      1      0.136294580649  356218.264001121745 
   133    134      1      0.142589505373  306888.771877388994 
   135    136      1      0.138719322718  301905.092578520998 
   136    161      1      0.108535849592  332422.631675317942 
   136    137      1      0.138719322718  301905.092578520998 
   137    138      1      0.145462892503  233580.248617646750 
   138    145      1      0.138719322718  301905.092578520998 
   138    139      1      0.138719322718  301905.092578520998 
   139    140      1      0.138719322718  301905.092578520998 
   140    141      1      0.138719322718  301905.092578520998 
   140    163      1      0.108535849592  332422.631675317942 
   141    142      1      0.145462892503  233580.248617646750 
   110    142      1      0.138189777668  412347.817359175009 
   142    143      1      0.122519838622  487602.327766196802 
   144    164      1      0.108535849592  332422.631675317942 
   141    144      1      0.138719322718  301905.092578520998 
   144    145      1      0.138719322718  301905.092578520998 
   137    146      1      0.138719322718  301905.092578520998 
   147    157      1      0.138719322718  301905.092578520998 
   146    147      1      0.138719322718  301905.092578520998 
   147    148      1      0.145462892503  233580.248617646750 
   148    149      1      0.138719322718  301905.092578520998 
   149    167      1      0.108535849592  332422.631675317942 
   149    150      1      0.138719322718  301905.092578520998 
   151    155      1      0.138719322718  301905.092578520998 
   150    151      1      0.138719322718  301905.092578520998 
   152    169      1      0.109389949263  309655.084322414012 
   151    152      1      0.149864681646  242452.869388089370 
   153    171      1      0.109389949263  309655.084322414012 
   152    153      1      0.152190126495  221435.259290285845 
   153    170      1      0.109389949263  309655.084322414012 
   152    154      1      0.145009858627  294600.927775905351 
   155    156      1      0.138719322718  301905.092578520998 
   156    175      1      0.108535849592  332422.631675317942 
   148    156      1      0.138719322718  301905.092578520998 
   135    157      1      0.138719322718  301905.092578520998 
   133    159      1      0.109389949263  309655.084322414012 
   139    162      1      0.108535849592  332422.631675317942 
   145    165      1      0.108535849592  332422.631675317942 
   146    166      1      0.108535849592  332422.631675317942 
   150    168      1      0.108535849592  332422.631675317942 
   153    172      1      0.109389949263  309655.084322414012 
   154    173      1      0.101948186503  422704.914414302446 
   155    174      1      0.108535849592  332422.631675317942 
   157    176      1      0.108535849592  332422.631675317942 
   177    178      1      0.142589505373  306888.771877388994 
   177    180      1      0.109389949263  309655.084322414012 
   177    179      1      0.109389949263  309655.084322414012 
   177    181      1      0.109389949263  309655.084322414012 
   182    183      1      0.152190126495  221435.259290285845 
   182    191      1      0.109389949263  309655.084322414012 
   183    186      1      0.142589505373  306888.771877388994 
   183    185      1      0.152190126495  221435.259290285845 
   184    193      1      0.109389949263  309655.084322414012 
   183    184      1      0.152190126495  221435.259290285845 
   185    196      1      0.109389949263  309655.084322414012 
   185    195      1      0.109389949263  309655.084322414012 
   186    187      1      0.134574123280  252005.673256632901 
   154    187      1      0.138189777668  412347.817359175009 
   187    188      1      0.122519838622  487602.327766196802 
   182    189      1      0.109389949263  309655.084322414012 
   182    190      1      0.109389949263  309655.084322414012 
   184    192      1      0.109389949263  309655.084322414012 
   184    194      1      0.109389949263  309655.084322414012 
   185    197      1      0.109389949263  309655.084322414012 

[ angles ]
;ai    aj   ak   funct theta  k
    19     20     21      1     116.547586263400     445.222086509286 
    90     89    115      1     116.547586263400     445.222086509286 
    53     54     55      1     126.806242045100     484.492885493347 
   184    183    185      1     116.547586263400     445.222086509286 
   193    184    194      1     115.603099953300     408.161690475075 
    96     97     98      1     126.806242045100     484.492885493347 
   108    109    127      1     116.547586263400     445.222086509286 
    94     93    102      1     126.806242045100     484.492885493347 
   135    136    161      1     129.183592992600     285.070774532144 
    20     22     54      1     117.346557051400     463.769802376852 
    27      1     28      1     115.603099953300     408.161690475075 
   106    107    111      1     126.806242045100     484.492885493347 
   151    152    153      1     116.547586263400     445.222086509286 
   195    185    196      1     115.603099953300     408.161690475075 
    91    113    103      1     126.806242045100     484.492885493347 
    61     62     80      1     129.183592992600     285.070774532144 
   148    156    155      1     126.806242045100     484.492885493347 
    26      1     27      1     115.603099953300     408.161690475075 
   190    182    191      1     115.603099953300     408.161690475075 
    82     65     83      1     115.603099953300     408.161690475075 
   134    135    136      1     126.806242045100     484.492885493347 
    64     66     85      1     115.507132767400     530.901282784327 
   134    133    158      1     116.547586263400     445.222086509286 
    53     56     76      1     129.183592992600     285.070774532144 
   183    182    189      1     116.547586263400     445.222086509286 
     9     10    178      1     126.806242045100     484.492885493347 
   138    145    165      1     129.183592992600     285.070774532144 
    45     46     47      1     110.353880618100     544.678275491328 
    22     54     53      1     126.806242045100     484.492885493347 
    62     63     67      1     126.806242045100     484.492885493347 
   184    183    186      1     116.547586263400     445.222086509286 
    65     64     81      1     116.547586263400     445.222086509286 
    62     61     79      1     129.183592992600     285.070774532144 
    16     24     23      1     126.806242045100     484.492885493347 
    63     64     65      1     116.547586263400     445.222086509286 
   183    182    191      1     116.547586263400     445.222086509286 
   127    109    128      1     115.603099953300     408.161690475075 
   183    184    194      1     116.547586263400     445.222086509286 
    63     67     68      1     126.806242045100     484.492885493347 
    53     56     57      1     126.806242045100     484.492885493347 
    98     97    100      1     126.806242045100     484.492885493347 
    46     47     69      1     126.806242045100     484.492885493347 
    64     66     98      1     117.346557051400     463.769802376852 
    50     57     77      1     129.183592992600     285.070774532144 
    58     59     60      1     126.806242045100     484.492885493347 
    21     20     22      1     116.547586263400     445.222086509286 
    93    102    122      1     129.183592992600     285.070774532144 
   115     89    116      1     115.603099953300     408.161690475075 
    20     21     40      1     116.547586263400     445.222086509286 
    50     51     74      1     129.183592992600     285.070774532144 
     6     13     33      1     129.183592992600     285.070774532144 
     6     13     12      1     126.806242045100     484.492885493347 
    17     18     36      1     129.183592992600     285.070774532144 
     5     14     34      1     129.183592992600     285.070774532144 
    56     57     77      1     129.183592992600     285.070774532144 
    90     91     92      1     126.806242045100     484.492885493347 
     6      7     30      1     129.183592992600     285.070774532144 
   189    182    190      1     115.603099953300     408.161690475075 
   139    140    163      1     129.183592992600     285.070774532144 
    50     51     52      1     126.806242045100     484.492885493347 
   108    109    126      1     116.547586263400     445.222086509286 
   102    103    113      1     126.806242045100     484.492885493347 
     5      6     13      1     126.806242045100     484.492885493347 
    15     16     24      1     126.806242045100     484.492885493347 
    24     23     42      1     129.183592992600     285.070774532144 
   103    113    132      1     129.183592992600     285.070774532144 
     7      6     13      1     126.806242045100     484.492885493347 
    48     47     69      1     126.806242045100     484.492885493347 
   152    153    172      1     116.547586263400     445.222086509286 
    15     16     17      1     126.806242045100     484.492885493347 
   138    139    162      1     129.183592992600     285.070774532144 
   149    150    168      1     129.183592992600     285.070774532144 
   150    149    167      1     129.183592992600     285.070774532144 
   103    104    112      1     126.806242045100     484.492885493347 
   179    177    180      1     115.603099953300     408.161690475075 
   110    142    143      1     126.806242045100     484.492885493347 
   145    144    164      1     129.183592992600     285.070774532144 
    47     48     73      1     129.183592992600     285.070774532144 
    60     68     87      1     129.183592992600     285.070774532144 
   136    135    157      1     126.806242045100     484.492885493347 
   183    185    195      1     116.547586263400     445.222086509286 
    60     68     67      1     126.806242045100     484.492885493347 
   104    103    113      1     126.806242045100     484.492885493347 
     9      8     31      1     129.183592992600     285.070774532144 
   107    111    130      1     129.183592992600     285.070774532144 
   153    152    154      1     116.547586263400     445.222086509286 
    94    101    100      1     126.806242045100     484.492885493347 
    46     45     70      1     116.547586263400     445.222086509286 
   140    139    162      1     129.183592992600     285.070774532144 
    89     90     91      1     110.353880618100     544.678275491328 
   137    146    166      1     129.183592992600     285.070774532144 
   141    144    164      1     129.183592992600     285.070774532144 
   195    185    197      1     115.603099953300     408.161690475075 
    97     98     99      1     126.806242045100     484.492885493347 
    68     67     86      1     129.183592992600     285.070774532144 
   178    177    180      1     116.547586263400     445.222086509286 
    20     21     39      1     116.547586263400     445.222086509286 
    18     19     23      1     126.806242045100     484.492885493347 
   103    104    105      1     126.806242045100     484.492885493347 
   182    183    185      1     116.547586263400     445.222086509286 
    49     50     57      1     126.806242045100     484.492885493347 
    94     95    118      1     129.183592992600     285.070774532144 
   107    106    124      1     129.183592992600     285.070774532144 
   136    137    146      1     126.806242045100     484.492885493347 
   152    151    155      1     126.806242045100     484.492885493347 
    16     17     35      1     129.183592992600     285.070774532144 
   140    141    144      1     126.806242045100     484.492885493347 
     1      2      3      1     110.353880618100     544.678275491328 
   107    108    109      1     116.547586263400     445.222086509286 
    19     20     37      1     116.547586263400     445.222086509286 
   107    111    112      1     126.806242045100     484.492885493347 
   135    136    137      1     126.806242045100     484.492885493347 
    90     91    113      1     126.806242045100     484.492885493347 
    49     58     59      1     126.806242045100     484.492885493347 
    66     64     81      1     116.547586263400     445.222086509286 
    59     60     68      1     126.806242045100     484.492885493347 
     2      3      4      1     126.806242045100     484.492885493347 
    64     63     67      1     126.806242045100     484.492885493347 
   180    177    181      1     115.603099953300     408.161690475075 
    64     65     83      1     116.547586263400     445.222086509286 
   137    136    161      1     129.183592992600     285.070774532144 
   182    183    186      1     116.547586263400     445.222086509286 
   135    157    147      1     126.806242045100     484.492885493347 
   111    112    131      1     129.183592992600     285.070774532144 
   129    110    142      1     115.507132767400     530.901282784327 
   126    109    127      1     115.603099953300     408.161690475075 
   154    187    188      1     126.806242045100     484.492885493347 
    93     92    117      1     129.183592992600     285.070774532144 
    63     64     81      1     116.547586263400     445.222086509286 
    93     94     95      1     126.806242045100     484.492885493347 
    97    100    101      1     126.806242045100     484.492885493347 
     3      4      5      1     126.806242045100     484.492885493347 
   149    148    156      1     126.806242045100     484.492885493347 
   183    186    187      1     110.353880618100     544.678275491328 
    92     93    102      1     126.806242045100     484.492885493347 
    52     51     74      1     129.183592992600     285.070774532144 
    66     98     99      1     126.806242045100     484.492885493347 
    94    101    121      1     129.183592992600     285.070774532144 
    10      9     12      1     126.806242045100     484.492885493347 
    96     97    100      1     126.806242045100     484.492885493347 
    41     22     54      1     115.507132767400     530.901282784327 
    46     47     48      1     126.806242045100     484.492885493347 
   151    155    174      1     129.183592992600     285.070774532144 
    47     48     49      1     126.806242045100     484.492885493347 
    50     57     56      1     126.806242045100     484.492885493347 
   142    141    144      1     126.806242045100     484.492885493347 
   148    149    150      1     126.806242045100     484.492885493347 
    70     45     72      1     115.603099953300     408.161690475075 
     2      3     25      1     126.806242045100     484.492885493347 
   104    112    111      1     126.806242045100     484.492885493347 
   134    133    160      1     116.547586263400     445.222086509286 
     2      1     26      1     116.547586263400     445.222086509286 
    38     21     40      1     115.603099953300     408.161690475075 
    20     22     41      1     115.507132767400     530.901282784327 
    95     96    119      1     129.183592992600     285.070774532144 
   158    133    160      1     115.603099953300     408.161690475075 
    49     50     51      1     126.806242045100     484.492885493347 
   105    104    112      1     126.806242045100     484.492885493347 
   149    150    151      1     126.806242045100     484.492885493347 
    93     94    101      1     126.806242045100     484.492885493347 
    19     18     36      1     129.183592992600     285.070774532144 
     8      7     30      1     129.183592992600     285.070774532144 
   109    108    110      1     116.547586263400     445.222086509286 
    90     89    114      1     116.547586263400     445.222086509286 
   141    140    163      1     129.183592992600     285.070774532144 
    19     20     22      1     116.547586263400     445.222086509286 
   192    184    193      1     115.603099953300     408.161690475075 
   178    177    179      1     116.547586263400     445.222086509286 
   136    137    138      1     126.806242045100     484.492885493347 
   139    140    141      1     126.806242045100     484.492885493347 
    64     65     82      1     116.547586263400     445.222086509286 
    60     61     79      1     129.183592992600     285.070774532144 
    16     17     18      1     126.806242045100     484.492885493347 
   171    153    172      1     115.603099953300     408.161690475075 
   154    152    169      1     116.547586263400     445.222086509286 
   109    108    125      1     116.547586263400     445.222086509286 
   173    154    187      1     115.507132767400     530.901282784327 
   183    184    192      1     116.547586263400     445.222086509286 
    22     54     55      1     126.806242045100     484.492885493347 
    50     49     58      1     126.806242045100     484.492885493347 
     9     12     32      1     129.183592992600     285.070774532144 
    47     69     59      1     126.806242045100     484.492885493347 
    19     23     42      1     129.183592992600     285.070774532144 
    59     60     61      1     126.806242045100     484.492885493347 
   133    134    135      1     110.353880618100     544.678275491328 
   148    147    157      1     126.806242045100     484.492885493347 
   107    108    125      1     116.547586263400     445.222086509286 
   108    109    128      1     116.547586263400     445.222086509286 
   102    103    104      1     126.806242045100     484.492885493347 
   105    106    107      1     126.806242045100     484.492885493347 
    38     21     39      1     115.603099953300     408.161690475075 
    53     52     75      1     129.183592992600     285.070774532144 
    48     49     58      1     126.806242045100     484.492885493347 
    39     21     40      1     115.603099953300     408.161690475075 
    13     12     32      1     129.183592992600     285.070774532144 
    15     25     44      1     129.183592992600     285.070774532144 
    61     60     68      1     126.806242045100     484.492885493347 
   146    147    148      1     126.806242045100     484.492885493347 
   151    152    154      1     116.547586263400     445.222086509286 
   138    137    146      1     126.806242045100     484.492885493347 
   150    151    155      1     126.806242045100     484.492885493347 
   183    182    190      1     116.547586263400     445.222086509286 
    82     65     84      1     115.603099953300     408.161690475075 
    91     92     93      1     126.806242045100     484.492885493347 
    94     95     96      1     126.806242045100     484.492885493347 
   110    108    125      1     116.547586263400     445.222086509286 
   153    152    169      1     116.547586263400     445.222086509286 
   134    133    159      1     116.547586263400     445.222086509286 
   186    187    188      1     127.469141619100    1685.413543333009 
    46     45     72      1     116.547586263400     445.222086509286 
    16     15     25      1     126.806242045100     484.492885493347 
    20     19     23      1     126.806242045100     484.492885493347 
    92     91    113      1     126.806242045100     484.492885493347 
    51     50     57      1     126.806242045100     484.492885493347 
     6      7      8      1     126.806242045100     484.492885493347 
   151    152    169      1     116.547586263400     445.222086509286 
    49     58     78      1     129.183592992600     285.070774532144 
    63     64     66      1     116.547586263400     445.222086509286 
    22     20     37      1     116.547586263400     445.222086509286 
    91     92    117      1     129.183592992600     285.070774532144 
    58     59     69      1     126.806242045100     484.492885493347 
   104    105    106      1     126.806242045100     484.492885493347 
   147    148    156      1     126.806242045100     484.492885493347 
    71     45     72      1     115.603099953300     408.161690475075 
    96     95    118      1     129.183592992600     285.070774532144 
   156    155    174      1     129.183592992600     285.070774532144 
     7      8      9      1     126.806242045100     484.492885493347 
     5      4     29      1     129.183592992600     285.070774532144 
    65     64     66      1     116.547586263400     445.222086509286 
   155    156    175      1     129.183592992600     285.070774532144 
    93    102    103      1     126.806242045100     484.492885493347 
    91    113    132      1     129.183592992600     285.070774532144 
    47     69     88      1     129.183592992600     285.070774532144 
     4      3     25      1     126.806242045100     484.492885493347 
    18     17     35      1     129.183592992600     285.070774532144 
   152    153    170      1     116.547586263400     445.222086509286 
   189    182    191      1     115.603099953300     408.161690475075 
   151    150    168      1     129.183592992600     285.070774532144 
    10    178    177      1     110.353880618100     544.678275491328 
    66     98     97      1     126.806242045100     484.492885493347 
   147    148    149      1     126.806242045100     484.492885493347 
   150    151    152      1     126.806242045100     484.492885493347 
   108    110    129      1     115.507132767400     530.901282784327 
   185    183    186      1     116.547586263400     445.222086509286 
    59     58     78      1     129.183592992600     285.070774532144 
    54     53     56      1     126.806242045100     484.492885493347 
   182    183    184      1     116.547586263400     445.222086509286 
    26      1     28      1     115.603099953300     408.161690475075 
   114     89    116      1     115.603099953300     408.161690475075 
    17     18     19      1     126.806242045100     484.492885493347 
     3      4     29      1     129.183592992600     285.070774532144 
   192    184    194      1     115.603099953300     408.161690475075 
    60     61     62      1     126.806242045100     484.492885493347 
   178    177    181      1     116.547586263400     445.222086509286 
   137    138    139      1     126.806242045100     484.492885493347 
   154    187    186      1     126.806242045100     484.492885493347 
    14     15     25      1     126.806242045100     484.492885493347 
   104    105    123      1     129.183592992600     285.070774532144 
   104    112    131      1     129.183592992600     285.070774532144 
    63     67     86      1     129.183592992600     285.070774532144 
    16     24     43      1     129.183592992600     285.070774532144 
    48     49     50      1     126.806242045100     484.492885493347 
   138    145    144      1     126.806242045100     484.492885493347 
   108    110    142      1     117.346557051400     463.769802376852 
   147    157    176      1     129.183592992600     285.070774532144 
     6      5     14      1     126.806242045100     484.492885493347 
    59     69     88      1     129.183592992600     285.070774532144 
   170    153    171      1     115.603099953300     408.161690475075 
    46     45     71      1     116.547586263400     445.222086509286 
     5     14     15      1     126.806242045100     484.492885493347 
    52     53     54      1     126.806242045100     484.492885493347 
    14     15     16      1     126.806242045100     484.492885493347 
    20     21     38      1     116.547586263400     445.222086509286 
    51     52     53      1     126.806242045100     484.492885493347 
   108    107    111      1     126.806242045100     484.492885493347 
     3     25     44      1     129.183592992600     285.070774532144 
    51     52     75      1     129.183592992600     285.070774532144 
    95     96     97      1     126.806242045100     484.492885493347 
   183    185    196      1     116.547586263400     445.222086509286 
   101    100    120      1     129.183592992600     285.070774532144 
    23     24     43      1     129.183592992600     285.070774532144 
   152    154    173      1     115.507132767400     530.901282784327 
   139    138    145      1     126.806242045100     484.492885493347 
    11     10    178      1     127.469141619100    1685.413543333009 
     4      5     14      1     126.806242045100     484.492885493347 
   170    153    172      1     115.603099953300     408.161690475075 
     9     12     13      1     126.806242045100     484.492885493347 
   107    108    110      1     116.547586263400     445.222086509286 
   196    185    197      1     115.603099953300     408.161690475075 
     3     25     15      1     126.806242045100     484.492885493347 
    49     48     73      1     129.183592992600     285.070774532144 
    97    100    120      1     129.183592992600     285.070774532144 
   137    138    145      1     126.806242045100     484.492885493347 
     4      5      6      1     126.806242045100     484.492885493347 
     7      8     31      1     129.183592992600     285.070774532144 
   152    153    171      1     116.547586263400     445.222086509286 
   110    142    141      1     126.806242045100     484.492885493347 
   138    139    140      1     126.806242045100     484.492885493347 
   141    142    143      1     126.806242045100     484.492885493347 
   106    107    108      1     126.806242045100     484.492885493347 
    90     89    116      1     116.547586263400     445.222086509286 
    95     94    101      1     126.806242045100     484.492885493347 
    63     62     80      1     129.183592992600     285.070774532144 
   159    133    160      1     115.603099953300     408.161690475075 
     9     10     11      1     126.806242045100     484.492885493347 
    60     59     69      1     126.806242045100     484.492885493347 
   144    145    165      1     129.183592992600     285.070774532144 
    64     65     84      1     116.547586263400     445.222086509286 
   114     89    115      1     115.603099953300     408.161690475075 
    15     14     34      1     129.183592992600     285.070774532144 
   103    102    122      1     129.183592992600     285.070774532144 
    62     63     64      1     126.806242045100     484.492885493347 
   135    157    176      1     129.183592992600     285.070774532144 
   183    184    193      1     116.547586263400     445.222086509286 
    97     96    119      1     129.183592992600     285.070774532144 
   126    109    128      1     115.603099953300     408.161690475075 
     8      9     10      1     126.806242045100     484.492885493347 
    70     45     71      1     115.603099953300     408.161690475075 
   146    147    157      1     126.806242045100     484.492885493347 
   106    105    123      1     129.183592992600     285.070774532144 
    92     93     94      1     126.806242045100     484.492885493347 
   134    135    157      1     126.806242045100     484.492885493347 
    67     68     87      1     129.183592992600     285.070774532144 
     8      9     12      1     126.806242045100     484.492885493347 
     2      1     28      1     116.547586263400     445.222086509286 
   140    141    142      1     126.806242045100     484.492885493347 
    17     16     24      1     126.806242045100     484.492885493347 
   158    133    159      1     115.603099953300     408.161690475075 
   151    155    156      1     126.806242045100     484.492885493347 
   148    156    175      1     129.183592992600     285.070774532144 
   112    111    130      1     129.183592992600     285.070774532144 
   147    146    166      1     129.183592992600     285.070774532144 
    52     53     56      1     126.806242045100     484.492885493347 
     5      6      7      1     126.806242045100     484.492885493347 
    19     23     24      1     126.806242045100     484.492885493347 
   152    154    187      1     117.346557051400     463.769802376852 
    57     56     76      1     129.183592992600     285.070774532144 
   148    149    167      1     129.183592992600     285.070774532144 
    21     20     37      1     116.547586263400     445.222086509286 
   141    144    145      1     126.806242045100     484.492885493347 
    61     62     63      1     126.806242045100     484.492885493347 
   137    146    147      1     126.806242045100     484.492885493347 
     2      1     27      1     116.547586263400     445.222086509286 
   105    106    124      1     129.183592992600     285.070774532144 
    18     19     20      1     126.806242045100     484.492885493347 
    85     66     98      1     115.507132767400     530.901282784327 
   183    185    197      1     116.547586263400     445.222086509286 
   100    101    121      1     129.183592992600     285.070774532144 
    12     13     33      1     129.183592992600     285.070774532144 
   179    177    181      1     115.603099953300     408.161690475075 
    83     65     84      1     115.603099953300     408.161690475075 

[ dihedrals ]
;ai    aj   ak   al   funct phi  k
   135   134   133   158     1      0.000000000000      0.198220506977                 3
   107   108   109   127     1      0.000000000000      0.483407861024                 3
   141   144   145   165     1    180.000000000000     15.321515534534                 2
   140   141   144   145     1    180.000000000000     15.321515534534                 2
   138   139   140   163     1    180.000000000000     15.321515534534                 2
     5     6     7    30     1    180.000000000000     15.321515534534                 2
    49    50    51    52     1    180.000000000000     15.321515534534                 2
   136   137   146   147     1    180.000000000000     15.321515534534                 2
    94    95    96    97     1    180.000000000000     15.321515534534                 2
   148   149   150   151     1    180.000000000000     15.321515534534                 2
   184   183   185   197     1      0.000000000000      0.435413753811                 3
    65    64    66    98     1    180.000000000000     -0.622862944840                 4
    65    64    66    98     1    180.000000000000     -0.514769632165                 3
    65    64    66    98     1      0.000000000000      1.229801223351                 2
    65    64    66    98     1      0.000000000000     -1.265294746367                 1
    22    20    21    40     1      0.000000000000      0.483407861024                 3
   125   108   109   126     1      0.000000000000      0.799950138473                 3
     6     5     4    29     1    180.000000000000     15.321515534534                 2
   134   135   136   161     1    180.000000000000     15.321515534534                 2
    49    48    47    69     1    180.000000000000     15.321515534534                 2
     7     8     9    12     1    180.000000000000     15.321515534534                 2
    64    66    98    99     1    180.000000000000     12.978553656010                 2
    64    66    98    99     1      0.000000000000     -1.779100933344                 1
   186   183   185   197     1      0.000000000000      0.466735938990                 3
   186   183   185   197     1      0.000000000000      1.436153909162                 1
     2     3    25    44     1    180.000000000000     15.321515534534                 2
    81    64    65    84     1      0.000000000000      0.799950138473                 3
   150   151   152   169     1      0.000000000000      0.111501038139                 3
     8     9    12    13     1    180.000000000000     15.321515534534                 2
    14     5     4    29     1    180.000000000000     15.321515534534                 2
    37    20    22    54     1      0.000000000000      0.762485897686                 2
    37    20    22    54     1      0.000000000000      0.124362804952                 3
   153   152   154   187     1    180.000000000000     -0.622862944840                 4
   153   152   154   187     1    180.000000000000     -0.514769632165                 3
   153   152   154   187     1      0.000000000000      1.229801223351                 2
   153   152   154   187     1      0.000000000000     -1.265294746367                 1
    67    63    64    81     1      0.000000000000      0.111501038139                 3
    13     6     7    30     1    180.000000000000     15.321515534534                 2
    16    24    23    19     1    180.000000000000     15.321515534534                 2
   153   152   151   155     1      0.000000000000      0.111501038139                 3
   186   183   182   189     1      0.000000000000      0.466735938990                 3
   186   183   182   189     1      0.000000000000      1.436153909162                 1
   138   145   144   141     1    180.000000000000     15.321515534534                 2
     6     5    14    15     1    180.000000000000     15.321515534534                 2
    18    19    23    24     1    180.000000000000     15.321515534534                 2
    51    50    57    56     1    180.000000000000     15.321515534534                 2
     8     9    12    32     1    180.000000000000     15.321515534534                 2
   137   138   139   140     1    180.000000000000     15.321515534534                 2
    63    64    66    85     1      0.000000000000      0.762485897686                 2
    63    64    66    85     1      0.000000000000      0.124362804952                 3
   173   154   187   188     1    180.000000000000      2.033839522640                 2
   173   154   187   188     1      0.000000000000      3.730867000451                 1
   103   104   112   111     1    180.000000000000     15.321515534534                 2
   169   152   154   187     1      0.000000000000      0.762485897686                 2
   169   152   154   187     1      0.000000000000      0.124362804952                 3
   151   155   156   175     1    180.000000000000     15.321515534534                 2
   185   183   182   190     1      0.000000000000      0.435413753811                 3
   185   183   184   192     1      0.000000000000      0.435413753811                 3
   149   148   156   155     1    180.000000000000     15.321515534534                 2
   143   142   141   144     1    180.000000000000      4.173190890070                 2
    10   178   177   180     1      0.000000000000      0.198220506977                 3
   137   136   135   157     1    180.000000000000     15.321515534534                 2
   154   152   153   170     1      0.000000000000      0.483407861024                 3
   110   108   107   111     1      0.000000000000      0.111501038139                 3
   174   155   156   175     1    180.000000000000     15.321515534534                 2
    54    53    56    76     1    180.000000000000     15.321515534534                 2
   184   183   182   189     1      0.000000000000      0.435413753811                 3
    48    49    50    57     1    180.000000000000      4.866977563957                 2
   156   148   149   167     1    180.000000000000     15.321515534534                 2
    22    54    53    52     1    180.000000000000      4.173190890070                 2
    90    91    92   117     1    180.000000000000     15.321515534534                 2
    58    49    48    73     1    180.000000000000     15.321515534534                 2
   104   103   102   122     1    180.000000000000     15.321515534534                 2
    37    20    22    41     1      0.000000000000      0.762485897686                 2
    37    20    22    41     1      0.000000000000      0.124362804952                 3
    20    19    23    24     1    180.000000000000     15.321515534534                 2
    61    62    63    64     1    180.000000000000     15.321515534534                 2
    60    61    62    63     1    180.000000000000     15.321515534534                 2
    17    16    24    43     1    180.000000000000     15.321515534534                 2
   107   106   105   123     1    180.000000000000     15.321515534534                 2
    22    20    21    39     1      0.000000000000      0.483407861024                 3
    66    98    97    96     1    180.000000000000      4.173190890070                 2
   139   138   145   144     1    180.000000000000     15.321515534534                 2
   104   112   111   130     1    180.000000000000     15.321515534534                 2
    90    91   113   132     1    180.000000000000     15.321515534534                 2
     5     6     7     8     1    180.000000000000     15.321515534534                 2
    60    68    67    63     1    180.000000000000     15.321515534534                 2
   167   149   150   168     1    180.000000000000     15.321515534534                 2
   150   151   152   153     1      0.000000000000      0.111501038139                 3
   107   108   109   126     1      0.000000000000      0.483407861024                 3
    95    94   101   121     1    180.000000000000     15.321515534534                 2
   141   140   139   162     1    180.000000000000     15.321515534534                 2
    48    49    58    59     1    180.000000000000     15.321515534534                 2
    94   101   100    97     1    180.000000000000     15.321515534534                 2
     4     5     6     7     1    180.000000000000      4.866977563957                 2
    92    93    94    95     1    180.000000000000      4.866977563957                 2
    69    47    48    73     1    180.000000000000     15.321515534534                 2
   186   183   184   194     1      0.000000000000      0.466735938990                 3
   186   183   184   194     1      0.000000000000      1.436153909162                 1
    47    48    49    58     1    180.000000000000     15.321515534534                 2
    96    97   100   120     1    180.000000000000     15.321515534534                 2
    61    60    59    69     1    180.000000000000      4.866977563957                 2
    91    92    93   102     1    180.000000000000     15.321515534534                 2
   157   135   136   161     1    180.000000000000     15.321515534534                 2
    92    91   113   103     1    180.000000000000     15.321515534534                 2
   105   104   112   131     1    180.000000000000     15.321515534534                 2
    46    47    48    73     1    180.000000000000     15.321515534534                 2
    59    60    61    62     1    180.000000000000     15.321515534534                 2
    92    93   102   122     1    180.000000000000     15.321515534534                 2
    62    63    64    65     1      0.000000000000      0.111501038139                 3
    62    63    67    68     1    180.000000000000     15.321515534534                 2
    66    98    97   100     1    180.000000000000      4.173190890070                 2
   105   106   107   108     1    180.000000000000     15.321515534534                 2
     4     3    25    15     1    180.000000000000     15.321515534534                 2
    45    46    47    48     1    180.000000000000      6.410861677363                 2
    51    50    49    58     1    180.000000000000      4.866977563957                 2
   155   151   150   168     1    180.000000000000     15.321515534534                 2
   110   142   141   144     1    180.000000000000      4.173190890070                 2
    93   102   103   104     1    180.000000000000     15.321515534534                 2
   157   147   146   166     1    180.000000000000     15.321515534534                 2
    53    56    57    77     1    180.000000000000     15.321515534534                 2
   135   136   137   146     1    180.000000000000     15.321515534534                 2
    10     9    12    13     1    180.000000000000     15.321515534534                 2
    50    49    48    73     1    180.000000000000     15.321515534534                 2
   129   110   142   143     1    180.000000000000      9.825603686166                 2
   129   110   142   143     1      0.000000000000      5.255757435828                 1
    90    91   113   103     1    180.000000000000     15.321515534534                 2
    50    51    52    53     1    180.000000000000     15.321515534534                 2
   120   100   101   121     1    180.000000000000     15.321515534534                 2
   123   105   106   124     1    180.000000000000     15.321515534534                 2
   113    91    92   117     1    180.000000000000     15.321515534534                 2
   109   108   110   142     1    180.000000000000     -0.622862944840                 4
   109   108   110   142     1    180.000000000000     -0.514769632165                 3
   109   108   110   142     1      0.000000000000      1.229801223351                 2
   109   108   110   142     1      0.000000000000     -1.265294746367                 1
    50    51    52    75     1    180.000000000000     15.321515534534                 2
   104   105   106   124     1    180.000000000000     15.321515534534                 2
   108   107   106   124     1    180.000000000000     15.321515534534                 2
    60    61    62    80     1    180.000000000000     15.321515534534                 2
    16    15    25    44     1    180.000000000000     15.321515534534                 2
    45    46    47    69     1    180.000000000000      6.410861677363                 2
    98    97   100   101     1    180.000000000000     15.321515534534                 2
    65    64    63    67     1      0.000000000000      0.111501038139                 3
    93    94   101   121     1    180.000000000000     15.321515534534                 2
   162   139   140   163     1    180.000000000000     15.321515534534                 2
    19    20    22    54     1    180.000000000000     -2.883499339083                 2
    19    20    22    54     1      0.000000000000      1.141330947302                 1
   137   138   145   165     1    180.000000000000     15.321515534534                 2
    63    64    65    84     1      0.000000000000      0.483407861024                 3
    63    67    68    87     1    180.000000000000     15.321515534534                 2
    24    16    15    25     1    180.000000000000      4.866977563957                 2
    93    94    95   118     1    180.000000000000     15.321515534534                 2
   135   157   147   146     1    180.000000000000     15.321515534534                 2
   182   183   186   187     1      0.000000000000      0.802605161760                 3
   182   183   186   187     1    180.000000000000      3.850192060290                 1
     3     2     1    26     1      0.000000000000      0.198220506977                 3
    91    90    89   116     1      0.000000000000      0.198220506977                 3
    16    24    23    42     1    180.000000000000     15.321515534534                 2
   154   152   153   171     1      0.000000000000      0.483407861024                 3
    11    10     9    12     1    180.000000000000      4.173190890070                 2
   139   140   141   142     1    180.000000000000     15.321515534534                 2
   134   135   157   147     1    180.000000000000     15.321515534534                 2
    91   113   103   104     1    180.000000000000     15.321515534534                 2
    49    50    57    77     1    180.000000000000     15.321515534534                 2
   152   154   187   188     1    180.000000000000      7.569054279773                 2
   152   154   187   188     1      0.000000000000     -0.201513062842                 1
   186   183   185   195     1      0.000000000000      0.466735938990                 3
   186   183   185   195     1      0.000000000000      1.436153909162                 1
    14    15    16    24     1    180.000000000000      4.866977563957                 2
    59    60    61    79     1    180.000000000000     15.321515534534                 2
    20    22    54    53     1    180.000000000000      7.569054279773                 2
    20    22    54    53     1      0.000000000000     -0.201513062842                 1
    60    59    58    78     1    180.000000000000     15.321515534534                 2
    95    96    97   100     1    180.000000000000     15.321515534534                 2
    81    64    66    98     1      0.000000000000      0.762485897686                 2
    81    64    66    98     1      0.000000000000      0.124362804952                 3
   136   137   146   166     1    180.000000000000     15.321515534534                 2
    49    50    51    74     1    180.000000000000     15.321515534534                 2
   134   135   136   137     1    180.000000000000     15.321515534534                 2
    48    49    50    51     1    180.000000000000      4.866977563957                 2
    24    16    17    35     1    180.000000000000     15.321515534534                 2
    41    22    54    53     1    180.000000000000      7.569054279773                 2
    41    22    54    53     1      0.000000000000     -0.201513062842                 1
    85    66    98    99     1    180.000000000000      9.825603686166                 2
    85    66    98    99     1      0.000000000000      5.255757435828                 1
   148   156   155   151     1    180.000000000000     15.321515534534                 2
   106   107   108   110     1      0.000000000000      0.111501038139                 3
    51    52    53    54     1    180.000000000000     15.321515534534                 2
    25    15    14    34     1    180.000000000000     15.321515534534                 2
   100    97    96   119     1    180.000000000000     15.321515534534                 2
    95    94   101   100     1    180.000000000000     15.321515534534                 2
    97   100   101   121     1    180.000000000000     15.321515534534                 2
    10   178   177   179     1      0.000000000000      0.198220506977                 3
   146   147   157   176     1    180.000000000000     15.321515534534                 2
    19    20    21    40     1      0.000000000000      0.483407861024                 3
   169   152   153   172     1      0.000000000000      0.799950138473                 3
    42    23    24    43     1    180.000000000000     15.321515534534                 2
    60    59    69    88     1    180.000000000000     15.321515534534                 2
    32    12    13    33     1    180.000000000000     15.321515534534                 2
    61    62    63    67     1    180.000000000000     15.321515534534                 2
    79    61    62    80     1    180.000000000000     15.321515534534                 2
    47    48    49    50     1    180.000000000000     15.321515534534                 2
    66    64    65    84     1      0.000000000000      0.483407861024                 3
   148   156   155   174     1    180.000000000000     15.321515534534                 2
    21    20    22    54     1    180.000000000000     -0.622862944840                 4
    21    20    22    54     1    180.000000000000     -0.514769632165                 3
    21    20    22    54     1      0.000000000000      1.229801223351                 2
    21    20    22    54     1      0.000000000000     -1.265294746367                 1
   151   152   153   170     1      0.000000000000      0.483407861024                 3
    47    69    59    60     1    180.000000000000     15.321515534534                 2
   105   104   103   113     1    180.000000000000      4.866977563957                 2
   182   183   184   192     1      0.000000000000      0.435413753811                 3
   137   146   147   148     1    180.000000000000     15.321515534534                 2
    64    66    98    97     1    180.000000000000      7.569054279773                 2
    64    66    98    97     1      0.000000000000     -0.201513062842                 1
    96    97    98    99     1    180.000000000000      4.173190890070                 2
    60    68    67    86     1    180.000000000000     15.321515534534                 2
    94   101   100   120     1    180.000000000000     15.321515534534                 2
   106   107   108   125     1      0.000000000000      0.111501038139                 3
    94    93   102   122     1    180.000000000000     15.321515534534                 2
   103   104   105   106     1    180.000000000000     15.321515534534                 2
     6     7     8     9     1    180.000000000000     15.321515534534                 2
     9    12    13    33     1    180.000000000000     15.321515534534                 2
    46    47    48    49     1    180.000000000000     15.321515534534                 2
   135   134   133   160     1      0.000000000000      0.198220506977                 3
   142   141   144   164     1    180.000000000000     15.321515534534                 2
   101    94    95   118     1    180.000000000000     15.321515534534                 2
   133   134   135   157     1    180.000000000000      6.410861677363                 2
    47    69    59    58     1    180.000000000000     15.321515534534                 2
   103   104   112   131     1    180.000000000000     15.321515534534                 2
   142   141   144   145     1    180.000000000000     15.321515534534                 2
    91    92    93    94     1    180.000000000000     15.321515534534                 2
    89    90    91    92     1    180.000000000000      6.410861677363                 2
   104   103   113   132     1    180.000000000000     15.321515534534                 2
   125   108   109   128     1      0.000000000000      0.799950138473                 3
   182   183   184   193     1      0.000000000000      0.435413753811                 3
    96    97   100   101     1    180.000000000000     15.321515534534                 2
     2     3    25    15     1    180.000000000000     15.321515534534                 2
     3     4     5    14     1    180.000000000000     15.321515534534                 2
   147   148   149   167     1    180.000000000000     15.321515534534                 2
   105   106   107   111     1    180.000000000000     15.321515534534                 2
    63    64    65    83     1      0.000000000000      0.483407861024                 3
     4     5     6    13     1    180.000000000000      4.866977563957                 2
    49    58    59    69     1    180.000000000000     15.321515534534                 2
    92    93   102   103     1    180.000000000000     15.321515534534                 2
   151   152   154   173     1      0.000000000000      0.762485897686                 2
   151   152   154   173     1      0.000000000000      0.124362804952                 3
    93    94   101   100     1    180.000000000000     15.321515534534                 2
    55    54    53    56     1    180.000000000000      4.173190890070                 2
   110   108   109   127     1      0.000000000000      0.483407861024                 3
   150   151   155   156     1    180.000000000000     15.321515534534                 2
     8     9    10    11     1    180.000000000000      4.173190890070                 2
     3     4     5     6     1    180.000000000000     15.321515534534                 2
   137   138   139   162     1    180.000000000000     15.321515534534                 2
   148   147   157   176     1    180.000000000000     15.321515534534                 2
    16    17    18    19     1    180.000000000000     15.321515534534                 2
   101    94    93   102     1    180.000000000000      4.866977563957                 2
    63    64    66    98     1    180.000000000000     -2.883499339083                 2
    63    64    66    98     1      0.000000000000      1.141330947302                 1
    62    63    64    81     1      0.000000000000      0.111501038139                 3
   130   111   112   131     1    180.000000000000     15.321515534534                 2
    48    47    69    59     1    180.000000000000     15.321515534534                 2
   156   148   147   157     1    180.000000000000      4.866977563957                 2
   173   154   187   186     1    180.000000000000      7.569054279773                 2
   173   154   187   186     1      0.000000000000     -0.201513062842                 1
   136   135   157   176     1    180.000000000000     15.321515534534                 2
   185   183   184   193     1      0.000000000000      0.435413753811                 3
    19    20    21    39     1      0.000000000000      0.483407861024                 3
    50    57    56    53     1    180.000000000000     15.321515534534                 2
   103   104   105   123     1    180.000000000000     15.321515534534                 2
   155   151   152   169     1      0.000000000000      0.111501038139                 3
   184   183   186   187     1      0.000000000000      0.802605161760                 3
   184   183   186   187     1    180.000000000000      3.850192060290                 1
     6     5    14    34     1    180.000000000000     15.321515534534                 2
    37    20    21    38     1      0.000000000000      0.799950138473                 3
    54    53    56    57     1    180.000000000000     15.321515534534                 2
    57    50    51    74     1    180.000000000000     15.321515534534                 2
   110   142   141   140     1    180.000000000000      4.173190890070                 2
   152   151   155   156     1    180.000000000000     15.321515534534                 2
    47    46    45    72     1      0.000000000000      0.198220506977                 3
    67    63    62    80     1    180.000000000000     15.321515534534                 2
    61    60    68    87     1    180.000000000000     15.321515534534                 2
    48    49    58    78     1    180.000000000000     15.321515534534                 2
   139   138   145   165     1    180.000000000000     15.321515534534                 2
    61    60    68    67     1    180.000000000000     15.321515534534                 2
    15    16    17    35     1    180.000000000000     15.321515534534                 2
    51    52    53    56     1    180.000000000000     15.321515534534                 2
    63    62    61    79     1    180.000000000000     15.321515534534                 2
    35    17    18    36     1    180.000000000000     15.321515534534                 2
    18    19    20    37     1      0.000000000000      0.111501038139                 3
    46    47    69    59     1    180.000000000000     15.321515534534                 2
   102   103   113   132     1    180.000000000000     15.321515534534                 2
    17    16    24    23     1    180.000000000000     15.321515534534                 2
   108   107   111   130     1    180.000000000000     15.321515534534                 2
    68    60    61    79     1    180.000000000000     15.321515534534                 2
    66    64    65    83     1      0.000000000000      0.483407861024                 3
   147   148   156   175     1    180.000000000000     15.321515534534                 2
    81    64    65    83     1      0.000000000000      0.799950138473                 3
    94    93    92   117     1    180.000000000000     15.321515534534                 2
   111   107   106   124     1    180.000000000000     15.321515534534                 2
   107   111   112   131     1    180.000000000000     15.321515534534                 2
   107   108   109   128     1      0.000000000000      0.483407861024                 3
   140   139   138   145     1    180.000000000000     15.321515534534                 2
    17    18    19    20     1    180.000000000000     15.321515534534                 2
     1     2     3     4     1    180.000000000000      6.410861677363                 2
   147   148   149   150     1    180.000000000000     15.321515534534                 2
     6     7     8    31     1    180.000000000000     15.321515534534                 2
    89    90    91   113     1    180.000000000000      6.410861677363                 2
     8     7     6    13     1    180.000000000000     15.321515534534                 2
   133   134   135   136     1    180.000000000000      6.410861677363                 2
     5     4     3    25     1    180.000000000000     15.321515534534                 2
    49    50    57    56     1    180.000000000000     15.321515534534                 2
   108   107   111   112     1    180.000000000000     15.321515534534                 2
   150   151   155   174     1    180.000000000000     15.321515534534                 2
    22    20    19    23     1      0.000000000000      0.111501038139                 3
   164   144   145   165     1    180.000000000000     15.321515534534                 2
    10   178   177   181     1      0.000000000000      0.198220506977                 3
    66    64    63    67     1      0.000000000000      0.111501038139                 3
   149   148   147   157     1    180.000000000000      4.866977563957                 2
   185   183   182   189     1      0.000000000000      0.435413753811                 3
   110   108   109   126     1      0.000000000000      0.483407861024                 3
    93    94    95    96     1    180.000000000000     15.321515534534                 2
   186   183   182   190     1      0.000000000000      0.466735938990                 3
   186   183   182   190     1      0.000000000000      1.436153909162                 1
   186   183   184   192     1      0.000000000000      0.466735938990                 3
   186   183   184   192     1      0.000000000000      1.436153909162                 1
    22    54    53    56     1    180.000000000000      4.173190890070                 2
    92    93    94   101     1    180.000000000000      4.866977563957                 2
   138   137   146   147     1    180.000000000000     15.321515534534                 2
    23    19    20    37     1      0.000000000000      0.111501038139                 3
    69    59    58    78     1    180.000000000000     15.321515534534                 2
   145   138   139   162     1    180.000000000000     15.321515534534                 2
   108   110   142   141     1    180.000000000000      7.569054279773                 2
   108   110   142   141     1      0.000000000000     -0.201513062842                 1
   142   141   140   163     1    180.000000000000     15.321515534534                 2
    16    15    14    34     1    180.000000000000     15.321515534534                 2
     4     5    14    15     1    180.000000000000     15.321515534534                 2
   185   183   182   191     1      0.000000000000      0.435413753811                 3
     7     6    13    12     1    180.000000000000     15.321515534534                 2
    64    63    67    86     1    180.000000000000     15.321515534534                 2
   152   151   155   174     1    180.000000000000     15.321515534534                 2
    14    15    25    44     1    180.000000000000     15.321515534534                 2
    52    53    54    55     1    180.000000000000      4.173190890070                 2
   182   183   185   196     1      0.000000000000      0.435413753811                 3
   154   152   153   172     1      0.000000000000      0.483407861024                 3
   186   183   184   193     1      0.000000000000      0.466735938990                 3
   186   183   184   193     1      0.000000000000      1.436153909162                 1
     2     3     4     5     1    180.000000000000     15.321515534534                 2
    85    66    98    97     1    180.000000000000      7.569054279773                 2
    85    66    98    97     1      0.000000000000     -0.201513062842                 1
   182   183   184   194     1      0.000000000000      0.435413753811                 3
     1     2     3    25     1    180.000000000000      6.410861677363                 2
   104   112   111   107     1    180.000000000000     15.321515534534                 2
    50    49    58    59     1    180.000000000000     15.321515534534                 2
   184   183   182   190     1      0.000000000000      0.435413753811                 3
    47    46    45    71     1      0.000000000000      0.198220506977                 3
   148   147   146   166     1    180.000000000000     15.321515534534                 2
   139   140   141   144     1    180.000000000000     15.321515534534                 2
     3    25    15    16     1    180.000000000000     15.321515534534                 2
    19    20    22    41     1      0.000000000000      0.762485897686                 2
    19    20    22    41     1      0.000000000000      0.124362804952                 3
   150   149   148   156     1    180.000000000000     15.321515534534                 2
    12     9    10   178     1    180.000000000000      4.173190890070                 2
   147   148   156   155     1    180.000000000000     15.321515534534                 2
     8     9    10   178     1    180.000000000000      4.173190890070                 2
   138   139   140   141     1    180.000000000000     15.321515534534                 2
   152   154   187   186     1    180.000000000000      7.569054279773                 2
   152   154   187   186     1      0.000000000000     -0.201513062842                 1
   136   137   138   139     1    180.000000000000      4.866977563957                 2
    13     6     5    14     1    180.000000000000      4.866977563957                 2
    64    63    62    80     1    180.000000000000     15.321515534534                 2
    18    19    23    42     1    180.000000000000     15.321515534534                 2
    22    20    21    38     1      0.000000000000      0.483407861024                 3
   154   152   151   155     1      0.000000000000      0.111501038139                 3
    19    23    24    43     1    180.000000000000     15.321515534534                 2
   145   138   137   146     1    180.000000000000      4.866977563957                 2
   106   107   111   130     1    180.000000000000     15.321515534534                 2
   137   146   147   157     1    180.000000000000     15.321515534534                 2
   125   108   110   129     1      0.000000000000      0.762485897686                 2
   125   108   110   129     1      0.000000000000      0.124362804952                 3
    81    64    65    82     1      0.000000000000      0.799950138473                 3
    86    67    68    87     1    180.000000000000     15.321515534534                 2
    68    60    59    69     1    180.000000000000      4.866977563957                 2
    25     3     4    29     1    180.000000000000     15.321515534534                 2
    18    19    20    22     1      0.000000000000      0.111501038139                 3
   107   108   110   129     1      0.000000000000      0.762485897686                 2
   107   108   110   129     1      0.000000000000      0.124362804952                 3
     5     6    13    33     1    180.000000000000     15.321515534534                 2
    30     7     8    31     1    180.000000000000     15.321515534534                 2
    59    60    68    87     1    180.000000000000     15.321515534534                 2
    52    53    56    76     1    180.000000000000     15.321515534534                 2
   150   151   152   154     1      0.000000000000      0.111501038139                 3
    94    95    96   119     1    180.000000000000     15.321515534534                 2
   185   183   184   194     1      0.000000000000      0.435413753811                 3
     5     6    13    12     1    180.000000000000     15.321515534534                 2
    59    60    68    67     1    180.000000000000     15.321515534534                 2
    10     9     8    31     1    180.000000000000     15.321515534534                 2
    17    16    15    25     1    180.000000000000      4.866977563957                 2
   118    95    96   119     1    180.000000000000     15.321515534534                 2
    15    16    17    18     1    180.000000000000     15.321515534534                 2
    98    97   100   120     1    180.000000000000     15.321515534534                 2
   144   141   140   163     1    180.000000000000     15.321515534534                 2
     5    14    15    16     1    180.000000000000     15.321515534534                 2
    96    95    94   101     1    180.000000000000     15.321515534534                 2
    62    61    60    68     1    180.000000000000     15.321515534534                 2
   154   187   186   183     1    180.000000000000     11.630908055712                 2
    62    63    64    66     1      0.000000000000      0.111501038139                 3
    20    19    23    42     1    180.000000000000     15.321515534534                 2
    52    53    56    57     1    180.000000000000     15.321515534534                 2
   125   108   110   142     1      0.000000000000      0.762485897686                 2
   125   108   110   142     1      0.000000000000      0.124362804952                 3
   111   107   108   125     1      0.000000000000      0.111501038139                 3
    18    17    16    24     1    180.000000000000     15.321515534534                 2
   113   103   102   122     1    180.000000000000     15.321515534534                 2
    20    19    18    36     1    180.000000000000     15.321515534534                 2
   106   107   111   112     1    180.000000000000     15.321515534534                 2
    20    22    54    55     1    180.000000000000     12.978553656010                 2
    20    22    54    55     1      0.000000000000     -1.779100933344                 1
   107   108   110   142     1    180.000000000000     -2.883499339083                 2
   107   108   110   142     1      0.000000000000      1.141330947302                 1
   149   150   151   152     1    180.000000000000     15.321515534534                 2
   135   136   137   138     1    180.000000000000     15.321515534534                 2
   182   183   185   195     1      0.000000000000      0.435413753811                 3
    91    90    89   115     1      0.000000000000      0.198220506977                 3
     3     2     1    28     1      0.000000000000      0.198220506977                 3
    21    20    22    41     1      0.000000000000      0.762485897686                 2
    21    20    22    41     1      0.000000000000      0.124362804952                 3
     9    10   178   177     1    180.000000000000     11.630908055712                 2
    41    22    54    55     1    180.000000000000      9.825603686166                 2
    41    22    54    55     1      0.000000000000      5.255757435828                 1
   136   137   138   145     1    180.000000000000      4.866977563957                 2
   148   149   150   168     1    180.000000000000     15.321515534534                 2
    98    97    96   119     1    180.000000000000     15.321515534534                 2
    53    52    51    74     1    180.000000000000     15.321515534534                 2
   112   104   105   123     1    180.000000000000     15.321515534534                 2
    23    19    18    36     1    180.000000000000     15.321515534534                 2
    58    59    60    68     1    180.000000000000      4.866977563957                 2
    90    91    92    93     1    180.000000000000     15.321515534534                 2
   138   145   144   164     1    180.000000000000     15.321515534534                 2
   186   183   182   191     1      0.000000000000      0.466735938990                 3
   186   183   182   191     1      0.000000000000      1.436153909162                 1
     7     6     5    14     1    180.000000000000      4.866977563957                 2
     3     2     1    27     1      0.000000000000      0.198220506977                 3
    47    46    45    70     1      0.000000000000      0.198220506977                 3
   151   150   149   167     1    180.000000000000     15.321515534534                 2
    12     9     8    31     1    180.000000000000     15.321515534534                 2
   106   107   108   109     1      0.000000000000      0.111501038139                 3
    51    50    57    77     1    180.000000000000     15.321515534534                 2
    92    91   113   132     1    180.000000000000     15.321515534534                 2
   134   135   157   176     1    180.000000000000     15.321515534534                 2
   182   183   185   197     1      0.000000000000      0.435413753811                 3
   104   105   106   107     1    180.000000000000     15.321515534534                 2
    62    63    67    86     1    180.000000000000     15.321515534534                 2
   169   152   153   170     1      0.000000000000      0.799950138473                 3
    17    18    19    23     1    180.000000000000     15.321515534534                 2
   151   152   153   171     1      0.000000000000      0.483407861024                 3
    93   102   103   113     1    180.000000000000     15.321515534534                 2
   184   183   185   196     1      0.000000000000      0.435413753811                 3
    37    20    21    40     1      0.000000000000      0.799950138473                 3
   184   183   182   191     1      0.000000000000      0.435413753811                 3
   102   103   104   112     1    180.000000000000      4.866977563957                 2
     4     3    25    44     1    180.000000000000     15.321515534534                 2
    11    10   178   177     1    180.000000000000      4.869377577648                 2
    11    10   178   177     1    180.000000000000      0.702571835515                 1
    57    50    49    58     1    180.000000000000      4.866977563957                 2
   135   134   133   159     1      0.000000000000      0.198220506977                 3
   129   110   142   141     1    180.000000000000      7.569054279773                 2
   129   110   142   141     1      0.000000000000     -0.201513062842                 1
   152   151   150   168     1    180.000000000000     15.321515534534                 2
   186   183   185   196     1      0.000000000000      0.466735938990                 3
   186   183   185   196     1      0.000000000000      1.436153909162                 1
    56    53    52    75     1    180.000000000000     15.321515534534                 2
   109   108   110   129     1      0.000000000000      0.762485897686                 2
   109   108   110   129     1      0.000000000000      0.124362804952                 3
   112   104   103   113     1    180.000000000000      4.866977563957                 2
    15    16    24    43     1    180.000000000000     15.321515534534                 2
   109   108   107   111     1      0.000000000000      0.111501038139                 3
   151   152   153   172     1      0.000000000000      0.483407861024                 3
   125   108   109   127     1      0.000000000000      0.799950138473                 3
     3    25    15    14     1    180.000000000000     15.321515534534                 2
   138   137   146   166     1    180.000000000000     15.321515534534                 2
   183   186   187   188     1    180.000000000000      4.869377577648                 2
   183   186   187   188     1    180.000000000000      0.702571835515                 1
   146   137   136   161     1    180.000000000000     15.321515534534                 2
    93    92    91   113     1    180.000000000000     15.321515534534                 2
    63    64    65    82     1      0.000000000000      0.483407861024                 3
    18    19    20    21     1      0.000000000000      0.111501038139                 3
   105   104   112   111     1    180.000000000000     15.321515534534                 2
   151   152   154   187     1    180.000000000000     -2.883499339083                 2
   151   152   154   187     1      0.000000000000      1.141330947302                 1
    52    51    50    57     1    180.000000000000     15.321515534534                 2
    99    98    97   100     1    180.000000000000      4.173190890070                 2
   102   103   104   105     1    180.000000000000      4.866977563957                 2
   106   105   104   112     1    180.000000000000     15.321515534534                 2
    19    18    17    35     1    180.000000000000     15.321515534534                 2
   140   141   142   143     1    180.000000000000      4.173190890070                 2
    16    17    18    36     1    180.000000000000     15.321515534534                 2
    49    58    59    60     1    180.000000000000     15.321515534534                 2
    91    90    89   114     1      0.000000000000      0.198220506977                 3
    94    93   102   103     1    180.000000000000     15.321515534534                 2
   153   152   154   173     1      0.000000000000      0.762485897686                 2
   153   152   154   173     1      0.000000000000      0.124362804952                 3
    91   113   103   102     1    180.000000000000     15.321515534534                 2
   137   138   145   144     1    180.000000000000     15.321515534534                 2
   138   137   136   161     1    180.000000000000     15.321515534534                 2
    15    16    24    23     1    180.000000000000     15.321515534534                 2
    48    47    69    88     1    180.000000000000     15.321515534534                 2
    54    53    52    75     1    180.000000000000     15.321515534534                 2
   146   147   148   156     1    180.000000000000      4.866977563957                 2
    10     9    12    32     1    180.000000000000     15.321515534534                 2
     7     6    13    33     1    180.000000000000     15.321515534534                 2
   136   135   157   147     1    180.000000000000     15.321515534534                 2
    95    96    97    98     1    180.000000000000     15.321515534534                 2
   185   183   186   187     1      0.000000000000      0.802605161760                 3
   185   183   186   187     1    180.000000000000      3.850192060290                 1
   139   138   137   146     1    180.000000000000      4.866977563957                 2
    81    64    66    85     1      0.000000000000      0.762485897686                 2
    81    64    66    85     1      0.000000000000      0.124362804952                 3
    95    94    93   102     1    180.000000000000      4.866977563957                 2
   169   152   154   173     1      0.000000000000      0.762485897686                 2
   169   152   154   173     1      0.000000000000      0.124362804952                 3
   149   150   151   155     1    180.000000000000     15.321515534534                 2
   135   157   147   148     1    180.000000000000     15.321515534534                 2
    58    59    69    88     1    180.000000000000     15.321515534534                 2
    76    56    57    77     1    180.000000000000     15.321515534534                 2
   184   183   185   195     1      0.000000000000      0.435413753811                 3
    50    49    58    78     1    180.000000000000     15.321515534534                 2
    37    20    21    39     1      0.000000000000      0.799950138473                 3
   110   108   109   128     1      0.000000000000      0.483407861024                 3
     6    13    12    32     1    180.000000000000     15.321515534534                 2
   108   110   142   143     1    180.000000000000     12.978553656010                 2
   108   110   142   143     1      0.000000000000     -1.779100933344                 1
    46    47    69    88     1    180.000000000000     15.321515534534                 2
   149   148   156   175     1    180.000000000000     15.321515534534                 2
     9     8     7    30     1    180.000000000000     15.321515534534                 2
    19    20    21    38     1      0.000000000000      0.483407861024                 3
   146   147   148   149     1    180.000000000000      4.866977563957                 2
    65    64    66    85     1      0.000000000000      0.762485897686                 2
    65    64    66    85     1      0.000000000000      0.124362804952                 3
     2     3     4    29     1    180.000000000000     15.321515534534                 2
     5    14    15    25     1    180.000000000000     15.321515534534                 2
     6    13    12     9     1    180.000000000000     15.321515534534                 2
    66    64    65    82     1      0.000000000000      0.483407861024                 3
    14    15    16    17     1    180.000000000000      4.866977563957                 2
    58    59    60    61     1    180.000000000000      4.866977563957                 2
   140   141   144   164     1    180.000000000000     15.321515534534                 2
   169   152   153   171     1      0.000000000000      0.799950138473                 3
    74    51    52    75     1    180.000000000000     15.321515534534                 2
    21    20    19    23     1      0.000000000000      0.111501038139                 3
    50    57    56    76     1    180.000000000000     15.321515534534                 2
    64    63    67    68     1    180.000000000000     15.321515534534                 2
   102    93    92   117     1    180.000000000000     15.321515534534                 2
    97    96    95   118     1    180.000000000000     15.321515534534                 2
     4     5    14    34     1    180.000000000000     15.321515534534                 2
     7     8     9    10     1    180.000000000000     15.321515534534                 2
   111   107   112   130     4    180.000000000000      1.534133333333                 2
   150   168   149   151     4    180.000000000000      1.534133333333                 2
   149   148   150   167     4    180.000000000000      1.534133333333                 2
   146   166   137   147     4    180.000000000000      1.534133333333                 2
    15    16    25    14     4    180.000000000000      1.534133333333                 2
   113    91   103   132     4    180.000000000000      1.534133333333                 2
   151   152   155   150     4    180.000000000000      1.534133333333                 2
    25     3    15    44     4    180.000000000000      1.534133333333                 2
   102   122    93   103     4    180.000000000000      1.534133333333                 2
    16    17    24    15     4    180.000000000000      1.534133333333                 2
    19    23    18    20     4    180.000000000000      1.534133333333                 2
    96    95    97   119     4    180.000000000000      1.534133333333                 2
   147   148   157   146     4    180.000000000000      1.534133333333                 2
    61    79    60    62     4    180.000000000000      1.534133333333                 2
   142   141   143   110     4    180.000000000000      1.534133333333                 2
   104   112   103   105     4    180.000000000000      1.534133333333                 2
    59    69    58    60     4    180.000000000000      1.534133333333                 2
    49    58    48    50     4    180.000000000000      1.534133333333                 2
     4     5    29     3     4    180.000000000000      1.534133333333                 2
   104   105   112   103     4    180.000000000000      1.534133333333                 2
   187   154   186   188     4    180.000000000000     14.644000000000                 2
     3    25     2     4     4    180.000000000000      1.534133333333                 2
    93    92    94   102     4    180.000000000000      1.534133333333                 2
   146   137   147   166     4    180.000000000000      1.534133333333                 2
    51    74    50    52     4    180.000000000000      1.534133333333                 2
   154   173   187   152     4    180.000000000000      1.394666666667                 2
   102    93   103   122     4    180.000000000000      1.534133333333                 2
    58    78    49    59     4    180.000000000000      1.534133333333                 2
    96    97   119    95     4    180.000000000000      1.534133333333                 2
   107   108   111   106     4    180.000000000000      1.534133333333                 2
    58    59    78    49     4    180.000000000000      1.534133333333                 2
    12    13    32     9     4    180.000000000000      1.534133333333                 2
    94    93    95   101     4    180.000000000000      1.534133333333                 2
    95    94    96   118     4    180.000000000000      1.534133333333                 2
    10    11   178     9     4    180.000000000000     14.644000000000                 2
   107   106   108   111     4    180.000000000000      1.534133333333                 2
     4     3     5    29     4    180.000000000000      1.534133333333                 2
   110   129   142   108     4    180.000000000000      1.394666666667                 2
    92   117    91    93     4    180.000000000000      1.534133333333                 2
   155   156   174   151     4    180.000000000000      1.534133333333                 2
    97   100    96    98     4    180.000000000000      1.534133333333                 2
   112   111   131   104     4    180.000000000000      1.534133333333                 2
   101   100   121    94     4    180.000000000000      1.534133333333                 2
   138   139   145   137     4    180.000000000000      1.534133333333                 2
   112   131   104   111     4    180.000000000000      1.534133333333                 2
    97    96    98   100     4    180.000000000000      1.534133333333                 2
   111   130   107   112     4    180.000000000000      1.534133333333                 2
    16    15    17    24     4    180.000000000000      1.534133333333                 2
   101    94   100   121     4    180.000000000000      1.534133333333                 2
   155   151   156   174     4    180.000000000000      1.534133333333                 2
    63    67    62    64     4    180.000000000000      1.534133333333                 2
   149   167   148   150     4    180.000000000000      1.534133333333                 2
    93    94   102    92     4    180.000000000000      1.534133333333                 2
   156   148   155   175     4    180.000000000000      1.534133333333                 2
     3     2     4    25     4    180.000000000000      1.534133333333                 2
     8    31     7     9     4    180.000000000000      1.534133333333                 2
    67    68    86    63     4    180.000000000000      1.534133333333                 2
    50    51    57    49     4    180.000000000000      1.534133333333                 2
   135   157   134   136     4    180.000000000000      1.534133333333                 2
   101   121    94   100     4    180.000000000000      1.534133333333                 2
    68    87    60    67     4    180.000000000000      1.534133333333                 2
    98    99    66    97     4    180.000000000000      1.534133333333                 2
   142   143   110   141     4    180.000000000000      1.534133333333                 2
   145   144   165   138     4    180.000000000000      1.534133333333                 2
   144   145   164   141     4    180.000000000000      1.534133333333                 2
    60    59    61    68     4    180.000000000000      1.534133333333                 2
   136   137   161   135     4    180.000000000000      1.534133333333                 2
    12    32     9    13     4    180.000000000000      1.534133333333                 2
    51    52    74    50     4    180.000000000000      1.534133333333                 2
   139   162   138   140     4    180.000000000000      1.534133333333                 2
   135   134   136   157     4    180.000000000000      1.534133333333                 2
   155   174   151   156     4    180.000000000000      1.534133333333                 2
   145   138   144   165     4    180.000000000000      1.534133333333                 2
   151   155   150   152     4    180.000000000000      1.534133333333                 2
   156   175   148   155     4    180.000000000000      1.534133333333                 2
     4    29     3     5     4    180.000000000000      1.534133333333                 2
    48    49    73    47     4    180.000000000000      1.534133333333                 2
    66    98    64    85     4    180.000000000000      1.394666666667                 2
   187   188   154   186     4    180.000000000000     14.644000000000                 2
   113   103   132    91     4    180.000000000000      1.534133333333                 2
    69    47    59    88     4    180.000000000000      1.534133333333                 2
     7    30     6     8     4    180.000000000000      1.534133333333                 2
    22    41    54    20     4    180.000000000000      1.394666666667                 2
    98    66    97    99     4    180.000000000000      1.534133333333                 2
    23    42    19    24     4    180.000000000000      1.534133333333                 2
     6     7    13     5     4    180.000000000000      1.534133333333                 2
    60    68    59    61     4    180.000000000000      1.534133333333                 2
    17    18    35    16     4    180.000000000000      1.534133333333                 2
   105   106   123   104     4    180.000000000000      1.534133333333                 2
     9    12     8    10     4    180.000000000000      1.534133333333                 2
    54    22    53    55     4    180.000000000000      1.534133333333                 2
   113   132    91   103     4    180.000000000000      1.534133333333                 2
    51    50    52    74     4    180.000000000000      1.534133333333                 2
   154   152   173   187     4    180.000000000000      1.394666666667                 2
   105   104   106   123     4    180.000000000000      1.534133333333                 2
    94    95   101    93     4    180.000000000000      1.534133333333                 2
    59    60    69    58     4    180.000000000000      1.534133333333                 2
   145   165   138   144     4    180.000000000000      1.534133333333                 2
    91    90    92   113     4    180.000000000000      1.534133333333                 2
    62    61    63    80     4    180.000000000000      1.534133333333                 2
    61    60    62    79     4    180.000000000000      1.534133333333                 2
    48    47    49    73     4    180.000000000000      1.534133333333                 2
     9     8    10    12     4    180.000000000000      1.534133333333                 2
    47    48    69    46     4    180.000000000000      1.534133333333                 2
    67    63    68    86     4    180.000000000000      1.534133333333                 2
   154   187   152   173     4    180.000000000000      1.394666666667                 2
   141   140   142   144     4    180.000000000000      1.534133333333                 2
    47    69    46    48     4    180.000000000000      1.534133333333                 2
     8     7     9    31     4    180.000000000000      1.534133333333                 2
     7     6     8    30     4    180.000000000000      1.534133333333                 2
    13    33     6    12     4    180.000000000000      1.534133333333                 2
   147   157   146   148     4    180.000000000000      1.534133333333                 2
    47    46    48    69     4    180.000000000000      1.534133333333                 2
     9    10    12     8     4    180.000000000000      1.534133333333                 2
   139   140   162   138     4    180.000000000000      1.534133333333                 2
    16    24    15    17     4    180.000000000000      1.534133333333                 2
     5     6    14     4     4    180.000000000000      1.534133333333                 2
    15    25    14    16     4    180.000000000000      1.534133333333                 2
   104   103   105   112     4    180.000000000000      1.534133333333                 2
   136   161   135   137     4    180.000000000000      1.534133333333                 2
    48    73    47    49     4    180.000000000000      1.534133333333                 2
    93   102    92    94     4    180.000000000000      1.534133333333                 2
   139   138   140   162     4    180.000000000000      1.534133333333                 2
   144   141   145   164     4    180.000000000000      1.534133333333                 2
   157   176   135   147     4    180.000000000000      1.534133333333                 2
   100    97   101   120     4    180.000000000000      1.534133333333                 2
    18    36    17    19     4    180.000000000000      1.534133333333                 2
   100   120    97   101     4    180.000000000000      1.534133333333                 2
    94   101    93    95     4    180.000000000000      1.534133333333                 2
    95   118    94    96     4    180.000000000000      1.534133333333                 2
   110   142   108   129     4    180.000000000000      1.394666666667                 2
   151   150   152   155     4    180.000000000000      1.534133333333                 2
    52    75    51    53     4    180.000000000000      1.534133333333                 2
   156   155   175   148     4    180.000000000000      1.534133333333                 2
    57    77    50    56     4    180.000000000000      1.534133333333                 2
    18    17    19    36     4    180.000000000000      1.534133333333                 2
   105   123   104   106     4    180.000000000000      1.534133333333                 2
   149   150   167   148     4    180.000000000000      1.534133333333                 2
    25    44     3    15     4    180.000000000000      1.534133333333                 2
    69    88    47    59     4    180.000000000000      1.534133333333                 2
    13    12    33     6     4    180.000000000000      1.534133333333                 2
    63    62    64    67     4    180.000000000000      1.534133333333                 2
   146   147   166   137     4    180.000000000000      1.534133333333                 2
    18    19    36    17     4    180.000000000000      1.534133333333                 2
    19    18    20    23     4    180.000000000000      1.534133333333                 2
    14     5    15    34     4    180.000000000000      1.534133333333                 2
     6    13     5     7     4    180.000000000000      1.534133333333                 2
    10     9    11   178     4    180.000000000000     14.644000000000                 2
    66    85    98    64     4    180.000000000000      1.394666666667                 2
   137   136   138   146     4    180.000000000000      1.534133333333                 2
   144   164   141   145     4    180.000000000000      1.534133333333                 2
   157   147   176   135     4    180.000000000000      1.534133333333                 2
    59    58    60    69     4    180.000000000000      1.534133333333                 2
    92    93   117    91     4    180.000000000000      1.534133333333                 2
   148   149   156   147     4    180.000000000000      1.534133333333                 2
   157   135   147   176     4    180.000000000000      1.534133333333                 2
     5    14     4     6     4    180.000000000000      1.534133333333                 2
    19    20    23    18     4    180.000000000000      1.534133333333                 2
    56    76    53    57     4    180.000000000000      1.534133333333                 2
   111   112   130   107     4    180.000000000000      1.534133333333                 2
    53    56    52    54     4    180.000000000000      1.534133333333                 2
    49    48    50    58     4    180.000000000000      1.534133333333                 2
   138   137   139   145     4    180.000000000000      1.534133333333                 2
    17    16    18    35     4    180.000000000000      1.534133333333                 2
    97    98   100    96     4    180.000000000000      1.534133333333                 2
   112   104   111   131     4    180.000000000000      1.534133333333                 2
   103   102   104   113     4    180.000000000000      1.534133333333                 2
   137   146   136   138     4    180.000000000000      1.534133333333                 2
   142   110   141   143     4    180.000000000000      1.534133333333                 2
   150   151   168   149     4    180.000000000000      1.534133333333                 2
    56    53    57    76     4    180.000000000000      1.534133333333                 2
    24    23    43    16     4    180.000000000000      1.534133333333                 2
    17    35    16    18     4    180.000000000000      1.534133333333                 2
    50    49    51    57     4    180.000000000000      1.534133333333                 2
    23    24    42    19     4    180.000000000000      1.534133333333                 2
    62    80    61    63     4    180.000000000000      1.534133333333                 2
    95    96   118    94     4    180.000000000000      1.534133333333                 2
   138   145   137   139     4    180.000000000000      1.534133333333                 2
    58    49    59    78     4    180.000000000000      1.534133333333                 2
    57    56    77    50     4    180.000000000000      1.534133333333                 2
    61    62    79    60     4    180.000000000000      1.534133333333                 2
    67    86    63    68     4    180.000000000000      1.534133333333                 2
    56    57    76    53     4    180.000000000000      1.534133333333                 2
    24    16    23    43     4    180.000000000000      1.534133333333                 2
   102   103   122    93     4    180.000000000000      1.534133333333                 2
    54    53    55    22     4    180.000000000000      1.534133333333                 2
   147   146   148   157     4    180.000000000000      1.534133333333                 2
    13     6    12    33     4    180.000000000000      1.534133333333                 2
   106   105   107   124     4    180.000000000000      1.534133333333                 2
    15    14    16    25     4    180.000000000000      1.534133333333                 2
    53    54    56    52     4    180.000000000000      1.534133333333                 2
     8     9    31     7     4    180.000000000000      1.534133333333                 2
   140   139   141   163     4    180.000000000000      1.534133333333                 2
   103   113   102   104     4    180.000000000000      1.534133333333                 2
    24    43    16    23     4    180.000000000000      1.534133333333                 2
    25    15    44     3     4    180.000000000000      1.534133333333                 2
   110   108   129   142     4    180.000000000000      1.394666666667                 2
    50    57    49    51     4    180.000000000000      1.534133333333                 2
   141   142   144   140     4    180.000000000000      1.534133333333                 2
    91    92   113    90     4    180.000000000000      1.534133333333                 2
   106   107   124   105     4    180.000000000000      1.534133333333                 2
    52    53    75    51     4    180.000000000000      1.534133333333                 2
    53    52    54    56     4    180.000000000000      1.534133333333                 2
    57    50    56    77     4    180.000000000000      1.534133333333                 2
   106   124   105   107     4    180.000000000000      1.534133333333                 2
    54    55    22    53     4    180.000000000000      1.534133333333                 2
    52    51    53    75     4    180.000000000000      1.534133333333                 2
    60    61    68    59     4    180.000000000000      1.534133333333                 2
    10   178     9    11     4    180.000000000000     14.644000000000                 2
    23    19    24    42     4    180.000000000000      1.534133333333                 2
   140   163   139   141     4    180.000000000000      1.534133333333                 2
    14    15    34     5     4    180.000000000000      1.534133333333                 2
   141   144   140   142     4    180.000000000000      1.534133333333                 2
    22    20    41    54     4    180.000000000000      1.394666666667                 2
    62    63    80    61     4    180.000000000000      1.534133333333                 2
   135   136   157   134     4    180.000000000000      1.534133333333                 2
    12     9    13    32     4    180.000000000000      1.534133333333                 2
    63    64    67    62     4    180.000000000000      1.534133333333                 2
    68    60    67    87     4    180.000000000000      1.534133333333                 2
   140   141   163   139     4    180.000000000000      1.534133333333                 2
    68    67    87    60     4    180.000000000000      1.534133333333                 2
    69    59    88    47     4    180.000000000000      1.534133333333                 2
     3     4    25     2     4    180.000000000000      1.534133333333                 2
     7     8    30     6     4    180.000000000000      1.534133333333                 2
    92    91    93   117     4    180.000000000000      1.534133333333                 2
    98    97    99    66     4    180.000000000000      1.534133333333                 2
    49    50    58    48     4    180.000000000000      1.534133333333                 2
   137   138   146   136     4    180.000000000000      1.534133333333                 2
     6     5     7    13     4    180.000000000000      1.534133333333                 2
   100   101   120    97     4    180.000000000000      1.534133333333                 2
   187   186   188   154     4    180.000000000000     14.644000000000                 2
     5     4     6    14     4    180.000000000000      1.534133333333                 2
   103   104   113   102     4    180.000000000000      1.534133333333                 2
   136   135   137   161     4    180.000000000000      1.534133333333                 2
   150   149   151   168     4    180.000000000000      1.534133333333                 2
    96   119    95    97     4    180.000000000000      1.534133333333                 2
   148   147   149   156     4    180.000000000000      1.534133333333                 2
   107   111   106   108     4    180.000000000000      1.534133333333                 2
    66    64    85    98     4    180.000000000000      1.394666666667                 2
    22    54    20    41     4    180.000000000000      1.394666666667                 2
   148   156   147   149     4    180.000000000000      1.534133333333                 2
    91   113    90    92     4    180.000000000000      1.534133333333                 2
    14    34     5    15     4    180.000000000000      1.534133333333                 2

[ settles ]
;i  funct   dOH  dHH


[ exclusions ]
;ai    aj

[ moleculetype ]
MOL1	         3

[ atoms ]
;index, atom type, resnum, resname, name, cgnr, charge, mass
     1 MOL1_0       2 MOL1     Cl         1     -0.113980001211     35.453200000000
     2 MOL1_1       2 MOL1     C          1      0.223370002210     12.010780000000
     3 MOL1_2       2 MOL1     Cl         1     -0.113980001211     35.453200000000
     4 MOL1_3       2 MOL1     Cl         1     -0.113980001211     35.453200000000
     5 MOL1_4       2 MOL1     H          1      0.118570001423      1.007947000000

[ pairs ]
;ai    aj   funct

[ bonds ]
;ai    aj   funct r k
     1      2      1      0.179147538137  144269.526418976020 
     2      3      1      0.179147538137  144269.526418976020 
     2      4      1      0.179147538137  144269.526418976020 
     2      5      1      0.109389949263  309655.084322414012 

[ angles ]
;ai    aj   ak   funct theta  k
     1      2      3      1     116.547586263400     445.222086509286 
     1      2      5      1     116.547586263400     445.222086509286 
     4      2      5      1     116.547586263400     445.222086509286 
     3      2      5      1     116.547586263400     445.222086509286 
     1      2      4      1     116.547586263400     445.222086509286 
     3      2      4      1     116.547586263400     445.222086509286 

[ dihedrals ]
;ai    aj   ak   al   funct phi  k

[ settles ]
;i  funct   dOH  dHH


[ exclusions ]
;ai    aj


[ system ]
;name
FOO

[ molecules ]
;name	number
pmp_tetramer.pdb	1
MOL1	634

