FOO
 3543
    1MOM     C1    1   2.150   1.501   2.469
    1MOM     O2    2   2.012   1.539   2.465
    1MOM     C3    3   1.943   1.527   2.347
    1MOM     C4    4   1.998   1.488   2.224
    1MOM     C5    5   1.919   1.483   2.109
    1MOM     C6    6   1.783   1.518   2.111
    1MOM     C7    7   1.707   1.511   1.982
    1MOM     C8    8   1.571   1.472   1.976
    1MOM     C9    9   1.498   1.471   1.855
    1MOM    C10   10   1.353   1.440   1.854
    1MOM    O11   11   1.297   1.432   1.745
    1MOM    C12   12   1.567   1.503   1.737
    1MOM    C13   13   1.701   1.539   1.739
    1MOM    C14   14   1.770   1.544   1.861
    1MOM    C15   15   1.727   1.556   2.236
    1MOM    C16   16   1.586   1.594   2.255
    1MOM    C17   17   1.530   1.704   2.188
    1MOM    C18   18   1.395   1.737   2.204
    1MOM    C19   19   1.333   1.857   2.135
    1MOM    C20   20   1.400   1.987   2.181
    1MOM    N21   21   1.347   1.844   1.991
    1MOM    C22   22   1.315   1.657   2.288
    1MOM    C23   23   1.370   1.549   2.357
    1MOM    C24   24   1.505   1.519   2.341
    1MOM    C25   25   1.808   1.558   2.350
    1MOM    H26   26   2.203   1.567   2.399
    1MOM    H27   27   2.155   1.395   2.442
    1MOM    H28   28   2.181   1.518   2.573
    1MOM    H29   29   2.103   1.461   2.215
    1MOM    H30   30   1.966   1.450   2.017
    1MOM    H31   31   1.520   1.442   2.066
    1MOM    H32   32   1.514   1.503   1.641
    1MOM    H33   33   1.752   1.564   1.647
    1MOM    H34   34   1.873   1.577   1.859
    1MOM    H35   35   1.593   1.763   2.122
    1MOM    H36   36   1.228   1.864   2.163
    1MOM    H37   37   1.340   2.066   2.137
    1MOM    H38   38   1.395   1.987   2.290
    1MOM    H39   39   1.503   1.985   2.143
    1MOM    H40   40   1.434   1.874   1.948
    1MOM    H41   41   1.210   1.679   2.300
    1MOM    H42   42   1.307   1.489   2.421
    1MOM    H43   43   1.547   1.433   2.394
    1MOM    H44   44   1.765   1.587   2.446
    2MOM    C45   45   1.999   1.683   1.257
    2MOM    O46   46   1.969   1.748   1.382
    2MOM    C47   47   1.838   1.757   1.422
    2MOM    C48   48   1.730   1.694   1.360
    2MOM    C49   49   1.600   1.710   1.410
    2MOM    C50   50   1.574   1.789   1.523
    2MOM    C51   51   1.434   1.794   1.573
    2MOM    C52   52   1.405   1.795   1.711
    2MOM    C53   53   1.273   1.796   1.761
    2MOM    C54   54   1.247   1.803   1.905
    2MOM    O55   55   1.135   1.780   1.951
    2MOM    C56   56   1.168   1.787   1.668
    2MOM    C57   57   1.194   1.783   1.531
    2MOM    C58   58   1.325   1.789   1.484
    2MOM    C59   59   1.684   1.854   1.586
    2MOM    C60   60   1.673   1.945   1.701
    2MOM    C61   61   1.600   2.065   1.691
    2MOM    C62   62   1.596   2.156   1.797
    2MOM    C63   63   1.523   2.289   1.787
    2MOM    C64   64   1.550   2.362   1.656
    2MOM    N65   65   1.381   2.263   1.799
    2MOM    C66   66   1.661   2.123   1.917
    2MOM    C67   67   1.732   2.004   1.929
    2MOM    C68   68   1.739   1.916   1.820
    2MOM    C69   69   1.813   1.835   1.535
    2MOM    H70   70   1.941   1.735   1.180
    2MOM    H71   71   1.970   1.578   1.269
    2MOM    H72   72   2.106   1.695   1.244
    2MOM    H73   73   1.743   1.631   1.272
    2MOM    H74   74   1.520   1.656   1.360
    2MOM    H75   75   1.487   1.792   1.781
    2MOM    H76   76   1.065   1.783   1.704
    2MOM    H77   77   1.111   1.777   1.461
    2MOM    H78   78   1.341   1.787   1.377
    2MOM    H79   79   1.548   2.087   1.598
    2MOM    H80   80   1.556   2.355   1.868
    2MOM    H81   81   1.505   2.461   1.668
    2MOM    H82   82   1.659   2.367   1.646
    2MOM    H83   83   1.503   2.305   1.576
    2MOM    H84   84   1.327   2.251   1.714
    2MOM    H85   85   1.657   2.192   2.002
    2MOM    H86   86   1.783   1.980   2.022
    2MOM    H87   87   1.797   1.824   1.829
    2MOM    H88   88   1.897   1.885   1.582
    3MOM    C89   89   0.726   1.688   1.373
    3MOM    O90   90   0.797   1.812   1.353
    3MOM    C91   91   0.834   1.884   1.464
    3MOM    C92   92   0.790   1.861   1.595
    3MOM    C93   93   0.836   1.941   1.700
    3MOM    C94   94   0.928   2.044   1.679
    3MOM    C95   95   0.981   2.116   1.798
    3MOM    C96   96   1.117   2.146   1.809
    3MOM    C97   97   1.169   2.220   1.916
    3MOM    C98   98   1.311   2.260   1.917
    3MOM    O99   99   1.367   2.290   2.022
    3MOM   C100  100   1.083   2.254   2.021
    3MOM   C101  101   0.947   2.222   2.014
    3MOM   C102  102   0.896   2.155   1.903
    3MOM   C103  103   0.972   2.069   1.546
    3MOM   C104  104   1.067   2.176   1.509
    3MOM   C105  105   1.046   2.309   1.547
    3MOM   C106  106   1.137   2.411   1.513
    3MOM   C107  107   1.113   2.555   1.549
    3MOM   C108  108   0.982   2.605   1.488
    3MOM   N109  109   1.109   2.571   1.693
    3MOM   C110  110   1.252   2.376   1.441
    3MOM   C111  111   1.275   2.244   1.402
    3MOM   C112  112   1.183   2.145   1.435
    3MOM   C113  113   0.923   1.989   1.442
    3MOM   H114  114   0.629   1.714   1.415
    3MOM   H115  115   0.788   1.627   1.439
    3MOM   H116  116   0.717   1.645   1.273
    3MOM   H117  117   0.720   1.782   1.617
    3MOM   H118  118   0.802   1.918   1.800
    3MOM   H119  119   1.184   2.111   1.731
    3MOM   H120  120   1.121   2.310   2.106
    3MOM   H121  121   0.881   2.252   2.095
    3MOM   H122  122   0.790   2.132   1.898
    3MOM   H123  123   0.957   2.334   1.604
    3MOM   H124  124   1.193   2.617   1.507
    3MOM   H125  125   0.980   2.712   1.506
    3MOM   H126  126   0.987   2.581   1.381
    3MOM   H127  127   0.901   2.553   1.539
    3MOM   H128  128   1.019   2.561   1.740
    3MOM   H129  129   1.324   2.453   1.415
    3MOM   H130  130   1.364   2.220   1.345
    3MOM   H131  131   1.201   2.043   1.405
    3MOM   H132  132   0.955   2.008   1.340
    4MOM   C133  133   0.662   2.299   2.538
    4MOM   O134  134   0.642   2.345   2.404
    4MOM   C135  135   0.747   2.408   2.341
    4MOM   C136  136   0.877   2.421   2.393
    4MOM   C137  137   0.976   2.487   2.320
    4MOM   C138  138   0.951   2.542   2.194
    4MOM   C139  139   1.065   2.604   2.121
    4MOM   C140  140   1.086   2.581   1.984
    4MOM   C141  141   1.197   2.636   1.916
    4MOM   C142  142   1.215   2.615   1.771
    4MOM   O143  143   1.322   2.641   1.717
    4MOM   C144  144   1.290   2.710   1.989
    4MOM   C145  145   1.271   2.734   2.125
    4MOM   C146  146   1.159   2.682   2.191
    4MOM   C147  147   0.820   2.530   2.140
    4MOM   C148  148   0.780   2.585   2.009
    4MOM   C149  149   0.797   2.722   1.981
    4MOM   C150  150   0.761   2.775   1.856
    4MOM   C151  151   0.778   2.922   1.823
    4MOM   C152  152   0.727   3.014   1.935
    4MOM   N153  153   0.918   2.950   1.798
    4MOM   C154  154   0.711   2.688   1.757
    4MOM   C155  155   0.694   2.552   1.784
    4MOM   C156  156   0.727   2.501   1.910
    4MOM   C157  157   0.721   2.463   2.215
    4MOM   H158  158   0.694   2.385   2.597
    4MOM   H159  159   0.738   2.219   2.533
    4MOM   H160  160   0.565   2.261   2.571
    4MOM   H161  161   0.903   2.380   2.489
    4MOM   H162  162   1.076   2.492   2.363
    4MOM   H163  163   1.017   2.518   1.930
    4MOM   H164  164   1.378   2.750   1.940
    4MOM   H165  165   1.344   2.793   2.179
    4MOM   H166  166   1.146   2.703   2.296
    4MOM   H167  167   0.840   2.786   2.057
    4MOM   H168  168   0.719   2.946   1.734
    4MOM   H169  169   0.731   3.115   1.893
    4MOM   H170  170   0.624   2.982   1.955
    4MOM   H171  171   0.794   3.002   2.020
    4MOM   H172  172   0.978   2.972   1.878
    4MOM   H173  173   0.687   2.727   1.659
    4MOM   H174  174   0.656   2.486   1.707
    4MOM   H175  175   0.714   2.395   1.930
    4MOM   H176  176   0.621   2.455   2.175
    5MOM   C177  177   1.813   2.966   2.219
    5MOM   O178  178   1.674   3.000   2.228
    5MOM   C179  179   1.599   3.000   2.113
    5MOM   C180  180   1.641   2.952   1.988
    5MOM   C181  181   1.556   2.958   1.877
    5MOM   C182  182   1.428   3.014   1.886
    5MOM   C183  183   1.342   3.013   1.765
    5MOM   C184  184   1.206   2.981   1.773
    5MOM   C185  185   1.122   2.982   1.660
    5MOM   C186  186   0.977   2.956   1.673
    5MOM   O187  187   0.907   2.941   1.574
    5MOM   C188  188   1.179   3.009   1.535
    5MOM   C189  189   1.315   3.038   1.524
    5MOM   C190  190   1.396   3.040   1.638
    5MOM   C191  191   1.385   3.063   2.012
    5MOM   C192  192   1.256   3.130   2.034
    5MOM   C193  193   1.221   3.244   1.961
    5MOM   C194  194   1.098   3.310   1.981
    5MOM   C195  195   1.061   3.433   1.903
    5MOM   C196  196   1.168   3.542   1.913
    5MOM   N197  197   1.045   3.396   1.764
    5MOM   C198  198   1.008   3.256   2.074
    5MOM   C199  199   1.041   3.142   2.148
    5MOM   C200  200   1.165   3.081   2.130
    5MOM   C201  201   1.471   3.054   2.122
    5MOM   H202  202   1.857   3.032   2.144
    5MOM   H203  203   1.816   2.860   2.191
    5MOM   H204  204   1.853   2.984   2.319
    5MOM   H205  205   1.739   2.906   1.975
    5MOM   H206  206   1.591   2.915   1.783
    5MOM   H207  207   1.165   2.954   1.869
    5MOM   H208  208   1.116   3.009   1.446
    5MOM   H209  209   1.357   3.060   1.426
    5MOM   H210  210   1.501   3.064   1.626
    5MOM   H211  211   1.290   3.282   1.886
    5MOM   H212  212   0.967   3.475   1.941
    5MOM   H213  213   1.124   3.631   1.866
    5MOM   H214  214   1.186   3.556   2.020
    5MOM   H215  215   1.256   3.506   1.860
    5MOM   H216  216   1.121   3.416   1.699
    5MOM   H217  217   0.910   3.301   2.087
    5MOM   H218  218   0.971   3.102   2.220
    5MOM   H219  219   1.191   2.994   2.189
    5MOM   H220  220   1.439   3.094   2.218
    6MOM   C221  221   1.535   3.171   0.933
    6MOM   O222  222   1.524   3.257   1.047
    6MOM   C223  223   1.406   3.259   1.118
    6MOM   C224  224   1.297   3.174   1.094
    6MOM   C225  225   1.181   3.185   1.172
    6MOM   C226  226   1.169   3.281   1.274
    6MOM   C227  227   1.043   3.283   1.352
    6MOM   C228  228   1.043   3.304   1.491
    6MOM   C229  229   0.925   3.309   1.567
    6MOM   C230  230   0.929   3.342   1.710
    6MOM   O231  231   0.830   3.329   1.781
    6MOM   C232  232   0.804   3.282   1.502
    6MOM   C233  233   0.801   3.258   1.364
    6MOM   C234  234   0.919   3.260   1.290
    6MOM   C235  235   1.281   3.366   1.300
    6MOM   C236  236   1.285   3.470   1.404
    6MOM   C237  237   1.186   3.570   1.414
    6MOM   C238  238   1.191   3.668   1.515
    6MOM   C239  239   1.087   3.778   1.524
    6MOM   C240  240   1.094   3.868   1.400
    6MOM   N241  241   0.953   3.720   1.533
    6MOM   C242  242   1.296   3.665   1.607
    6MOM   C243  243   1.395   3.567   1.598
    6MOM   C244  244   1.390   3.471   1.498
    6MOM   C245  245   1.396   3.352   1.220
    6MOM   H246  246   1.456   3.201   0.864
    6MOM   H247  247   1.525   3.069   0.970
    6MOM   H248  248   1.635   3.191   0.892
    6MOM   H249  249   1.300   3.099   1.016
    6MOM   H250  250   1.100   3.116   1.152
    6MOM   H251  251   1.139   3.314   1.542
    6MOM   H252  252   0.711   3.282   1.558
    6MOM   H253  253   0.706   3.239   1.315
    6MOM   H254  254   0.914   3.244   1.183
    6MOM   H255  255   1.105   3.570   1.342
    6MOM   H256  256   1.108   3.841   1.611
    6MOM   H257  257   1.023   3.949   1.419
    6MOM   H258  258   1.197   3.903   1.394
    6MOM   H259  259   1.065   3.807   1.314
    6MOM   H260  260   0.906   3.695   1.447
    6MOM   H261  261   1.302   3.740   1.686
    6MOM   H262  262   1.477   3.567   1.670
    6MOM   H263  263   1.468   3.395   1.493
    6MOM   H264  264   1.481   3.418   1.238
    7MOM   C265  265   0.198   3.209   1.103
    7MOM   O266  266   0.328   3.268   1.083
    7MOM   C267  267   0.388   3.325   1.193
    7MOM   C268  268   0.361   3.291   1.326
    7MOM   C269  269   0.421   3.360   1.431
    7MOM   C270  270   0.509   3.468   1.407
    7MOM   C271  271   0.559   3.544   1.524
    7MOM   C272  272   0.691   3.591   1.532
    7MOM   C273  273   0.737   3.667   1.642
    7MOM   C274  274   0.876   3.718   1.648
    7MOM   O275  275   0.922   3.762   1.753
    7MOM   C276  276   0.647   3.693   1.747
    7MOM   C277  277   0.516   3.645   1.742
    7MOM   C278  278   0.473   3.571   1.632
    7MOM   C279  279   0.541   3.498   1.272
    7MOM   C280  280   0.629   3.609   1.231
    7MOM   C281  281   0.594   3.740   1.263
    7MOM   C282  282   0.674   3.848   1.223
    7MOM   C283  283   0.634   3.990   1.256
    7MOM   C284  284   0.505   4.029   1.184
    7MOM   N285  285   0.612   4.002   1.400
    7MOM   C286  286   0.792   3.822   1.151
    7MOM   C287  287   0.828   3.691   1.119
    7MOM   C288  288   0.746   3.584   1.159
    7MOM   C289  289   0.480   3.426   1.168
    7MOM   H290  290   0.139   3.280   1.161
    7MOM   H291  291   0.216   3.115   1.156
    7MOM   H292  292   0.159   3.193   1.003
    7MOM   H293  293   0.292   3.210   1.350
    7MOM   H294  294   0.397   3.331   1.532
    7MOM   H295  295   0.760   3.566   1.452
    7MOM   H296  296   0.679   3.752   1.832
    7MOM   H297  297   0.448   3.666   1.824
    7MOM   H298  298   0.370   3.536   1.631
    7MOM   H299  299   0.503   3.758   1.319
    7MOM   H300  300   0.713   4.059   1.223
    7MOM   H301  301   0.487   4.133   1.209
    7MOM   H302  302   0.524   4.014   1.077
    7MOM   H303  303   0.426   3.963   1.221
    7MOM   H304  304   0.524   3.970   1.437
    7MOM   H305  305   0.855   3.904   1.119
    7MOM   H306  306   0.919   3.672   1.063
    7MOM   H307  307   0.774   3.483   1.134
    7MOM   H308  308   0.501   3.452   1.065
    8MOM   C309  309  -0.015   3.717   2.060
    8MOM   O310  310  -0.003   3.840   1.986
    8MOM   C311  311   0.123   3.879   1.949
    8MOM   C312  312   0.240   3.852   2.021
    8MOM   C313  313   0.363   3.901   1.977
    8MOM   C314  314   0.373   3.977   1.859
    8MOM   C315  315   0.506   4.024   1.815
    8MOM   C316  316   0.545   4.010   1.681
    8MOM   C317  317   0.669   4.059   1.634
    8MOM   C318  318   0.704   4.050   1.491
    8MOM   O319  319   0.812   4.091   1.450
    8MOM   C320  320   0.756   4.118   1.727
    8MOM   C321  321   0.720   4.130   1.861
    8MOM   C322  322   0.595   4.083   1.905
    8MOM   C323  323   0.254   4.005   1.786
    8MOM   C324  324   0.251   4.090   1.666
    8MOM   C325  325   0.281   4.226   1.676
    8MOM   C326  326   0.274   4.310   1.563
    8MOM   C327  327   0.301   4.458   1.573
    8MOM   C328  328   0.211   4.526   1.676
    8MOM   N329  329   0.440   4.481   1.607
    8MOM   C330  330   0.241   4.252   1.439
    8MOM   C331  331   0.212   4.116   1.428
    8MOM   C332  332   0.216   4.035   1.542
    8MOM   C333  333   0.132   3.955   1.833
    8MOM   H334  334   0.019   3.738   2.162
    8MOM   H335  335   0.046   3.643   2.008
    8MOM   H336  336  -0.122   3.693   2.056
    8MOM   H337  337   0.237   3.794   2.113
    8MOM   H338  338   0.452   3.878   2.034
    8MOM   H339  339   0.477   3.959   1.613
    8MOM   H340  340   0.853   4.156   1.694
    8MOM   H341  341   0.788   4.177   1.931
    8MOM   H342  342   0.567   4.095   2.009
    8MOM   H343  343   0.309   4.267   1.772
    8MOM   H344  344   0.278   4.505   1.476
    8MOM   H345  345   0.227   4.633   1.664
    8MOM   H346  346   0.108   4.497   1.650
    8MOM   H347  347   0.242   4.489   1.774
    8MOM   H348  348   0.468   4.489   1.704
    8MOM   H349  349   0.238   4.314   1.349
    8MOM   H350  350   0.187   4.073   1.331
    8MOM   H351  351   0.192   3.930   1.534
    8MOM   H352  352   0.041   3.977   1.779
    9CAP   C353  353   1.148   1.416   1.970
    9CAP   O354  354   1.291   1.425   1.975
    9CAP   H355  355   1.112   1.507   1.920
    9CAP   H356  356   1.117   1.412   2.075
    9CAP   H357  357   1.124   1.325   1.915
   10CAP   C358  358   0.532   4.468   1.150
   10CAP   C359  359   0.612   4.487   1.281
   10CAP   C360  360   0.707   4.367   1.299
   10CAP   C361  361   0.690   4.619   1.271
   10CAP   O362  362   0.509   4.489   1.383
   10CAP   C363  363   0.540   4.498   1.515
   10CAP   O364  364   0.649   4.524   1.563
   10CAP   H365  365   0.605   4.468   1.069
   10CAP   H366  366   0.480   4.373   1.160
   10CAP   H367  367   0.463   4.553   1.144
   10CAP   H368  368   0.642   4.280   1.315
   10CAP   H369  369   0.770   4.389   1.385
   10CAP   H370  370   0.765   4.359   1.207
   10CAP   H371  371   0.615   4.698   1.262
   10CAP   H372  372   0.750   4.628   1.361
   10CAP   H373  373   0.752   4.611   1.182
   11TCM     c1  374   4.187   4.856   2.822
   11TCM    cl1  375   4.217   4.687   2.875
   11TCM    cl2  376   4.342   4.926   2.763
   11TCM     h1  377   4.113   4.857   2.742
   11TCM    cl3  378   4.127   4.954   2.960
   12TCM     c1  379   1.665   2.685   3.398
   12TCM    cl1  380   1.778   2.778   3.294
   12TCM    cl2  381   1.715   2.705   3.570
   12TCM     h1  382   1.563   2.721   3.385
   12TCM    cl3  383   1.675   2.511   3.356
   13TCM     c1  384   3.747   4.300   4.290
   13TCM    cl1  385   3.569   4.313   4.304
   13TCM    cl2  386   3.787   4.151   4.199
   13TCM     h1  387   3.787   4.387   4.237
   13TCM    cl3  388   3.819   4.292   4.454
   14TCM     c1  389   3.047   0.180   3.554
   14TCM    cl1  390   2.957   0.326   3.500
   14TCM    cl2  391   3.223   0.206   3.530
   14TCM     h1  392   3.029   0.163   3.660
   14TCM    cl3  393   2.990   0.038   3.461
   15TCM     c1  394   1.486   2.695   1.266
   15TCM    cl1  395   1.541   2.660   1.433
   15TCM    cl2  396   1.324   2.774   1.270
   15TCM     h1  397   1.557   2.761   1.218
   15TCM    cl3  398   1.475   2.542   1.173
   16TCM     c1  399   0.286   2.149   0.148
   16TCM    cl1  400   0.196   2.285   0.223
   16TCM    cl2  401   0.299   2.177  -0.029
   16TCM     h1  402   0.386   2.144   0.191
   16TCM    cl3  403   0.200   1.994   0.177
   17TCM     c1  404   0.176   0.917   0.195
   17TCM    cl1  405   0.273   0.919   0.346
   17TCM    cl2  406   0.281   0.972   0.060
   17TCM     h1  407   0.140   0.816   0.175
   17TCM    cl3  408   0.038   1.031   0.210
   18TCM     c1  409   3.303   3.497   4.198
   18TCM    cl1  410   3.149   3.415   4.155
   18TCM    cl2  411   3.436   3.377   4.194
   18TCM     h1  412   3.323   3.577   4.127
   18TCM    cl3  413   3.289   3.565   4.364
   19TCM     c1  414   0.718   4.155   3.585
   19TCM    cl1  415   0.788   4.321   3.592
   19TCM    cl2  416   0.815   4.046   3.689
   19TCM     h1  417   0.615   4.158   3.621
   19TCM    cl3  418   0.723   4.097   3.415
   20TCM     c1  419   2.151   4.769   3.432
   20TCM    cl1  420   2.064   4.624   3.492
   20TCM    cl2  421   2.207   4.865   3.572
   20TCM     h1  422   2.237   4.738   3.372
   20TCM    cl3  423   2.040   4.868   3.331
   21TCM     c1  424   4.283   3.339   3.979
   21TCM    cl1  425   4.233   3.274   3.819
   21TCM    cl2  426   4.146   3.325   4.094
   21TCM     h1  427   4.368   3.282   4.016
   21TCM    cl3  428   4.330   3.511   3.962
   22TCM     c1  429   0.392   1.840   1.101
   22TCM    cl1  430   0.567   1.855   1.066
   22TCM    cl2  431   0.328   2.000   1.152
   22TCM     h1  432   0.339   1.805   1.012
   22TCM    cl3  433   0.368   1.721   1.234
   23TCM     c1  434   2.586   2.440   2.397
   23TCM    cl1  435   2.578   2.303   2.512
   23TCM    cl2  436   2.463   2.418   2.268
   23TCM     h1  437   2.568   2.534   2.450
   23TCM    cl3  438   2.748   2.445   2.321
   24TCM     c1  439   4.604   4.577   0.430
   24TCM    cl1  440   4.446   4.662   0.426
   24TCM    cl2  441   4.640   4.529   0.599
   24TCM     h1  442   4.599   4.488   0.367
   24TCM    cl3  443   4.733   4.686   0.372
   25TCM     c1  444   1.896   4.851   3.849
   25TCM    cl1  445   1.760   4.770   3.933
   25TCM    cl2  446   1.857   4.870   3.675
   25TCM     h1  447   1.913   4.949   3.893
   25TCM    cl3  448   2.045   4.751   3.868
   26TCM     c1  449   2.627   1.801   3.547
   26TCM    cl1  450   2.612   1.623   3.546
   26TCM    cl2  451   2.622   1.861   3.378
   26TCM     h1  452   2.545   1.844   3.604
   26TCM    cl3  453   2.783   1.849   3.622
   27TCM     c1  454   0.492   2.878   4.377
   27TCM    cl1  455   0.639   2.776   4.385
   27TCM    cl2  456   0.360   2.799   4.470
   27TCM     h1  457   0.513   2.976   4.419
   27TCM    cl3  458   0.442   2.895   4.205
   28TCM     c1  459   4.926   3.257   1.945
   28TCM    cl1  460   4.782   3.184   1.867
   28TCM    cl2  461   4.873   3.378   2.066
   28TCM     h1  462   4.985   3.179   1.994
   28TCM    cl3  463   5.027   3.338   1.820
   29TCM     c1  464   0.529   3.491   4.858
   29TCM    cl1  465   0.530   3.528   5.033
   29TCM    cl2  466   0.696   3.500   4.791
   29TCM     h1  467   0.490   3.391   4.842
   29TCM    cl3  468   0.425   3.611   4.773
   30TCM     c1  469   2.722   0.063   3.203
   30TCM    cl1  470   2.682   0.217   3.286
   30TCM    cl2  471   2.652   0.064   3.038
   30TCM     h1  472   2.831   0.053   3.196
   30TCM    cl3  473   2.655  -0.074   3.296
   31TCM     c1  474   3.216   0.950   2.978
   31TCM    cl1  475   3.273   0.784   3.017
   31TCM    cl2  476   3.088   0.942   2.853
   31TCM     h1  477   3.175   0.997   3.069
   31TCM    cl3  478   3.353   1.047   2.916
   32TCM     c1  479   3.150   4.484   4.604
   32TCM    cl1  480   3.129   4.312   4.650
   32TCM    cl2  481   3.195   4.579   4.749
   32TCM     h1  482   3.229   4.493   4.528
   32TCM    cl3  483   2.995   4.545   4.538
   33TCM     c1  484   2.658   2.227   2.020
   33TCM    cl1  485   2.623   2.133   1.872
   33TCM    cl2  486   2.804   2.328   1.993
   33TCM     h1  487   2.573   2.292   2.043
   33TCM    cl3  488   2.686   2.115   2.157
   34TCM     c1  489   2.703   1.828   4.707
   34TCM    cl1  490   2.578   1.956   4.692
   34TCM    cl2  491   2.815   1.868   4.842
   34TCM     h1  492   2.654   1.732   4.728
   34TCM    cl3  493   2.795   1.817   4.554
   35TCM     c1  494   0.037   4.687   1.141
   35TCM    cl1  495   0.009   4.797   1.280
   35TCM    cl2  496   0.130   4.544   1.196
   35TCM     h1  497  -0.059   4.655   1.100
   35TCM    cl3  498   0.129   4.773   1.014
   36TCM     c1  499   3.264   0.397   1.331
   36TCM    cl1  500   3.242   0.404   1.509
   36TCM    cl2  501   3.152   0.275   1.261
   36TCM     h1  502   3.243   0.496   1.288
   36TCM    cl3  503   3.433   0.350   1.293
   37TCM     c1  504   4.618   0.741   0.247
   37TCM    cl1  505   4.442   0.775   0.244
   37TCM    cl2  506   4.650   0.606   0.361
   37TCM     h1  507   4.651   0.713   0.147
   37TCM    cl3  508   4.706   0.887   0.301
   38TCM     c1  509   2.526   2.497   2.827
   38TCM    cl1  510   2.610   2.613   2.719
   38TCM    cl2  511   2.465   2.585   2.971
   38TCM     h1  512   2.443   2.450   2.775
   38TCM    cl3  513   2.643   2.372   2.881
   39TCM     c1  514   2.843   3.145   3.379
   39TCM    cl1  515   2.799   2.971   3.365
   39TCM    cl2  516   2.839   3.193   3.552
   39TCM     h1  517   2.943   3.161   3.339
   39TCM    cl3  518   2.723   3.243   3.288
   40TCM     c1  519   0.252   0.560   2.403
   40TCM    cl1  520   0.355   0.671   2.500
   40TCM    cl2  521   0.182   0.650   2.265
   40TCM     h1  522   0.313   0.477   2.366
   40TCM    cl3  523   0.119   0.497   2.505
   41TCM     c1  524   4.742   1.594   1.869
   41TCM    cl1  525   4.901   1.641   1.799
   41TCM    cl2  526   4.621   1.576   1.738
   41TCM     h1  527   4.753   1.500   1.922
   41TCM    cl3  528   4.688   1.722   1.983
   42TCM     c1  529   1.459   3.533   2.298
   42TCM    cl1  530   1.372   3.379   2.268
   42TCM    cl2  531   1.477   3.558   2.475
   42TCM     h1  532   1.557   3.529   2.251
   42TCM    cl3  533   1.363   3.668   2.229
   43TCM     c1  534   3.744   1.288   1.769
   43TCM    cl1  535   3.729   1.449   1.847
   43TCM    cl2  536   3.913   1.232   1.783
   43TCM     h1  537   3.677   1.217   1.819
   43TCM    cl3  538   3.700   1.301   1.596
   44TCM     c1  539   0.447   1.750   1.874
   44TCM    cl1  540   0.586   1.641   1.846
   44TCM    cl2  541   0.320   1.719   1.751
   44TCM     h1  542   0.407   1.733   1.974
   44TCM    cl3  543   0.502   1.921   1.860
   45TCM     c1  544   2.337   3.643   1.705
   45TCM    cl1  545   2.383   3.581   1.867
   45TCM    cl2  546   2.276   3.508   1.604
   45TCM     h1  547   2.260   3.720   1.716
   45TCM    cl3  548   2.481   3.714   1.625
   46TCM     c1  549   0.819   4.223   0.808
   46TCM    cl1  550   0.714   4.211   0.953
   46TCM    cl2  551   0.717   4.215   0.660
   46TCM     h1  552   0.873   4.317   0.810
   46TCM    cl3  553   0.936   4.086   0.807
   47TCM     c1  554   0.130   2.272   4.509
   47TCM    cl1  555   0.223   2.422   4.538
   47TCM    cl2  556   0.214   2.134   4.588
   47TCM     h1  557   0.029   2.282   4.551
   47TCM    cl3  558   0.118   2.243   4.332
   48TCM     c1  559   1.019   3.394   4.566
   48TCM    cl1  560   1.110   3.546   4.535
   48TCM    cl2  561   1.124   3.255   4.524
   48TCM     h1  562   0.990   3.390   4.671
   48TCM    cl3  563   0.872   3.389   4.463
   49TCM     c1  564   0.215   4.183   3.190
   49TCM    cl1  565   0.366   4.086   3.192
   49TCM    cl2  566   0.110   4.132   3.326
   49TCM     h1  567   0.239   4.289   3.199
   49TCM    cl3  568   0.128   4.154   3.035
   50TCM     c1  569   1.153   3.953   2.389
   50TCM    cl1  570   1.271   3.891   2.509
   50TCM    cl2  571   1.241   4.007   2.242
   50TCM     h1  572   1.083   3.874   2.363
   50TCM    cl3  573   1.065   4.092   2.460
   51TCM     c1  574   3.639   3.824   0.029
   51TCM    cl1  575   3.814   3.802   0.065
   51TCM    cl2  576   3.608   3.779  -0.142
   51TCM     h1  577   3.580   3.761   0.095
   51TCM    cl3  578   3.596   3.997   0.054
   52TCM     c1  579   1.279   2.240   2.451
   52TCM    cl1  580   1.218   2.313   2.603
   52TCM    cl2  581   1.346   2.369   2.346
   52TCM     h1  582   1.357   2.168   2.473
   52TCM    cl3  583   1.143   2.158   2.367
   53TCM     c1  584   2.499   2.778   3.438
   53TCM    cl1  585   2.481   2.792   3.261
   53TCM    cl2  586   2.602   2.636   3.477
   53TCM     h1  587   2.546   2.868   3.477
   53TCM    cl3  588   2.338   2.756   3.514
   54TCM     c1  589   0.135   0.181   1.793
   54TCM    cl1  590   0.171   0.107   1.634
   54TCM    cl2  591  -0.042   0.184   1.819
   54TCM     h1  592   0.183   0.122   1.872
   54TCM    cl3  593   0.199   0.348   1.796
   55TCM     c1  594   3.666   2.322   0.703
   55TCM    cl1  595   3.694   2.419   0.852
   55TCM    cl2  596   3.755   2.167   0.716
   55TCM     h1  597   3.559   2.302   0.692
   55TCM    cl3  598   3.726   2.412   0.560
   56TCM     c1  599   4.747   1.473   3.136
   56TCM    cl1  600   4.836   1.323   3.094
   56TCM    cl2  601   4.829   1.554   3.273
   56TCM     h1  602   4.746   1.540   3.049
   56TCM    cl3  603   4.579   1.432   3.183
   57TCM     c1  604   2.173   3.251   2.273
   57TCM    cl1  605   2.305   3.346   2.198
   57TCM    cl2  606   2.154   3.095   2.187
   57TCM     h1  607   2.196   3.232   2.378
   57TCM    cl3  608   2.019   3.344   2.263
   58TCM     c1  609   3.702   3.562   4.363
   58TCM    cl1  610   3.879   3.586   4.383
   58TCM    cl2  611   3.645   3.671   4.232
   58TCM     h1  612   3.681   3.458   4.337
   58TCM    cl3  613   3.620   3.604   4.517
   59TCM     c1  614   4.542   0.287   4.456
   59TCM    cl1  615   4.414   0.168   4.419
   59TCM    cl2  616   4.702   0.205   4.455
   59TCM     h1  617   4.541   0.366   4.380
   59TCM    cl3  618   4.514   0.360   4.618
   60TCM     c1  619   3.815   4.332   1.009
   60TCM    cl1  620   3.649   4.264   1.002
   60TCM    cl2  621   3.868   4.340   1.180
   60TCM     h1  622   3.883   4.269   0.952
   60TCM    cl3  623   3.815   4.497   0.939
   61TCM     c1  624   4.435   4.206   4.786
   61TCM    cl1  625   4.353   4.234   4.629
   61TCM    cl2  626   4.311   4.204   4.917
   61TCM     h1  627   4.488   4.110   4.784
   61TCM    cl3  628   4.551   4.339   4.816
   62TCM     c1  629   4.108   4.036   1.467
   62TCM    cl1  630   4.121   3.943   1.620
   62TCM    cl2  631   3.938   4.087   1.441
   62TCM     h1  632   4.172   4.125   1.473
   62TCM    cl3  633   4.161   3.934   1.330
   63TCM     c1  634   3.790   3.680   3.351
   63TCM    cl1  635   3.921   3.783   3.284
   63TCM    cl2  636   3.631   3.759   3.327
   63TCM     h1  637   3.790   3.583   3.301
   63TCM    cl3  638   3.820   3.657   3.527
   64TCM     c1  639   0.447   0.356   3.081
   64TCM    cl1  640   0.283   0.357   3.154
   64TCM    cl2  641   0.567   0.307   3.205
   64TCM     h1  642   0.449   0.286   2.998
   64TCM    cl3  643   0.485   0.521   3.022
   65TCM     c1  644   2.955   2.245   2.725
   65TCM    cl1  645   3.117   2.188   2.673
   65TCM    cl2  646   2.834   2.118   2.688
   65TCM     h1  647   2.956   2.264   2.833
   65TCM    cl3  648   2.915   2.395   2.637
   66TCM     c1  649   3.332   2.047   2.224
   66TCM    cl1  650   3.475   2.132   2.155
   66TCM    cl2  651   3.343   2.048   2.402
   66TCM     h1  652   3.241   2.097   2.192
   66TCM    cl3  653   3.330   1.877   2.166
   67TCM     c1  654   0.081   0.254   2.219
   67TCM    cl1  655  -0.040   0.368   2.151
   67TCM    cl2  656   0.243   0.296   2.153
   67TCM     h1  657   0.083   0.263   2.328
   67TCM    cl3  658   0.040   0.086   2.173
   68TCM     c1  659   0.481   4.781   2.628
   68TCM    cl1  660   0.319   4.735   2.566
   68TCM    cl2  661   0.560   4.891   2.511
   68TCM     h1  662   0.470   4.831   2.724
   68TCM    cl3  663   0.581   4.633   2.649
   69TCM     c1  664   4.997   3.453   0.762
   69TCM    cl1  665   4.822   3.453   0.801
   69TCM    cl2  666   5.053   3.621   0.738
   69TCM     h1  667   5.052   3.407   0.844
   69TCM    cl3  668   5.024   3.360   0.611
   70TCM     c1  669   1.653   3.015   0.432
   70TCM    cl1  670   1.720   3.071   0.276
   70TCM    cl2  671   1.553   3.144   0.504
   70TCM     h1  672   1.592   2.925   0.416
   70TCM    cl3  673   1.789   2.976   0.544
   71TCM     c1  674   2.552   4.122   4.065
   71TCM    cl1  675   2.531   4.295   4.108
   71TCM    cl2  676   2.502   4.021   4.205
   71TCM     h1  677   2.490   4.098   3.979
   71TCM    cl3  678   2.724   4.090   4.028
   72TCM     c1  679   4.958   1.349   4.832
   72TCM    cl1  680   4.826   1.264   4.918
   72TCM    cl2  681   4.925   1.346   4.656
   72TCM     h1  682   4.964   1.453   4.866
   72TCM    cl3  683   5.114   1.267   4.866
   73TCM     c1  684   2.943   4.373   4.169
   73TCM    cl1  685   2.853   4.516   4.109
   73TCM    cl2  686   2.854   4.303   4.308
   73TCM     h1  687   2.951   4.299   4.088
   73TCM    cl3  688   3.107   4.424   4.222
   74TCM     c1  689   3.725   3.760   1.870
   74TCM    cl1  690   3.602   3.820   1.754
   74TCM    cl2  691   3.861   3.876   1.877
   74TCM     h1  692   3.680   3.750   1.970
   74TCM    cl3  693   3.786   3.600   1.816
   75TCM     c1  694   0.877   4.863   3.134
   75TCM    cl1  695   0.810   4.778   2.991
   75TCM    cl2  696   0.788   4.813   3.281
   75TCM     h1  697   0.983   4.838   3.144
   75TCM    cl3  698   0.860   5.041   3.114
   76TCM     c1  699   2.669   0.126   3.651
   76TCM    cl1  700   2.793   0.114   3.780
   76TCM    cl2  701   2.560   0.263   3.688
   76TCM     h1  702   2.718   0.144   3.555
   76TCM    cl3  703   2.576  -0.026   3.644
   77TCM     c1  704   0.169   3.265   0.249
   77TCM    cl1  705   0.151   3.115   0.345
   77TCM    cl2  706   0.283   3.376   0.332
   77TCM     h1  707   0.208   3.241   0.150
   77TCM    cl3  708   0.009   3.345   0.235
   78TCM     c1  709   2.784   0.862   3.875
   78TCM    cl1  710   2.811   0.848   3.699
   78TCM    cl2  711   2.749   1.033   3.917
   78TCM     h1  712   2.700   0.799   3.904
   78TCM    cl3  713   2.932   0.809   3.962
   79TCM     c1  714   4.630   4.722   0.963
   79TCM    cl1  715   4.736   4.860   1.007
   79TCM    cl2  716   4.510   4.697   1.094
   79TCM     h1  717   4.579   4.743   0.869
   79TCM    cl3  718   4.732   4.575   0.945
   80TCM     c1  719   0.161   4.238   0.186
   80TCM    cl1  720   0.322   4.250   0.264
   80TCM    cl2  721   0.098   4.071   0.203
   80TCM     h1  722   0.092   4.308   0.233
   80TCM    cl3  723   0.177   4.277   0.011
   81TCM     c1  724   2.614   3.162   1.996
   81TCM    cl1  725   2.641   3.327   2.061
   81TCM    cl2  726   2.533   3.062   2.120
   81TCM     h1  727   2.551   3.168   1.906
   81TCM    cl3  728   2.772   3.090   1.954
   82TCM     c1  729   0.360   2.563   0.628
   82TCM    cl1  730   0.420   2.470   0.487
   82TCM    cl2  731   0.398   2.737   0.607
   82TCM     h1  732   0.252   2.550   0.637
   82TCM    cl3  733   0.441   2.504   0.776
   83TCM     c1  734   3.193   3.293   0.747
   83TCM    cl1  735   3.354   3.231   0.697
   83TCM    cl2  736   3.206   3.366   0.911
   83TCM     h1  737   3.159   3.369   0.676
   83TCM    cl3  738   3.075   3.157   0.752
   84TCM     c1  739   3.111   2.769   4.757
   84TCM    cl1  740   3.192   2.836   4.612
   84TCM    cl2  741   3.209   2.634   4.825
   84TCM     h1  742   3.100   2.847   4.833
   84TCM    cl3  743   2.948   2.707   4.712
   85TCM     c1  744   0.895   0.850   1.833
   85TCM    cl1  745   1.074   0.861   1.827
   85TCM    cl2  746   0.841   0.717   1.724
   85TCM     h1  747   0.863   0.828   1.935
   85TCM    cl3  748   0.824   1.005   1.779
   86TCM     c1  749   2.010   2.269   4.733
   86TCM    cl1  750   2.003   2.347   4.895
   86TCM    cl2  751   1.848   2.274   4.657
   86TCM     h1  752   2.082   2.323   4.670
   86TCM    cl3  753   2.062   2.099   4.751
   87TCM     c1  754   2.294   3.693   3.908
   87TCM    cl1  755   2.120   3.653   3.897
   87TCM    cl2  756   2.315   3.872   3.913
   87TCM     h1  757   2.336   3.649   3.999
   87TCM    cl3  758   2.380   3.628   3.764
   88TCM     c1  759   0.713   4.972   4.714
   88TCM    cl1  760   0.771   5.130   4.649
   88TCM    cl2  761   0.550   4.937   4.649
   88TCM     h1  762   0.782   4.893   4.685
   88TCM    cl3  763   0.703   4.981   4.893
   89TCM     c1  764   0.882   0.211   2.799
   89TCM    cl1  765   0.818   0.067   2.712
   89TCM    cl2  766   0.744   0.303   2.867
   89TCM     h1  767   0.948   0.179   2.880
   89TCM    cl3  768   0.972   0.315   2.685
   90TCM     c1  769   4.460   2.955   3.217
   90TCM    cl1  770   4.483   2.803   3.310
   90TCM    cl2  771   4.600   3.062   3.248
   90TCM     h1  772   4.453   2.933   3.110
   90TCM    cl3  773   4.311   3.037   3.272
   91TCM     c1  774   3.489   4.520   0.230
   91TCM    cl1  775   3.408   4.464   0.380
   91TCM    cl2  776   3.370   4.606   0.127
   91TCM     h1  777   3.571   4.587   0.255
   91TCM    cl3  778   3.553   4.378   0.140
   92TCM     c1  779   1.641   4.574   3.423
   92TCM    cl1  780   1.751   4.435   3.398
   92TCM    cl2  781   1.709   4.718   3.339
   92TCM     h1  782   1.542   4.551   3.383
   92TCM    cl3  783   1.626   4.608   3.599
   93TCM     c1  784   0.902   0.102   3.937
   93TCM    cl1  785   0.765   0.128   4.050
   93TCM    cl2  786   0.929   0.249   3.839
   93TCM     h1  787   0.993   0.078   3.994
   93TCM    cl3  788   0.861  -0.035   3.829
   94TCM     c1  789   2.029   4.435   2.363
   94TCM    cl1  790   2.100   4.439   2.198
   94TCM    cl2  791   2.160   4.457   2.484
   94TCM     h1  792   1.956   4.515   2.373
   94TCM    cl3  793   1.949   4.276   2.390
   95TCM     c1  794   4.237   3.458   1.822
   95TCM    cl1  795   4.092   3.364   1.777
   95TCM    cl2  796   4.202   3.633   1.803
   95TCM     h1  797   4.264   3.437   1.925
   95TCM    cl3  798   4.373   3.413   1.713
   96TCM     c1  799   1.690   1.280   4.817
   96TCM    cl1  800   1.759   1.252   4.980
   96TCM    cl2  801   1.587   1.140   4.771
   96TCM     h1  802   1.629   1.371   4.819
   96TCM    cl3  803   1.822   1.298   4.698
   97TCM     c1  804   0.014   0.451   0.120
   97TCM    cl1  805  -0.122   0.559   0.080
   97TCM    cl2  806  -0.014   0.379   0.282
   97TCM     h1  807   0.022   0.372   0.045
   97TCM    cl3  808   0.166   0.547   0.124
   98TCM     c1  809   2.941   4.523   1.271
   98TCM    cl1  810   3.081   4.587   1.178
   98TCM    cl2  811   2.939   4.344   1.261
   98TCM     h1  812   2.950   4.554   1.375
   98TCM    cl3  813   2.789   4.587   1.201
   99TCM     c1  814   4.403   2.365   3.109
   99TCM    cl1  815   4.291   2.229   3.143
   99TCM    cl2  816   4.321   2.520   3.143
   99TCM     h1  817   4.492   2.356   3.172
   99TCM    cl3  818   4.452   2.359   2.936
  100TCM     c1  819   4.229   0.081   3.796
  100TCM    cl1  820   4.087   0.137   3.892
  100TCM    cl2  821   4.186  -0.068   3.708
  100TCM     h1  822   4.256   0.159   3.724
  100TCM    cl3  823   4.367   0.048   3.906
  101TCM     c1  824   3.881   0.336   3.618
  101TCM    cl1  825   3.811   0.171   3.617
  101TCM    cl2  826   3.790   0.439   3.502
  101TCM     h1  827   3.874   0.379   3.718
  101TCM    cl3  828   4.053   0.330   3.567
  102TCM     c1  829   2.000   4.541   3.055
  102TCM    cl1  830   2.022   4.437   2.910
  102TCM    cl2  831   1.981   4.712   3.005
  102TCM     h1  832   1.911   4.509   3.110
  102TCM    cl3  833   2.144   4.525   3.159
  103TCM     c1  834   0.447   3.884   3.481
  103TCM    cl1  835   0.319   3.777   3.416
  103TCM    cl2  836   0.546   3.796   3.602
  103TCM     h1  837   0.512   3.918   3.398
  103TCM    cl3  838   0.373   4.027   3.560
  104TCM     c1  839   0.459   1.547   4.796
  104TCM    cl1  840   0.609   1.462   4.745
  104TCM    cl2  841   0.405   1.483   4.954
  104TCM     h1  842   0.479   1.654   4.804
  104TCM    cl3  843   0.330   1.519   4.675
  105TCM     c1  844   1.125   4.990   4.952
  105TCM    cl1  845   1.086   5.034   5.122
  105TCM    cl2  846   1.080   5.126   4.844
  105TCM     h1  847   1.233   4.970   4.944
  105TCM    cl3  848   1.032   4.844   4.905
  106TCM     c1  849   0.091   3.618   1.486
  106TCM    cl1  850   0.104   3.654   1.661
  106TCM    cl2  851   0.078   3.441   1.461
  106TCM     h1  852   0.002   3.667   1.445
  106TCM    cl3  853   0.236   3.680   1.402
  107TCM     c1  854   4.742   1.216   2.141
  107TCM    cl1  855   4.626   1.345   2.184
  107TCM    cl2  856   4.777   1.225   1.965
  107TCM     h1  857   4.835   1.230   2.197
  107TCM    cl3  858   4.673   1.056   2.180
  108TCM     c1  859   4.098   3.882   0.989
  108TCM    cl1  860   4.168   3.836   0.830
  108TCM    cl2  861   3.996   3.748   1.051
  108TCM     h1  862   4.178   3.902   1.060
  108TCM    cl3  863   3.996   4.028   0.969
  109TCM     c1  864   4.450   3.842   0.278
  109TCM    cl1  865   4.287   3.769   0.289
  109TCM    cl2  866   4.469   3.966   0.406
  109TCM     h1  867   4.526   3.764   0.292
  109TCM    cl3  868   4.472   3.918   0.117
  110TCM     c1  869   2.185   4.285   0.884
  110TCM    cl1  870   2.109   4.182   0.758
  110TCM    cl2  871   2.307   4.190   0.974
  110TCM     h1  872   2.233   4.371   0.836
  110TCM    cl3  873   2.058   4.344   0.997
  111TCM     c1  874   0.480   3.107   3.909
  111TCM    cl1  875   0.382   3.253   3.941
  111TCM    cl2  876   0.607   3.148   3.788
  111TCM     h1  877   0.528   3.073   4.001
  111TCM    cl3  878   0.374   2.979   3.843
  112TCM     c1  879   2.800   4.592   1.793
  112TCM    cl1  880   2.690   4.719   1.732
  112TCM    cl2  881   2.887   4.515   1.655
  112TCM     h1  882   2.873   4.636   1.862
  112TCM    cl3  883   2.705   4.467   1.879
  113TCM     c1  884   2.439   4.412   3.316
  113TCM    cl1  885   2.590   4.322   3.350
  113TCM    cl2  886   2.475   4.588   3.314
  113TCM     h1  887   2.399   4.382   3.219
  113TCM    cl3  888   2.319   4.378   3.445
  114TCM     c1  889   3.397   3.236   4.619
  114TCM    cl1  890   3.375   3.387   4.713
  114TCM    cl2  891   3.556   3.240   4.534
  114TCM     h1  892   3.395   3.150   4.686
  114TCM    cl3  893   3.266   3.221   4.498
  115TCM     c1  894   1.457   4.688   4.650
  115TCM    cl1  895   1.406   4.650   4.482
  115TCM    cl2  896   1.339   4.801   4.724
  115TCM     h1  897   1.461   4.596   4.709
  115TCM    cl3  898   1.619   4.765   4.648
  116TCM     c1  899   3.284   3.621   1.701
  116TCM    cl1  900   3.137   3.609   1.804
  116TCM    cl2  901   3.241   3.582   1.531
  116TCM     h1  902   3.325   3.722   1.707
  116TCM    cl3  903   3.406   3.504   1.760
  117TCM     c1  904   4.955   2.327   1.820
  117TCM    cl1  905   5.106   2.416   1.861
  117TCM    cl2  906   4.917   2.356   1.647
  117TCM     h1  907   4.969   2.220   1.838
  117TCM    cl3  908   4.821   2.388   1.923
  118TCM     c1  909   1.586   0.002   3.151
  118TCM    cl1  910   1.473  -0.117   3.078
  118TCM    cl2  911   1.503   0.161   3.164
  118TCM     h1  912   1.616  -0.032   3.250
  118TCM    cl3  913   1.731   0.018   3.047
  119TCM     c1  914   1.286   4.188   3.396
  119TCM    cl1  915   1.114   4.179   3.444
  119TCM    cl2  916   1.352   4.350   3.438
  119TCM     h1  917   1.343   4.111   3.448
  119TCM    cl3  918   1.300   4.164   3.219
  120TCM     c1  919   1.208   3.154   3.538
  120TCM    cl1  920   1.252   2.986   3.583
  120TCM    cl2  921   1.195   3.166   3.359
  120TCM     h1  922   1.113   3.180   3.584
  120TCM    cl3  923   1.336   3.265   3.597
  121TCM     c1  924   4.861   2.011   2.245
  121TCM    cl1  925   4.905   2.022   2.071
  121TCM    cl2  926   4.877   1.842   2.302
  121TCM     h1  927   4.927   2.075   2.303
  121TCM    cl3  928   4.692   2.066   2.267
  122TCM     c1  929   4.472   3.007   4.121
  122TCM    cl1  930   4.490   3.003   3.943
  122TCM    cl2  931   4.298   3.006   4.162
  122TCM     h1  932   4.521   2.920   4.165
  122TCM    cl3  933   4.547   3.158   4.184
  123TCM     c1  934   1.160   4.832   3.421
  123TCM    cl1  935   1.145   4.913   3.580
  123TCM    cl2  936   1.301   4.722   3.421
  123TCM     h1  937   1.069   4.775   3.401
  123TCM    cl3  938   1.182   4.957   3.293
  124TCM     c1  939   4.459   3.572   2.622
  124TCM    cl1  940   4.338   3.465   2.698
  124TCM    cl2  941   4.376   3.697   2.523
  124TCM     h1  942   4.520   3.621   2.699
  124TCM    cl3  943   4.565   3.474   2.515
  125TCM     c1  944   4.459   0.795   3.602
  125TCM    cl1  945   4.637   0.811   3.620
  125TCM    cl2  946   4.383   0.803   3.764
  125TCM     h1  947   4.422   0.877   3.540
  125TCM    cl3  948   4.420   0.638   3.525
  126TCM     c1  949   3.621   1.694   2.363
  126TCM    cl1  950   3.679   1.855   2.310
  126TCM    cl2  951   3.564   1.601   2.220
  126TCM     h1  952   3.702   1.639   2.412
  126TCM    cl3  953   3.486   1.714   2.480
  127TCM     c1  954   4.946   3.804   3.174
  127TCM    cl1  955   4.815   3.914   3.118
  127TCM    cl2  956   4.913   3.638   3.115
  127TCM     h1  957   5.042   3.839   3.135
  127TCM    cl3  958   4.950   3.805   3.353
  128TCM     c1  959   0.199   1.468   0.245
  128TCM    cl1  960   0.180   1.566   0.394
  128TCM    cl2  961   0.037   1.432   0.176
  128TCM     h1  962   0.258   1.524   0.172
  128TCM    cl3  963   0.280   1.313   0.283
  129TCM     c1  964   3.549   1.865   3.366
  129TCM    cl1  965   3.416   1.826   3.480
  129TCM    cl2  966   3.549   2.041   3.330
  129TCM     h1  967   3.645   1.837   3.412
  129TCM    cl3  968   3.525   1.772   3.215
  130TCM     c1  969   3.073   4.426   3.662
  130TCM    cl1  970   2.986   4.376   3.810
  130TCM    cl2  971   3.193   4.299   3.620
  130TCM     h1  972   3.002   4.438   3.580
  130TCM    cl3  973   3.160   4.579   3.693
  131TCM     c1  974   0.258   2.534   4.861
  131TCM    cl1  975   0.350   2.548   5.014
  131TCM    cl2  976   0.231   2.697   4.793
  131TCM     h1  977   0.314   2.472   4.790
  131TCM    cl3  978   0.098   2.458   4.893
  132TCM     c1  979   0.754   4.263   4.898
  132TCM    cl1  980   0.853   4.125   4.956
  132TCM    cl2  981   0.714   4.239   4.725
  132TCM     h1  982   0.662   4.269   4.957
  132TCM    cl3  983   0.849   4.414   4.916
  133TCM     c1  984   4.699   4.180   0.210
  133TCM    cl1  985   4.800   4.252   0.339
  133TCM    cl2  986   4.786   4.188   0.053
  133TCM     h1  987   4.677   4.076   0.234
  133TCM    cl3  988   4.546   4.273   0.198
  134TCM     c1  989   0.568   1.105   0.224
  134TCM    cl1  990   0.574   1.187   0.064
  134TCM    cl2  991   0.647   1.208   0.348
  134TCM     h1  992   0.464   1.088   0.252
  134TCM    cl3  993   0.654   0.948   0.212
  135TCM     c1  994   2.230   0.212   2.961
  135TCM    cl1  995   2.121   0.115   3.066
  135TCM    cl2  996   2.316   0.103   2.847
  135TCM     h1  997   2.170   0.284   2.904
  135TCM    cl3  998   2.349   0.301   3.061
  136TCM     c1  999   0.104   1.143   2.921
  136TCM    cl1 1000   0.244   1.033   2.946
  136TCM    cl2 1001  -0.026   1.055   2.833
  136TCM     h1 1002   0.067   1.177   3.017
  136TCM    cl3 1003   0.155   1.283   2.822
  137TCM     c1 1004   0.399   3.891   4.993
  137TCM    cl1 1005   0.473   4.054   4.993
  137TCM    cl2 1006   0.375   3.835   5.162
  137TCM     h1 1007   0.465   3.821   4.941
  137TCM    cl3 1008   0.240   3.898   4.909
  138TCM     c1 1009   4.253   1.116   1.991
  138TCM    cl1 1010   4.292   1.142   2.165
  138TCM    cl2 1011   4.141   0.976   1.976
  138TCM     h1 1012   4.205   1.205   1.951
  138TCM    cl3 1013   4.404   1.082   1.900
  139TCM     c1 1014   1.515   4.816   1.564
  139TCM    cl1 1015   1.591   4.901   1.426
  139TCM    cl2 1016   1.508   4.926   1.706
  139TCM     h1 1017   1.413   4.786   1.537
  139TCM    cl3 1018   1.611   4.670   1.606
  140TCM     c1 1019   4.772   4.586   3.464
  140TCM    cl1 1020   4.601   4.611   3.417
  140TCM    cl2 1021   4.799   4.646   3.631
  140TCM     h1 1022   4.796   4.479   3.459
  140TCM    cl3 1023   4.878   4.676   3.350
  141TCM     c1 1024   2.174   2.076   2.865
  141TCM    cl1 1025   2.195   1.898   2.870
  141TCM    cl2 1026   2.003   2.114   2.824
  141TCM     h1 1027   2.197   2.118   2.963
  141TCM    cl3 1028   2.283   2.146   2.742
  142TCM     c1 1029   2.535   3.019   3.762
  142TCM    cl1 1030   2.476   3.091   3.608
  142TCM    cl2 1031   2.673   2.910   3.727
  142TCM     h1 1032   2.567   3.099   3.829
  142TCM    cl3 1033   2.403   2.925   3.839
  143TCM     c1 1034   0.377   0.791   3.250
  143TCM    cl1 1035   0.497   0.698   3.345
  143TCM    cl2 1036   0.361   0.957   3.317
  143TCM     h1 1037   0.409   0.797   3.145
  143TCM    cl3 1038   0.218   0.708   3.259
  144TCM     c1 1039   0.855   3.831   2.079
  144TCM    cl1 1040   0.850   3.990   2.162
  144TCM    cl2 1041   0.703   3.743   2.116
  144TCM     h1 1042   0.865   3.845   1.971
  144TCM    cl3 1043   0.993   3.736   2.142
  145TCM     c1 1044   3.596   3.837   2.317
  145TCM    cl1 1045   3.619   3.962   2.189
  145TCM    cl2 1046   3.692   3.882   2.461
  145TCM     h1 1047   3.491   3.830   2.343
  145TCM    cl3 1048   3.654   3.679   2.254
  146TCM     c1 1049   0.586   3.668   3.129
  146TCM    cl1 1050   0.638   3.627   3.296
  146TCM    cl2 1051   0.672   3.562   3.013
  146TCM     h1 1052   0.478   3.654   3.120
  146TCM    cl3 1053   0.628   3.840   3.097
  147TCM     c1 1054   1.860   3.597   1.778
  147TCM    cl1 1055   2.000   3.678   1.855
  147TCM    cl2 1056   1.918   3.491   1.645
  147TCM     h1 1057   1.807   3.537   1.852
  147TCM    cl3 1058   1.748   3.720   1.710
  148TCM     c1 1059   1.318   1.051   1.590
  148TCM    cl1 1060   1.173   1.157   1.584
  148TCM    cl2 1061   1.456   1.139   1.664
  148TCM     h1 1062   1.295   0.963   1.651
  148TCM    cl3 1063   1.363   1.001   1.424
  149TCM     c1 1064   3.824   4.784   3.847
  149TCM    cl1 1065   3.756   4.935   3.918
  149TCM    cl2 1066   3.976   4.740   3.931
  149TCM     h1 1067   3.752   4.703   3.858
  149TCM    cl3 1068   3.856   4.810   3.672
  150TCM     c1 1069   0.213   4.285   4.639
  150TCM    cl1 1070   0.302   4.436   4.678
  150TCM    cl2 1071   0.325   4.145   4.648
  150TCM     h1 1072   0.131   4.271   4.711
  150TCM    cl3 1073   0.145   4.296   4.473
  151TCM     c1 1074   1.179   1.344   4.756
  151TCM    cl1 1075   1.211   1.209   4.869
  151TCM    cl2 1076   1.335   1.409   4.695
  151TCM     h1 1077   1.119   1.308   4.672
  151TCM    cl3 1078   1.090   1.474   4.842
  152TCM     c1 1079   2.734   2.633   0.107
  152TCM    cl1 1080   2.890   2.569   0.045
  152TCM    cl2 1081   2.623   2.498   0.143
  152TCM     h1 1082   2.753   2.691   0.199
  152TCM    cl3 1083   2.658   2.739  -0.016
  153TCM     c1 1084   3.457   1.433   3.086
  153TCM    cl1 1085   3.525   1.413   3.251
  153TCM    cl2 1086   3.289   1.369   3.083
  153TCM     h1 1087   3.456   1.539   3.059
  153TCM    cl3 1088   3.558   1.343   2.968
  154TCM     c1 1089   3.523   0.044   1.797
  154TCM    cl1 1090   3.556  -0.121   1.736
  154TCM    cl2 1091   3.475   0.035   1.970
  154TCM     h1 1092   3.613   0.106   1.787
  154TCM    cl3 1093   3.388   0.117   1.703
  155TCM     c1 1094   4.047   2.334   0.944
  155TCM    cl1 1095   4.057   2.371   0.769
  155TCM    cl2 1096   4.201   2.382   1.022
  155TCM     h1 1097   3.964   2.389   0.989
  155TCM    cl3 1098   4.022   2.157   0.967
  156TCM     c1 1099   2.945   3.798   2.646
  156TCM    cl1 1100   2.977   3.945   2.744
  156TCM    cl2 1101   3.054   3.666   2.700
  156TCM     h1 1102   2.841   3.767   2.659
  156TCM    cl3 1103   2.977   3.834   2.473
  157TCM     c1 1104   2.115   2.224   4.040
  157TCM    cl1 1105   1.992   2.353   4.021
  157TCM    cl2 1106   2.159   2.161   3.878
  157TCM     h1 1107   2.204   2.265   4.089
  157TCM    cl3 1108   2.046   2.092   4.138
  158TCM     c1 1109   0.842   1.746   4.844
  158TCM    cl1 1110   0.953   1.799   4.974
  158TCM    cl2 1111   0.915   1.780   4.684
  158TCM     h1 1112   0.823   1.639   4.853
  158TCM    cl3 1113   0.687   1.836   4.859
  159TCM     c1 1114   2.299   4.357   4.455
  159TCM    cl1 1115   2.195   4.264   4.569
  159TCM    cl2 1116   2.464   4.287   4.459
  159TCM     h1 1117   2.259   4.350   4.354
  159TCM    cl3 1118   2.304   4.528   4.508
  160TCM     c1 1119   2.218   4.748   4.795
  160TCM    cl1 1120   2.227   4.645   4.942
  160TCM    cl2 1121   2.384   4.790   4.742
  160TCM     h1 1122   2.167   4.693   4.715
  160TCM    cl3 1123   2.127   4.898   4.833
  161TCM     c1 1124   3.863   3.895   4.579
  161TCM    cl1 1125   3.720   3.944   4.484
  161TCM    cl2 1126   3.880   3.999   4.724
  161TCM     h1 1127   3.852   3.791   4.610
  161TCM    cl3 1128   4.010   3.912   4.477
  162TCM     c1 1129   1.834   1.825   4.988
  162TCM    cl1 1130   1.666   1.851   5.048
  162TCM    cl2 1131   1.884   1.658   5.029
  162TCM     h1 1132   1.836   1.839   4.880
  162TCM    cl3 1133   1.944   1.943   5.067
  163TCM     c1 1134   2.237   1.811   2.036
  163TCM    cl1 1135   2.097   1.817   1.923
  163TCM    cl2 1136   2.176   1.797   2.204
  163TCM     h1 1137   2.299   1.724   2.012
  163TCM    cl3 1138   2.334   1.961   2.021
  164TCM     c1 1139   2.789   2.532   0.651
  164TCM    cl1 1140   2.820   2.533   0.475
  164TCM    cl2 1141   2.762   2.362   0.704
  164TCM     h1 1142   2.875   2.573   0.704
  164TCM    cl3 1143   2.644   2.630   0.688
  165TCM     c1 1144   1.359   2.820   4.998
  165TCM    cl1 1145   1.466   2.844   5.140
  165TCM    cl2 1146   1.429   2.695   4.890
  165TCM     h1 1147   1.261   2.787   5.032
  165TCM    cl3 1148   1.342   2.974   4.908
  166TCM     c1 1149   4.840   4.306   2.610
  166TCM    cl1 1150   4.824   4.151   2.521
  166TCM    cl2 1151   4.964   4.408   2.530
  166TCM     h1 1152   4.744   4.359   2.609
  166TCM    cl3 1153   4.890   4.273   2.779
  167TCM     c1 1154   3.103   0.259   4.806
  167TCM    cl1 1155   2.928   0.234   4.776
  167TCM    cl2 1156   3.191   0.255   4.649
  167TCM     h1 1157   3.119   0.356   4.855
  167TCM    cl3 1158   3.165   0.127   4.911
  168TCM     c1 1159   3.925   3.828   4.013
  168TCM    cl1 1160   4.041   3.962   4.042
  168TCM    cl2 1161   4.004   3.672   4.054
  168TCM     h1 1162   3.836   3.842   4.075
  168TCM    cl3 1163   3.878   3.827   3.840
  169TCM     c1 1164   1.706   1.759   0.403
  169TCM    cl1 1165   1.866   1.841   0.410
  169TCM    cl2 1166   1.626   1.769   0.563
  169TCM     h1 1167   1.644   1.807   0.327
  169TCM    cl3 1168   1.731   1.586   0.361
  170TCM     c1 1169   2.611   0.060   4.995
  170TCM    cl1 1170   2.649   0.020   4.824
  170TCM    cl2 1171   2.447   0.000   5.036
  170TCM     h1 1172   2.685   0.014   5.061
  170TCM    cl3 1173   2.617   0.239   5.016
  171TCM     c1 1174   2.642   2.662   1.915
  171TCM    cl1 1175   2.517   2.535   1.900
  171TCM    cl2 1176   2.658   2.710   2.087
  171TCM     h1 1177   2.738   2.624   1.879
  171TCM    cl3 1178   2.593   2.805   1.818
  172TCM     c1 1179   1.069   4.604   1.569
  172TCM    cl1 1180   1.203   4.658   1.676
  172TCM    cl2 1181   0.948   4.735   1.557
  172TCM     h1 1182   1.109   4.582   1.470
  172TCM    cl3 1183   0.993   4.455   1.636
  173TCM     c1 1184   4.164   2.363   4.349
  173TCM    cl1 1185   4.323   2.386   4.268
  173TCM    cl2 1186   4.156   2.469   4.494
  173TCM     h1 1187   4.083   2.389   4.280
  173TCM    cl3 1188   4.149   2.192   4.401
  174TCM     c1 1189   1.865   4.434   4.679
  174TCM    cl1 1190   1.913   4.475   4.511
  174TCM    cl2 1191   1.690   4.394   4.682
  174TCM     h1 1192   1.923   4.348   4.713
  174TCM    cl3 1193   1.896   4.575   4.785
  175TCM     c1 1194   3.394   3.631   0.487
  175TCM    cl1 1195   3.539   3.674   0.389
  175TCM    cl2 1196   3.444   3.592   0.655
  175TCM     h1 1197   3.324   3.715   0.488
  175TCM    cl3 1198   3.314   3.487   0.416
  176TCM     c1 1199   4.667   0.865   0.696
  176TCM    cl1 1200   4.507   0.833   0.622
  176TCM    cl2 1201   4.761   0.713   0.705
  176TCM     h1 1202   4.721   0.937   0.634
  176TCM    cl3 1203   4.645   0.932   0.861
  177TCM     c1 1204   4.260   1.519   1.827
  177TCM    cl1 1205   4.099   1.593   1.858
  177TCM    cl2 1206   4.240   1.374   1.724
  177TCM     h1 1207   4.325   1.591   1.777
  177TCM    cl3 1208   4.333   1.471   1.984
  178TCM     c1 1209   3.987   1.492   4.820
  178TCM    cl1 1210   4.123   1.582   4.894
  178TCM    cl2 1211   3.918   1.379   4.941
  178TCM     h1 1212   3.910   1.562   4.788
  178TCM    cl3 1213   4.047   1.400   4.679
  179TCM     c1 1214   4.199   3.001   4.563
  179TCM    cl1 1215   4.323   3.123   4.518
  179TCM    cl2 1216   4.062   3.010   4.448
  179TCM     h1 1217   4.243   2.901   4.559
  179TCM    cl3 1218   4.140   3.034   4.729
  180TCM     c1 1219   0.979   4.630   3.740
  180TCM    cl1 1220   0.864   4.674   3.610
  180TCM    cl2 1221   1.111   4.530   3.673
  180TCM     h1 1222   1.020   4.721   3.785
  180TCM    cl3 1223   0.892   4.537   3.866
  181TCM     c1 1224   3.412   4.987   1.262
  181TCM    cl1 1225   3.536   4.998   1.391
  181TCM    cl2 1226   3.287   4.866   1.308
  181TCM     h1 1227   3.364   5.084   1.248
  181TCM    cl3 1228   3.490   4.935   1.109
  182TCM     c1 1229   1.229   4.739   4.125
  182TCM    cl1 1230   1.099   4.637   4.195
  182TCM    cl2 1231   1.161   4.835   3.990
  182TCM     h1 1232   1.268   4.806   4.202
  182TCM    cl3 1233   1.361   4.635   4.063
  183TCM     c1 1234   2.343   0.506   4.207
  183TCM    cl1 1235   2.377   0.499   4.383
  183TCM    cl2 1236   2.494   0.474   4.116
  183TCM     h1 1237   2.268   0.431   4.181
  183TCM    cl3 1238   2.280   0.668   4.164
  184TCM     c1 1239   4.295   4.192   0.645
  184TCM    cl1 1240   4.352   4.320   0.533
  184TCM    cl2 1241   4.181   4.262   0.764
  184TCM     h1 1242   4.246   4.113   0.588
  184TCM    cl3 1243   4.437   4.123   0.731
  185TCM     c1 1244   0.061   1.129   0.572
  185TCM    cl1 1245  -0.004   1.287   0.517
  185TCM    cl2 1246  -0.035   1.073   0.713
  185TCM     h1 1247   0.053   1.056   0.491
  185TCM    cl3 1248   0.233   1.149   0.619
  186TCM     c1 1249   4.906   3.887   4.749
  186TCM    cl1 1250   4.928   4.064   4.725
  186TCM    cl2 1251   4.835   3.815   4.601
  186TCM     h1 1252   5.003   3.841   4.769
  186TCM    cl3 1253   4.796   3.857   4.888
  187TCM     c1 1254   0.699   0.558   2.512
  187TCM    cl1 1255   0.695   0.609   2.684
  187TCM    cl2 1256   0.647   0.386   2.501
  187TCM     h1 1257   0.633   0.621   2.454
  187TCM    cl3 1258   0.867   0.573   2.449
  188TCM     c1 1259   4.943   1.115   3.423
  188TCM    cl1 1260   5.024   1.272   3.456
  188TCM    cl2 1261   5.003   1.048   3.268
  188TCM     h1 1262   4.964   1.045   3.504
  188TCM    cl3 1263   4.765   1.142   3.411
  189TCM     c1 1264   4.974   4.430   0.705
  189TCM    cl1 1265   4.874   4.283   0.725
  189TCM    cl2 1266   5.025   4.446   0.533
  189TCM     h1 1267   4.915   4.517   0.733
  189TCM    cl3 1268   5.119   4.418   0.810
  190TCM     c1 1269   0.674   3.443   0.448
  190TCM    cl1 1270   0.660   3.311   0.327
  190TCM    cl2 1271   0.575   3.583   0.398
  190TCM     h1 1272   0.640   3.407   0.545
  190TCM    cl3 1273   0.846   3.494   0.461
  191TCM     c1 1274   1.353   2.402   4.554
  191TCM    cl1 1275   1.505   2.473   4.619
  191TCM    cl2 1276   1.326   2.465   4.388
  191TCM     h1 1277   1.363   2.293   4.550
  191TCM    cl3 1278   1.215   2.446   4.658
  192TCM     c1 1279   1.832   3.843   4.937
  192TCM    cl1 1280   1.774   3.973   5.045
  192TCM    cl2 1281   1.763   3.869   4.773
  192TCM     h1 1282   1.941   3.845   4.932
  192TCM    cl3 1283   1.778   3.684   5.000
  193TCM     c1 1284   0.755   2.832   0.576
  193TCM    cl1 1285   0.783   2.923   0.424
  193TCM    cl2 1286   0.888   2.864   0.692
  193TCM     h1 1287   0.660   2.863   0.621
  193TCM    cl3 1288   0.749   2.656   0.541
  194TCM     c1 1289   4.048   1.430   2.255
  194TCM    cl1 1290   3.989   1.344   2.109
  194TCM    cl2 1291   4.037   1.320   2.397
  194TCM     h1 1292   4.151   1.461   2.241
  194TCM    cl3 1293   3.944   1.573   2.284
  195TCM     c1 1294   2.144   0.197   4.492
  195TCM    cl1 1295   2.251   0.054   4.507
  195TCM    cl2 1296   2.051   0.219   4.643
  195TCM     h1 1297   2.204   0.286   4.472
  195TCM    cl3 1298   2.027   0.171   4.359
  196TCM     c1 1299   0.226   4.597   2.240
  196TCM    cl1 1300   0.050   4.630   2.244
  196TCM    cl2 1301   0.276   4.565   2.070
  196TCM     h1 1302   0.281   4.683   2.278
  196TCM    cl3 1303   0.263   4.453   2.340
  197TCM     c1 1304   1.756   4.446   4.093
  197TCM    cl1 1305   1.929   4.483   4.124
  197TCM    cl2 1306   1.661   4.480   4.241
  197TCM     h1 1307   1.719   4.507   4.010
  197TCM    cl3 1308   1.741   4.272   4.051
  198TCM     c1 1309   4.361   4.370   1.168
  198TCM    cl1 1310   4.222   4.257   1.165
  198TCM    cl2 1311   4.456   4.350   1.017
  198TCM     h1 1312   4.324   4.473   1.175
  198TCM    cl3 1313   4.464   4.333   1.310
  199TCM     c1 1314   1.246   2.120   0.180
  199TCM    cl1 1315   1.222   2.283   0.250
  199TCM    cl2 1316   1.118   2.010   0.241
  199TCM     h1 1317   1.241   2.125   0.071
  199TCM    cl3 1318   1.407   2.057   0.229
  200TCM     c1 1319   1.033   0.187   4.357
  200TCM    cl1 1320   1.140   0.244   4.489
  200TCM    cl2 1321   1.100   0.038   4.285
  200TCM     h1 1322   0.933   0.167   4.397
  200TCM    cl3 1323   1.023   0.314   4.231
  201TCM     c1 1324   1.567   1.114   0.529
  201TCM    cl1 1325   1.523   1.266   0.444
  201TCM    cl2 1326   1.452   0.984   0.484
  201TCM     h1 1327   1.669   1.085   0.501
  201TCM    cl3 1328   1.559   1.142   0.706
  202TCM     c1 1329   1.049   4.260   1.315
  202TCM    cl1 1330   1.206   4.224   1.393
  202TCM    cl2 1331   1.023   4.149   1.176
  202TCM     h1 1332   0.968   4.249   1.387
  202TCM    cl3 1333   1.052   4.429   1.253
  203TCM     c1 1334   0.021   2.527   2.338
  203TCM    cl1 1335  -0.078   2.612   2.461
  203TCM    cl2 1336   0.009   2.613   2.181
  203TCM     h1 1337   0.125   2.524   2.370
  203TCM    cl3 1338  -0.040   2.359   2.318
  204TCM     c1 1339   0.998   2.670   0.029
  204TCM    cl1 1340   1.031   2.756   0.182
  204TCM    cl2 1341   1.116   2.537   0.006
  204TCM     h1 1342   0.897   2.628   0.032
  204TCM    cl3 1343   1.012   2.784  -0.108
  205TCM     c1 1344   3.778   4.178   3.272
  205TCM    cl1 1345   3.705   4.066   3.152
  205TCM    cl2 1346   3.805   4.093   3.427
  205TCM     h1 1347   3.873   4.215   3.234
  205TCM    cl3 1348   3.665   4.314   3.298
  206TCM     c1 1349   4.101   4.299   0.233
  206TCM    cl1 1350   4.216   4.433   0.199
  206TCM    cl2 1351   4.011   4.335   0.384
  206TCM     h1 1352   4.031   4.289   0.149
  206TCM    cl3 1353   4.192   4.146   0.254
  207TCM     c1 1354   0.689   4.340   4.336
  207TCM    cl1 1355   0.692   4.386   4.162
  207TCM    cl2 1356   0.756   4.175   4.355
  207TCM     h1 1357   0.749   4.410   4.394
  207TCM    cl3 1358   0.520   4.344   4.395
  208TCM     c1 1359   2.058   4.338   3.736
  208TCM    cl1 1360   2.195   4.417   3.820
  208TCM    cl2 1361   1.909   4.434   3.759
  208TCM     h1 1362   2.081   4.330   3.629
  208TCM    cl3 1363   2.033   4.174   3.805
  209TCM     c1 1364   1.443   4.603   1.141
  209TCM    cl1 1365   1.324   4.543   1.020
  209TCM    cl2 1366   1.366   4.611   1.303
  209TCM     h1 1367   1.529   4.536   1.144
  209TCM    cl3 1368   1.497   4.768   1.093
  210TCM     c1 1369   2.686   3.035   0.737
  210TCM    cl1 1370   2.759   3.039   0.574
  210TCM    cl2 1371   2.790   2.937   0.845
  210TCM     h1 1372   2.679   3.137   0.776
  210TCM    cl3 1373   2.522   2.963   0.730
  211TCM     c1 1374   0.824   3.183   0.864
  211TCM    cl1 1375   0.695   3.242   0.973
  211TCM    cl2 1376   0.974   3.277   0.893
  211TCM     h1 1377   0.842   3.077   0.883
  211TCM    cl3 1378   0.773   3.206   0.694
  212TCM     c1 1379   3.619   1.869   1.935
  212TCM    cl1 1380   3.508   1.744   1.869
  212TCM    cl2 1381   3.633   2.004   1.818
  212TCM     h1 1382   3.579   1.907   2.030
  212TCM    cl3 1383   3.781   1.797   1.963
  213TCM     c1 1384   3.097   2.796   0.418
  213TCM    cl1 1385   3.157   2.633   0.375
  213TCM    cl2 1386   3.043   2.798   0.589
  213TCM     h1 1387   3.177   2.869   0.404
  213TCM    cl3 1388   2.958   2.839   0.312
  214TCM     c1 1389   2.619   3.269   4.081
  214TCM    cl1 1390   2.706   3.350   4.215
  214TCM    cl2 1391   2.647   3.092   4.092
  214TCM     h1 1392   2.512   3.289   4.089
  214TCM    cl3 1393   2.681   3.330   3.923
  215TCM     c1 1394   1.633   2.523   3.966
  215TCM    cl1 1395   1.543   2.488   3.815
  215TCM    cl2 1396   1.519   2.586   4.089
  215TCM     h1 1397   1.679   2.431   4.003
  215TCM    cl3 1398   1.761   2.645   3.935
  216TCM     c1 1399   1.493   3.064   3.162
  216TCM    cl1 1400   1.630   3.146   3.081
  216TCM    cl2 1401   1.533   3.041   3.336
  216TCM     h1 1402   1.402   3.125   3.153
  216TCM    cl3 1403   1.465   2.904   3.086
  217TCM     c1 1404   3.880   4.349   3.839
  217TCM    cl1 1405   3.901   4.449   3.692
  217TCM    cl2 1406   3.823   4.185   3.792
  217TCM     h1 1407   3.976   4.340   3.892
  217TCM    cl3 1408   3.758   4.425   3.946
  218TCM     c1 1409   0.079   2.661   0.185
  218TCM    cl1 1410   0.203   2.696   0.309
  218TCM    cl2 1411  -0.086   2.591   0.200
  218TCM     h1 1412   0.106   2.559   0.211
  218TCM    cl3 1413  -0.002   2.785   0.287
  219TCM     c1 1414   1.395   1.825   4.795
  219TCM    cl1 1415   1.279   1.768   4.671
  219TCM    cl2 1416   1.308   1.847   4.951
  219TCM     h1 1417   1.474   1.751   4.809
  219TCM    cl3 1418   1.466   1.981   4.742
  220TCM     c1 1419   0.206   1.590   2.588
  220TCM    cl1 1420   0.189   1.707   2.453
  220TCM    cl2 1421   0.310   1.663   2.715
  220TCM     h1 1422   0.108   1.567   2.630
  220TCM    cl3 1423   0.282   1.440   2.525
  221TCM     c1 1424   3.757   4.663   4.781
  221TCM    cl1 1425   3.592   4.671   4.851
  221TCM    cl2 1426   3.847   4.813   4.821
  221TCM     h1 1427   3.810   4.576   4.821
  221TCM    cl3 1428   3.745   4.647   4.602
  222TCM     c1 1429   1.901   2.549   1.731
  222TCM    cl1 1430   1.913   2.477   1.567
  222TCM    cl2 1431   1.885   2.419   1.854
  222TCM     h1 1432   1.991   2.606   1.751
  222TCM    cl3 1433   1.759   2.658   1.740
  223TCM     c1 1434   1.596   1.791   4.240
  223TCM    cl1 1435   1.490   1.908   4.157
  223TCM    cl2 1436   1.529   1.758   4.403
  223TCM     h1 1437   1.600   1.698   4.183
  223TCM    cl3 1438   1.762   1.859   4.254
  224TCM     c1 1439   0.059   3.742   1.071
  224TCM    cl1 1440   0.012   3.575   1.119
  224TCM    cl2 1441   0.238   3.747   1.050
  224TCM     h1 1442   0.010   3.768   0.977
  224TCM    cl3 1443   0.011   3.858   1.198
  225TCM     c1 1444   0.093   0.638   0.555
  225TCM    cl1 1445   0.238   0.561   0.483
  225TCM    cl2 1446  -0.004   0.715   0.426
  225TCM     h1 1447   0.033   0.563   0.606
  225TCM    cl3 1448   0.146   0.763   0.672
  226TCM     c1 1449   3.622   2.269   2.594
  226TCM    cl1 1450   3.466   2.296   2.679
  226TCM    cl2 1451   3.611   2.335   2.428
  226TCM     h1 1452   3.702   2.319   2.649
  226TCM    cl3 1453   3.657   2.093   2.587
  227TCM     c1 1454   0.434   4.357   2.849
  227TCM    cl1 1455   0.435   4.404   3.022
  227TCM    cl2 1456   0.282   4.416   2.774
  227TCM     h1 1457   0.519   4.402   2.798
  227TCM    cl3 1458   0.443   4.179   2.835
  228TCM     c1 1459   0.031   4.229   2.026
  228TCM    cl1 1460  -0.006   4.354   1.903
  228TCM    cl2 1461  -0.054   4.268   2.179
  228TCM     h1 1462  -0.001   4.131   1.990
  228TCM    cl3 1463   0.208   4.227   2.057
  229TCM     c1 1464   0.368   2.256   2.041
  229TCM    cl1 1465   0.247   2.124   2.025
  229TCM    cl2 1466   0.525   2.188   2.094
  229TCM     h1 1467   0.380   2.306   1.944
  229TCM    cl3 1468   0.311   2.375   2.163
  230TCM     c1 1469   0.822   3.720   2.642
  230TCM    cl1 1470   0.833   3.798   2.480
  230TCM    cl2 1471   0.669   3.773   2.721
  230TCM     h1 1472   0.822   3.611   2.630
  230TCM    cl3 1473   0.962   3.771   2.742
  231TCM     c1 1474   1.968   0.219   4.019
  231TCM    cl1 1475   1.991   0.205   3.842
  231TCM    cl2 1476   1.798   0.177   4.061
  231TCM     h1 1477   2.035   0.151   4.071
  231TCM    cl3 1478   2.003   0.388   4.069
  232TCM     c1 1479   1.798   0.827   0.132
  232TCM    cl1 1480   1.969   0.860   0.089
  232TCM    cl2 1481   1.695   0.848  -0.014
  232TCM     h1 1482   1.788   0.724   0.168
  232TCM    cl3 1483   1.746   0.941   0.260
  233TCM     c1 1484   3.112   4.380   0.038
  233TCM    cl1 1485   2.955   4.344  -0.039
  233TCM    cl2 1486   3.232   4.252  -0.004
  233TCM     h1 1487   3.149   4.477   0.004
  233TCM    cl3 1488   3.090   4.384   0.216
  234TCM     c1 1489   4.574   3.426   3.089
  234TCM    cl1 1490   4.409   3.357   3.099
  234TCM    cl2 1491   4.572   3.571   2.982
  234TCM     h1 1492   4.609   3.454   3.188
  234TCM    cl3 1493   4.684   3.304   3.018
  235TCM     c1 1494   4.420   0.750   4.298
  235TCM    cl1 1495   4.282   0.862   4.323
  235TCM    cl2 1496   4.482   0.771   4.131
  235TCM     h1 1497   4.499   0.773   4.369
  235TCM    cl3 1498   4.364   0.582   4.321
  236TCM     c1 1499   0.041   3.046   4.297
  236TCM    cl1 1500   0.152   3.082   4.433
  236TCM    cl2 1501   0.130   3.066   4.142
  236TCM     h1 1502   0.004   2.944   4.305
  236TCM    cl3 1503  -0.096   3.161   4.302
  237TCM     c1 1504   0.929   1.421   0.163
  237TCM    cl1 1505   0.913   1.460   0.337
  237TCM    cl2 1506   0.785   1.480   0.074
  237TCM     h1 1507   1.018   1.469   0.123
  237TCM    cl3 1508   0.942   1.243   0.142
  238TCM     c1 1509   4.915   2.632   4.600
  238TCM    cl1 1510   4.896   2.540   4.447
  238TCM    cl2 1511   4.757   2.641   4.682
  238TCM     h1 1512   4.988   2.582   4.664
  238TCM    cl3 1513   4.973   2.798   4.562
  239TCM     c1 1514   2.586   4.067   3.631
  239TCM    cl1 1515   2.615   3.911   3.715
  239TCM    cl2 1516   2.731   4.171   3.649
  239TCM     h1 1517   2.566   4.049   3.525
  239TCM    cl3 1518   2.445   4.149   3.706
  240TCM     c1 1519   4.498   3.430   2.150
  240TCM    cl1 1520   4.486   3.274   2.061
  240TCM    cl2 1521   4.337   3.470   2.219
  240TCM     h1 1522   4.572   3.421   2.230
  240TCM    cl3 1523   4.548   3.560   2.037
  241TCM     c1 1524   2.630   4.486   4.697
  241TCM    cl1 1525   2.740   4.347   4.673
  241TCM    cl2 1526   2.723   4.623   4.766
  241TCM     h1 1527   2.586   4.515   4.602
  241TCM    cl3 1528   2.500   4.439   4.812
  242TCM     c1 1529   2.493   1.553   3.202
  242TCM    cl1 1530   2.423   1.425   3.307
  242TCM    cl2 1531   2.375   1.686   3.181
  242TCM     h1 1532   2.584   1.591   3.248
  242TCM    cl3 1533   2.532   1.483   3.041
  243TCM     c1 1534   2.588   4.512   3.659
  243TCM    cl1 1535   2.639   4.462   3.823
  243TCM    cl2 1536   2.729   4.580   3.571
  243TCM     h1 1537   2.550   4.425   3.606
  243TCM    cl3 1538   2.458   4.635   3.672
  244TCM     c1 1539   0.641   2.509   4.819
  244TCM    cl1 1540   0.572   2.637   4.715
  244TCM    cl2 1541   0.816   2.498   4.788
  244TCM     h1 1542   0.623   2.534   4.924
  244TCM    cl3 1543   0.563   2.351   4.781
  245TCM     c1 1544   3.507   0.471   1.753
  245TCM    cl1 1545   3.525   0.650   1.760
  245TCM    cl2 1546   3.551   0.400   1.911
  245TCM     h1 1547   3.403   0.446   1.729
  245TCM    cl3 1548   3.614   0.405   1.625
  246TCM     c1 1549   0.418   0.075   0.164
  246TCM    cl1 1550   0.393  -0.026   0.310
  246TCM    cl2 1551   0.325   0.227   0.182
  246TCM     h1 1552   0.524   0.097   0.151
  246TCM    cl3 1553   0.356  -0.015   0.021
  247TCM     c1 1554   0.792   3.516   3.643
  247TCM    cl1 1555   0.794   3.382   3.523
  247TCM    cl2 1556   0.887   3.654   3.578
  247TCM     h1 1557   0.690   3.547   3.663
  247TCM    cl3 1558   0.869   3.458   3.795
  248TCM     c1 1559   0.229   3.885   4.384
  248TCM    cl1 1560   0.207   3.803   4.542
  248TCM    cl2 1561   0.073   3.955   4.330
  248TCM     h1 1562   0.303   3.965   4.395
  248TCM    cl3 1563   0.287   3.765   4.263
  249TCM     c1 1564   3.664   1.710   0.815
  249TCM    cl1 1565   3.498   1.686   0.879
  249TCM    cl2 1566   3.739   1.851   0.898
  249TCM     h1 1567   3.724   1.621   0.834
  249TCM    cl3 1568   3.655   1.743   0.639
  250TCM     c1 1569   3.441   4.027   3.621
  250TCM    cl1 1570   3.576   3.912   3.651
  250TCM    cl2 1571   3.288   3.954   3.679
  250TCM     h1 1572   3.461   4.120   3.675
  250TCM    cl3 1573   3.428   4.060   3.445
  251TCM     c1 1574   1.794   4.148   3.135
  251TCM    cl1 1575   1.948   4.208   3.203
  251TCM    cl2 1576   1.714   4.279   3.042
  251TCM     h1 1577   1.813   4.063   3.069
  251TCM    cl3 1578   1.686   4.096   3.269
  252TCM     c1 1579   0.601   3.014   0.098
  252TCM    cl1 1580   0.657   2.891  -0.019
  252TCM    cl2 1581   0.480   2.940   0.209
  252TCM     h1 1582   0.685   3.051   0.157
  252TCM    cl3 1583   0.523   3.150   0.010
  253TCM     c1 1584   3.165   1.633   3.906
  253TCM    cl1 1585   3.274   1.634   3.764
  253TCM    cl2 1586   3.099   1.468   3.929
  253TCM     h1 1587   3.221   1.663   3.995
  253TCM    cl3 1588   3.030   1.748   3.878
  254TCM     c1 1589   2.907   2.142   0.326
  254TCM    cl1 1590   2.739   2.203   0.342
  254TCM    cl2 1591   3.015   2.279   0.282
  254TCM     h1 1592   2.939   2.098   0.420
  254TCM    cl3 1593   2.913   2.018   0.196
  255TCM     c1 1594   1.507   0.155   4.543
  255TCM    cl1 1595   1.425   0.019   4.460
  255TCM    cl2 1596   1.684   0.127   4.540
  255TCM     h1 1597   1.484   0.248   4.491
  255TCM    cl3 1598   1.451   0.164   4.713
  256TCM     c1 1599   2.431   4.770   2.943
  256TCM    cl1 1600   2.342   4.825   3.089
  256TCM    cl2 1601   2.337   4.640   2.861
  256TCM     h1 1602   2.444   4.854   2.875
  256TCM    cl3 1603   2.591   4.706   2.991
  257TCM     c1 1604   4.766   3.043   0.323
  257TCM    cl1 1605   4.681   3.200   0.306
  257TCM    cl2 1606   4.778   3.000   0.497
  257TCM     h1 1607   4.867   3.051   0.281
  257TCM    cl3 1608   4.674   2.917   0.235
  258TCM     c1 1609   2.406   2.556   3.818
  258TCM    cl1 1610   2.385   2.423   3.700
  258TCM    cl2 1611   2.580   2.571   3.859
  258TCM     h1 1612   2.371   2.650   3.774
  258TCM    cl3 1613   2.313   2.521   3.967
  259TCM     c1 1614   0.896   0.414   0.002
  259TCM    cl1 1615   0.794   0.560  -0.022
  259TCM    cl2 1616   0.798   0.285   0.079
  259TCM     h1 1617   0.933   0.379  -0.095
  259TCM    cl3 1618   1.034   0.454   0.109
  260TCM     c1 1619   3.542   4.280   4.779
  260TCM    cl1 1620   3.716   4.307   4.814
  260TCM    cl2 1621   3.516   4.112   4.724
  260TCM     h1 1622   3.483   4.298   4.869
  260TCM    cl3 1623   3.489   4.391   4.648
  261TCM     c1 1624   3.138   3.610   3.297
  261TCM    cl1 1625   3.077   3.441   3.296
  261TCM    cl2 1626   3.284   3.623   3.194
  261TCM     h1 1627   3.060   3.677   3.260
  261TCM    cl3 1628   3.181   3.656   3.465
  262TCM     c1 1629   2.777   3.991   3.089
  262TCM    cl1 1630   2.701   3.892   2.960
  262TCM    cl2 1631   2.659   4.010   3.223
  262TCM     h1 1632   2.866   3.941   3.126
  262TCM    cl3 1633   2.821   4.152   3.024
  263TCM     c1 1634   3.702   1.274   2.550
  263TCM    cl1 1635   3.663   1.286   2.375
  263TCM    cl2 1636   3.585   1.163   2.629
  263TCM     h1 1637   3.803   1.236   2.562
  263TCM    cl3 1638   3.689   1.437   2.624
  264TCM     c1 1639   4.613   1.722   4.832
  264TCM    cl1 1640   4.578   1.862   4.938
  264TCM    cl2 1641   4.746   1.625   4.904
  264TCM     h1 1642   4.523   1.660   4.821
  264TCM    cl3 1643   4.666   1.781   4.671
  265TCM     c1 1644   3.168   1.877   0.553
  265TCM    cl1 1645   2.997   1.830   0.528
  265TCM    cl2 1646   3.218   1.988   0.421
  265TCM     h1 1647   3.178   1.928   0.649
  265TCM    cl3 1648   3.273   1.732   0.550
  266TCM     c1 1649   4.752   4.601   1.454
  266TCM    cl1 1650   4.771   4.517   1.297
  266TCM    cl2 1651   4.802   4.491   1.586
  266TCM     h1 1652   4.815   4.691   1.456
  266TCM    cl3 1653   4.580   4.648   1.476
  267TCM     c1 1654   4.517   4.935   3.088
  267TCM    cl1 1655   4.417   4.799   3.150
  267TCM    cl2 1656   4.684   4.920   3.151
  267TCM     h1 1657   4.519   4.932   2.979
  267TCM    cl3 1658   4.445   5.091   3.141
  268TCM     c1 1659   3.539   1.911   0.298
  268TCM    cl1 1660   3.462   1.955   0.142
  268TCM    cl2 1661   3.593   2.059   0.383
  268TCM     h1 1662   3.467   1.857   0.360
  268TCM    cl3 1663   3.680   1.805   0.265
  269TCM     c1 1664   1.681   4.517   2.727
  269TCM    cl1 1665   1.539   4.523   2.617
  269TCM    cl2 1666   1.658   4.632   2.862
  269TCM     h1 1667   1.692   4.416   2.767
  269TCM    cl3 1668   1.829   4.561   2.635
  270TCM     c1 1669   1.191   4.276   4.836
  270TCM    cl1 1670   1.106   4.192   4.702
  270TCM    cl2 1671   1.217   4.448   4.792
  270TCM     h1 1672   1.130   4.271   4.927
  270TCM    cl3 1673   1.350   4.198   4.865
  271TCM     c1 1674   0.115   4.871   4.505
  271TCM    cl1 1675   0.047   4.721   4.575
  271TCM    cl2 1676   0.174   4.977   4.637
  271TCM     h1 1677   0.198   4.846   4.439
  271TCM    cl3 1678  -0.012   4.956   4.411
  272TCM     c1 1679   4.223   4.557   4.850
  272TCM    cl1 1680   4.171   4.698   4.947
  272TCM    cl2 1681   4.326   4.614   4.714
  272TCM     h1 1682   4.280   4.488   4.913
  272TCM    cl3 1683   4.078   4.473   4.785
  273TCM     c1 1684   4.841   2.838   3.894
  273TCM    cl1 1685   5.011   2.873   3.851
  273TCM    cl2 1686   4.813   2.888   4.064
  273TCM     h1 1687   4.774   2.893   3.828
  273TCM    cl3 1688   4.812   2.662   3.879
  274TCM     c1 1689   3.994   1.054   1.498
  274TCM    cl1 1690   4.040   1.215   1.434
  274TCM    cl2 1691   4.127   0.988   1.599
  274TCM     h1 1692   3.903   1.063   1.558
  274TCM    cl3 1693   3.962   0.943   1.361
  275TCM     c1 1694   1.415   4.574   0.123
  275TCM    cl1 1695   1.532   4.526  -0.005
  275TCM    cl2 1696   1.299   4.440   0.152
  275TCM     h1 1697   1.469   4.596   0.216
  275TCM    cl3 1698   1.325   4.719   0.070
  276TCM     c1 1699   2.159   2.256   2.145
  276TCM    cl1 1700   2.233   2.308   1.990
  276TCM    cl2 1701   2.019   2.149   2.112
  276TCM     h1 1702   2.233   2.203   2.206
  276TCM    cl3 1703   2.102   2.401   2.234
  277TCM     c1 1704   4.595   3.257   3.600
  277TCM    cl1 1705   4.456   3.319   3.504
  277TCM    cl2 1706   4.589   3.078   3.603
  277TCM     h1 1707   4.688   3.290   3.555
  277TCM    cl3 1708   4.584   3.319   3.768
  278TCM     c1 1709   1.407   0.577   0.411
  278TCM    cl1 1710   1.574   0.626   0.364
  278TCM    cl2 1711   1.397   0.398   0.422
  278TCM     h1 1712   1.382   0.621   0.508
  278TCM    cl3 1713   1.292   0.636   0.287
  279TCM     c1 1714   2.342   4.727   4.106
  279TCM    cl1 1715   2.283   4.564   4.149
  279TCM    cl2 1716   2.502   4.714   4.026
  279TCM     h1 1717   2.272   4.775   4.038
  279TCM    cl3 1718   2.359   4.825   4.256
  280TCM     c1 1719   3.228   2.569   2.767
  280TCM    cl1 1720   3.192   2.680   2.631
  280TCM    cl2 1721   3.093   2.574   2.885
  280TCM     h1 1722   3.240   2.467   2.729
  280TCM    cl3 1723   3.379   2.621   2.849
  281TCM     c1 1724   2.931   3.185   2.561
  281TCM    cl1 1725   2.995   3.304   2.444
  281TCM    cl2 1726   2.882   3.268   2.712
  281TCM     h1 1727   2.844   3.134   2.518
  281TCM    cl3 1728   3.059   3.064   2.599
  282TCM     c1 1729   1.296   0.594   4.713
  282TCM    cl1 1730   1.409   0.516   4.598
  282TCM    cl2 1731   1.186   0.470   4.780
  282TCM     h1 1732   1.353   0.641   4.795
  282TCM    cl3 1733   1.201   0.719   4.627
  283TCM     c1 1734   3.356   4.542   0.743
  283TCM    cl1 1735   3.529   4.500   0.721
  283TCM    cl2 1736   3.343   4.714   0.792
  283TCM     h1 1737   3.302   4.527   0.649
  283TCM    cl3 1738   3.285   4.439   0.871
  284TCM     c1 1739   2.042   3.122   0.776
  284TCM    cl1 1740   2.020   3.295   0.816
  284TCM    cl2 1741   2.105   3.036   0.920
  284TCM     h1 1742   1.946   3.079   0.746
  284TCM    cl3 1743   2.159   3.105   0.641
  285TCM     c1 1744   2.792   3.427   1.715
  285TCM    cl1 1745   2.778   3.589   1.791
  285TCM    cl2 1746   2.868   3.444   1.553
  285TCM     h1 1747   2.853   3.362   1.778
  285TCM    cl3 1748   2.627   3.357   1.697
  286TCM     c1 1749   4.752   0.136   3.931
  286TCM    cl1 1750   4.748  -0.040   3.898
  286TCM    cl2 1751   4.882   0.211   3.834
  286TCM     h1 1752   4.655   0.181   3.905
  286TCM    cl3 1753   4.784   0.162   4.106
  287TCM     c1 1754   4.570   2.698   4.378
  287TCM    cl1 1755   4.659   2.853   4.394
  287TCM    cl2 1756   4.608   2.626   4.218
  287TCM     h1 1757   4.600   2.629   4.457
  287TCM    cl3 1758   4.395   2.731   4.389
  288TCM     c1 1759   1.153   4.273   2.024
  288TCM    cl1 1760   1.210   4.427   1.952
  288TCM    cl2 1761   1.101   4.160   1.894
  288TCM     h1 1762   1.234   4.228   2.081
  288TCM    cl3 1763   1.015   4.306   2.134
  289TCM     c1 1764   4.996   0.029   0.210
  289TCM    cl1 1765   4.833   0.051   0.281
  289TCM    cl2 1766   4.996   0.086   0.039
  289TCM     h1 1767   5.069   0.087   0.267
  289TCM    cl3 1768   5.041  -0.144   0.215
  290TCM     c1 1769   4.584   0.002   3.587
  290TCM    cl1 1770   4.460  -0.057   3.473
  290TCM    cl2 1771   4.551   0.174   3.626
  290TCM     h1 1772   4.580  -0.057   3.679
  290TCM    cl3 1773   4.747  -0.012   3.513
  291TCM     c1 1774   3.560   4.737   4.252
  291TCM    cl1 1775   3.484   4.743   4.090
  291TCM    cl2 1776   3.718   4.652   4.238
  291TCM     h1 1777   3.577   4.838   4.289
  291TCM    cl3 1778   3.452   4.648   4.365
  292TCM     c1 1779   1.550   1.309   1.319
  292TCM    cl1 1780   1.594   1.370   1.156
  292TCM    cl2 1781   1.402   1.393   1.376
  292TCM     h1 1782   1.531   1.201   1.314
  292TCM    cl3 1783   1.686   1.340   1.431
  293TCM     c1 1784   3.285   1.377   2.697
  293TCM    cl1 1785   3.296   1.378   2.518
  293TCM    cl2 1786   3.125   1.315   2.748
  293TCM     h1 1787   3.364   1.313   2.738
  293TCM    cl3 1788   3.305   1.544   2.759
  294TCM     c1 1789   3.365   4.894   0.415
  294TCM    cl1 1790   3.391   4.958   0.250
  294TCM    cl2 1791   3.507   4.797   0.465
  294TCM     h1 1792   3.350   4.977   0.485
  294TCM    cl3 1793   3.219   4.789   0.416
  295TCM     c1 1794   0.392   0.860   2.018
  295TCM    cl1 1795   0.538   0.795   1.936
  295TCM    cl2 1796   0.341   1.012   1.938
  295TCM     h1 1797   0.311   0.787   2.012
  295TCM    cl3 1798   0.430   0.894   2.190
  296TCM     c1 1799   2.752   3.420   0.955
  296TCM    cl1 1800   2.887   3.494   1.046
  296TCM    cl2 1801   2.719   3.257   1.022
  296TCM     h1 1802   2.663   3.482   0.963
  296TCM    cl3 1803   2.800   3.406   0.782
  297TCM     c1 1804   2.438   2.220   4.423
  297TCM    cl1 1805   2.354   2.081   4.348
  297TCM    cl2 1806   2.353   2.264   4.576
  297TCM     h1 1807   2.541   2.194   4.445
  297TCM    cl3 1808   2.433   2.360   4.310
  298TCM     c1 1809   0.357   2.125   0.672
  298TCM    cl1 1810   0.207   2.222   0.690
  298TCM    cl2 1811   0.384   2.090   0.498
  298TCM     h1 1812   0.442   2.181   0.711
  298TCM    cl3 1813   0.338   1.972   0.764
  299TCM     c1 1814   2.439   4.894   1.523
  299TCM    cl1 1815   2.313   4.768   1.539
  299TCM    cl2 1816   2.359   5.055   1.511
  299TCM     h1 1817   2.504   4.893   1.611
  299TCM    cl3 1818   2.536   4.865   1.375
  300TCM     c1 1819   2.459   3.352   4.946
  300TCM    cl1 1820   2.341   3.342   4.811
  300TCM    cl2 1821   2.598   3.245   4.911
  300TCM     h1 1822   2.494   3.455   4.957
  300TCM    cl3 1823   2.379   3.299   5.097
  301TCM     c1 1824   0.051   3.394   4.827
  301TCM    cl1 1825   0.009   3.289   4.688
  301TCM    cl2 1826   0.066   3.564   4.773
  301TCM     h1 1827  -0.028   3.387   4.903
  301TCM    cl3 1828   0.207   3.340   4.898
  302TCM     c1 1829   3.834   1.701   1.611
  302TCM    cl1 1830   3.910   1.861   1.585
  302TCM    cl2 1831   3.933   1.575   1.531
  302TCM     h1 1832   3.828   1.680   1.719
  302TCM    cl3 1833   3.669   1.700   1.540
  303TCM     c1 1834   2.161   2.644   2.584
  303TCM    cl1 1835   2.266   2.501   2.558
  303TCM    cl2 1836   2.140   2.732   2.429
  303TCM     h1 1837   2.063   2.612   2.621
  303TCM    cl3 1838   2.238   2.751   2.705
  304TCM     c1 1839   4.388   2.462   0.609
  304TCM    cl1 1840   4.393   2.599   0.493
  304TCM    cl2 1841   4.464   2.511   0.764
  304TCM     h1 1842   4.284   2.433   0.626
  304TCM    cl3 1843   4.478   2.322   0.540
  305TCM     c1 1844   4.878   4.100   1.555
  305TCM    cl1 1845   4.807   4.170   1.406
  305TCM    cl2 1846   4.886   3.922   1.537
  305TCM     h1 1847   4.978   4.141   1.570
  305TCM    cl3 1848   4.775   4.140   1.697
  306TCM     c1 1849   3.131   1.221   3.638
  306TCM    cl1 1850   3.091   1.098   3.762
  306TCM    cl2 1851   3.068   1.169   3.478
  306TCM     h1 1852   3.086   1.316   3.666
  306TCM    cl3 1853   3.309   1.240   3.627
  307TCM     c1 1854   1.034   3.421   2.378
  307TCM    cl1 1855   1.049   3.268   2.471
  307TCM    cl2 1856   1.108   3.555   2.473
  307TCM     h1 1857   1.086   3.411   2.282
  307TCM    cl3 1858   0.861   3.457   2.351
  308TCM     c1 1859   2.810   3.721   2.161
  308TCM    cl1 1860   2.641   3.684   2.114
  308TCM    cl2 1861   2.872   3.857   2.063
  308TCM     h1 1862   2.813   3.749   2.267
  308TCM    cl3 1863   2.914   3.576   2.135
  309TCM     c1 1864   1.638   2.578   2.263
  309TCM    cl1 1865   1.540   2.693   2.359
  309TCM    cl2 1866   1.810   2.595   2.312
  309TCM     h1 1867   1.604   2.476   2.281
  309TCM    cl3 1868   1.624   2.616   2.088
  310TCM     c1 1869   4.526   4.780   0.018
  310TCM    cl1 1870   4.695   4.837   0.032
  310TCM    cl2 1871   4.423   4.872   0.132
  310TCM     h1 1872   4.490   4.794  -0.085
  310TCM    cl3 1873   4.521   4.605   0.059
  311TCM     c1 1874   4.211   4.513   2.467
  311TCM    cl1 1875   4.365   4.432   2.427
  311TCM    cl2 1876   4.241   4.688   2.495
  311TCM     h1 1877   4.140   4.501   2.384
  311TCM    cl3 1878   4.142   4.441   2.616
  312TCM     c1 1879   1.281   4.493   3.063
  312TCM    cl1 1880   1.444   4.525   3.130
  312TCM    cl2 1881   1.297   4.428   2.897
  312TCM     h1 1882   1.230   4.419   3.126
  312TCM    cl3 1883   1.185   4.644   3.060
  313TCM     c1 1884   3.502   4.562   3.585
  313TCM    cl1 1885   3.621   4.623   3.465
  313TCM    cl2 1886   3.509   4.664   3.732
  313TCM     h1 1887   3.401   4.566   3.542
  313TCM    cl3 1888   3.542   4.392   3.628
  314TCM     c1 1889   3.665   1.796   4.862
  314TCM    cl1 1890   3.609   1.629   4.896
  314TCM    cl2 1891   3.659   1.827   4.685
  314TCM     h1 1892   3.601   1.868   4.914
  314TCM    cl3 1893   3.834   1.815   4.919
  315TCM     c1 1894   4.837   3.788   2.479
  315TCM    cl1 1895   4.966   3.662   2.486
  315TCM    cl2 1896   4.740   3.784   2.630
  315TCM     h1 1897   4.883   3.886   2.469
  315TCM    cl3 1898   4.731   3.756   2.339
  316TCM     c1 1899   4.837   3.042   2.348
  316TCM    cl1 1900   4.993   3.079   2.267
  316TCM    cl2 1901   4.756   2.908   2.260
  316TCM     h1 1902   4.855   3.013   2.451
  316TCM    cl3 1903   4.732   3.188   2.345
  317TCM     c1 1904   0.461   2.966   1.022
  317TCM    cl1 1905   0.577   2.913   0.895
  317TCM    cl2 1906   0.543   2.967   1.181
  317TCM     h1 1907   0.425   3.066   0.998
  317TCM    cl3 1908   0.322   2.852   1.025
  318TCM     c1 1909   1.231   1.931   3.904
  318TCM    cl1 1910   1.352   1.817   3.839
  318TCM    cl2 1911   1.083   1.840   3.950
  318TCM     h1 1912   1.271   1.982   3.992
  318TCM    cl3 1913   1.190   2.052   3.777
  319TCM     c1 1914   4.052   3.403   1.099
  319TCM    cl1 1915   4.142   3.429   0.946
  319TCM    cl2 1916   4.133   3.273   1.193
  319TCM     h1 1917   4.052   3.496   1.158
  319TCM    cl3 1918   3.884   3.355   1.062
  320TCM     c1 1919   4.995   4.762   1.864
  320TCM    cl1 1920   4.962   4.795   1.691
  320TCM    cl2 1921   4.858   4.821   1.963
  320TCM     h1 1922   5.009   4.655   1.880
  320TCM    cl3 1923   5.145   4.849   1.913
  321TCM     c1 1924   1.520   1.471   3.974
  321TCM    cl1 1925   1.644   1.595   3.937
  321TCM    cl2 1926   1.400   1.539   4.088
  321TCM     h1 1927   1.470   1.439   3.882
  321TCM    cl3 1928   1.600   1.329   4.050
  322TCM     c1 1929   1.179   2.322   4.092
  322TCM    cl1 1930   1.048   2.199   4.086
  322TCM    cl2 1931   1.172   2.424   3.945
  322TCM     h1 1932   1.167   2.384   4.181
  322TCM    cl3 1933   1.338   2.238   4.098
  323TCM     c1 1934   1.676   2.062   1.287
  323TCM    cl1 1935   1.517   2.008   1.221
  323TCM    cl2 1936   1.670   2.239   1.320
  323TCM     h1 1937   1.697   2.009   1.380
  323TCM    cl3 1938   1.804   2.027   1.166
  324TCM     c1 1939   3.457   2.835   0.675
  324TCM    cl1 1940   3.423   2.911   0.516
  324TCM    cl2 1941   3.464   2.657   0.654
  324TCM     h1 1942   3.553   2.872   0.713
  324TCM    cl3 1943   3.326   2.876   0.791
  325TCM     c1 1944   3.753   4.568   2.952
  325TCM    cl1 1945   3.849   4.677   2.847
  325TCM    cl2 1946   3.708   4.654   3.103
  325TCM     h1 1947   3.662   4.537   2.899
  325TCM    cl3 1948   3.850   4.423   2.993
  326TCM     c1 1949   4.597   2.958   4.822
  326TCM    cl1 1950   4.514   3.088   4.913
  326TCM    cl2 1951   4.710   3.032   4.704
  326TCM     h1 1952   4.652   2.894   4.891
  326TCM    cl3 1953   4.475   2.860   4.733
  327TCM     c1 1954   4.683   2.702   2.946
  327TCM    cl1 1955   4.694   2.586   3.083
  327TCM    cl2 1956   4.768   2.854   2.991
  327TCM     h1 1957   4.729   2.659   2.857
  327TCM    cl3 1958   4.511   2.738   2.913
  328TCM     c1 1959   2.211   3.893   3.422
  328TCM    cl1 1960   2.318   4.029   3.375
  328TCM    cl2 1961   2.068   3.888   3.312
  328TCM     h1 1962   2.265   3.798   3.414
  328TCM    cl3 1963   2.156   3.917   3.591
  329TCM     c1 1964   3.399   2.047   0.893
  329TCM    cl1 1965   3.436   2.024   0.719
  329TCM    cl2 1966   3.244   1.966   0.930
  329TCM     h1 1967   3.479   2.004   0.954
  329TCM    cl3 1968   3.384   2.223   0.926
  330TCM     c1 1969   2.468   1.900   2.454
  330TCM    cl1 1970   2.535   1.793   2.326
  330TCM    cl2 1971   2.343   1.810   2.546
  330TCM     h1 1972   2.548   1.932   2.522
  330TCM    cl3 1973   2.392   2.043   2.376
  331TCM     c1 1974   2.917   2.483   3.219
  331TCM    cl1 1975   2.865   2.427   3.381
  331TCM    cl2 1976   2.792   2.593   3.150
  331TCM     h1 1977   3.011   2.537   3.227
  331TCM    cl3 1978   2.938   2.341   3.111
  332TCM     c1 1979   4.934   1.592   1.397
  332TCM    cl1 1980   5.096   1.637   1.461
  332TCM    cl2 1981   4.819   1.726   1.428
  332TCM     h1 1982   4.942   1.574   1.289
  332TCM    cl3 1983   4.877   1.443   1.479
  333TCM     c1 1984   1.222   1.549   3.652
  333TCM    cl1 1985   1.397   1.517   3.625
  333TCM    cl2 1986   1.173   1.475   3.808
  333TCM     h1 1987   1.205   1.657   3.656
  333TCM    cl3 1988   1.127   1.477   3.519
  334TCM     c1 1989   3.230   3.778   2.149
  334TCM    cl1 1990   3.254   3.664   2.285
  334TCM    cl2 1991   3.365   3.761   2.033
  334TCM     h1 1992   3.135   3.757   2.099
  334TCM    cl3 1993   3.228   3.946   2.213
  335TCM     c1 1994   2.053   3.465   0.437
  335TCM    cl1 1995   2.210   3.384   0.408
  335TCM    cl2 1996   2.071   3.572   0.580
  335TCM     h1 1997   2.026   3.525   0.349
  335TCM    cl3 1998   1.926   3.342   0.468
  336TCM     c1 1999   4.753   2.016   3.033
  336TCM    cl1 2000   4.641   2.085   3.155
  336TCM    cl2 2001   4.696   2.062   2.869
  336TCM     h1 2002   4.854   2.056   3.049
  336TCM    cl3 2003   4.757   1.837   3.047
  337TCM     c1 2004   2.522   3.538   1.302
  337TCM    cl1 2005   2.459   3.541   1.135
  337TCM    cl2 2006   2.674   3.633   1.311
  337TCM     h1 2007   2.448   3.581   1.370
  337TCM    cl3 2008   2.554   3.368   1.348
  338TCM     c1 2009   0.944   4.610   4.612
  338TCM    cl1 2010   1.012   4.764   4.550
  338TCM    cl2 2011   0.993   4.476   4.503
  338TCM     h1 2012   0.981   4.591   4.713
  338TCM    cl3 2013   0.765   4.621   4.614
  339TCM     c1 2014   3.784   2.949   3.582
  339TCM    cl1 2015   3.794   2.780   3.641
  339TCM    cl2 2016   3.788   3.061   3.723
  339TCM     h1 2017   3.868   2.970   3.516
  339TCM    cl3 2018   3.630   2.972   3.493
  340TCM     c1 2019   3.577   3.795   1.217
  340TCM    cl1 2020   3.685   3.938   1.202
  340TCM    cl2 2021   3.524   3.778   1.388
  340TCM     h1 2022   3.490   3.808   1.153
  340TCM    cl3 2023   3.666   3.647   1.167
  341TCM     c1 2024   2.317   0.620   3.794
  341TCM    cl1 2025   2.242   0.675   3.640
  341TCM    cl2 2026   2.495   0.631   3.780
  341TCM     h1 2027   2.282   0.684   3.876
  341TCM    cl3 2028   2.270   0.450   3.825
  342TCM     c1 2029   1.935   3.438   4.739
  342TCM    cl1 2030   2.006   3.336   4.610
  342TCM    cl2 2031   1.786   3.517   4.677
  342TCM     h1 2032   1.909   3.376   4.825
  342TCM    cl3 2033   2.053   3.564   4.789
  343TCM     c1 2034   4.172   3.708   3.024
  343TCM    cl1 2035   4.262   3.673   3.175
  343TCM    cl2 2036   4.101   3.555   2.960
  343TCM     h1 2037   4.092   3.779   3.044
  343TCM    cl3 2038   4.285   3.776   2.902
  344TCM     c1 2039   3.205   1.545   4.622
  344TCM    cl1 2040   3.333   1.670   4.634
  344TCM    cl2 2041   3.068   1.589   4.730
  344TCM     h1 2042   3.169   1.538   4.519
  344TCM    cl3 2043   3.272   1.386   4.673
  345TCM     c1 2044   0.652   4.832   4.235
  345TCM    cl1 2045   0.755   4.921   4.351
  345TCM    cl2 2046   0.558   4.706   4.322
  345TCM     h1 2047   0.583   4.902   4.186
  345TCM    cl3 2048   0.757   4.755   4.112
  346TCM     c1 2049   1.825   1.432   0.693
  346TCM    cl1 2050   1.935   1.574   0.687
  346TCM    cl2 2051   1.831   1.359   0.857
  346TCM     h1 2052   1.723   1.464   0.671
  346TCM    cl3 2053   1.877   1.311   0.572
  347TCM     c1 2054   2.884   4.688   2.364
  347TCM    cl1 2055   2.979   4.563   2.451
  347TCM    cl2 2056   2.716   4.687   2.427
  347TCM     h1 2057   2.929   4.786   2.381
  347TCM    cl3 2058   2.883   4.651   2.188
  348TCM     c1 2059   2.515   3.937   2.481
  348TCM    cl1 2060   2.377   3.843   2.414
  348TCM    cl2 2061   2.640   3.958   2.354
  348TCM     h1 2062   2.480   4.035   2.515
  348TCM    cl3 2063   2.586   3.848   2.619
  349TCM     c1 2064   0.680   0.453   2.087
  349TCM    cl1 2065   0.542   0.513   2.184
  349TCM    cl2 2066   0.806   0.581   2.078
  349TCM     h1 2067   0.723   0.364   2.134
  349TCM    cl3 2068   0.623   0.413   1.922
  350TCM     c1 2069   2.240   3.765   2.967
  350TCM    cl1 2070   2.121   3.894   2.929
  350TCM    cl2 2071   2.364   3.827   3.080
  350TCM     h1 2072   2.189   3.680   3.012
  350TCM    cl3 2073   2.320   3.711   2.815
  351TCM     c1 2074   4.164   1.865   4.613
  351TCM    cl1 2075   4.303   1.752   4.621
  351TCM    cl2 2076   4.152   1.955   4.768
  351TCM     h1 2077   4.180   1.936   4.531
  351TCM    cl3 2078   4.013   1.773   4.584
  352TCM     c1 2079   0.375   0.236   4.767
  352TCM    cl1 2080   0.395   0.273   4.593
  352TCM    cl2 2081   0.229   0.318   4.831
  352TCM     h1 2082   0.365   0.128   4.781
  352TCM    cl3 2083   0.518   0.294   4.859
  353TCM     c1 2084   3.848   3.257   4.875
  353TCM    cl1 2085   3.758   3.105   4.840
  353TCM    cl2 2086   3.871   3.272   5.052
  353TCM     h1 2087   3.946   3.254   4.825
  353TCM    cl3 2088   3.753   3.396   4.815
  354TCM     c1 2089   1.955   1.880   2.459
  354TCM    cl1 2090   2.046   2.034   2.472
  354TCM    cl2 2091   1.829   1.898   2.333
  354TCM     h1 2092   2.024   1.799   2.432
  354TCM    cl3 2093   1.879   1.843   2.617
  355TCM     c1 2094   2.048   3.706   1.388
  355TCM    cl1 2095   2.051   3.816   1.529
  355TCM    cl2 2096   2.200   3.724   1.295
  355TCM     h1 2097   2.039   3.602   1.422
  355TCM    cl3 2098   1.907   3.746   1.284
  356TCM     c1 2099   2.632   1.915   3.016
  356TCM    cl1 2100   2.567   1.930   2.850
  356TCM    cl2 2101   2.723   2.064   3.058
  356TCM     h1 2102   2.550   1.900   3.087
  356TCM    cl3 2103   2.745   1.776   3.024
  357TCM     c1 2104   2.541   4.205   0.556
  357TCM    cl1 2105   2.494   4.153   0.391
  357TCM    cl2 2106   2.538   4.064   0.666
  357TCM     h1 2107   2.642   4.248   0.554
  357TCM    cl3 2108   2.424   4.329   0.613
  358TCM     c1 2109   2.907   2.184   4.679
  358TCM    cl1 2110   3.047   2.097   4.609
  358TCM    cl2 2111   2.787   2.216   4.550
  358TCM     h1 2112   2.861   2.124   4.757
  358TCM    cl3 2113   2.963   2.340   4.749
  359TCM     c1 2114   1.516   3.031   2.521
  359TCM    cl1 2115   1.533   2.988   2.694
  359TCM    cl2 2116   1.583   3.195   2.494
  359TCM     h1 2117   1.572   2.959   2.460
  359TCM    cl3 2118   1.343   3.027   2.475
  360TCM     c1 2119   0.715   3.886   4.578
  360TCM    cl1 2120   0.808   3.744   4.522
  360TCM    cl2 2121   0.678   3.869   4.753
  360TCM     h1 2122   0.774   3.977   4.562
  360TCM    cl3 2123   0.562   3.896   4.487
  361TCM     c1 2124   0.088   1.974   1.603
  361TCM    cl1 2125   0.073   2.017   1.429
  361TCM    cl2 2126  -0.072   1.986   1.682
  361TCM     h1 2127   0.127   1.872   1.612
  361TCM    cl3 2128   0.200   2.090   1.681
  362TCM     c1 2129   4.462   0.478   3.913
  362TCM    cl1 2130   4.615   0.482   3.819
  362TCM    cl2 2131   4.482   0.368   4.053
  362TCM     h1 2132   4.438   0.579   3.948
  362TCM    cl3 2133   4.329   0.419   3.808
  363TCM     c1 2134   2.945   1.355   3.170
  363TCM    cl1 2135   2.800   1.371   3.275
  363TCM    cl2 2136   2.930   1.466   3.031
  363TCM     h1 2137   3.035   1.380   3.227
  363TCM    cl3 2138   2.958   1.186   3.111
  364TCM     c1 2139   1.973   1.373   4.175
  364TCM    cl1 2140   1.979   1.396   3.997
  364TCM    cl2 2141   1.868   1.499   4.248
  364TCM     h1 2142   1.933   1.273   4.198
  364TCM    cl3 2143   2.139   1.388   4.241
  365TCM     c1 2144   3.143   0.799   3.559
  365TCM    cl1 2145   3.106   0.637   3.628
  365TCM    cl2 2146   3.132   0.792   3.380
  365TCM     h1 2147   3.070   0.872   3.597
  365TCM    cl3 2148   3.308   0.848   3.607
  366TCM     c1 2149   1.477   0.031   3.677
  366TCM    cl1 2150   1.524  -0.007   3.509
  366TCM    cl2 2151   1.606   0.127   3.755
  366TCM     h1 2152   1.384   0.088   3.677
  366TCM    cl3 2153   1.452  -0.122   3.768
  367TCM     c1 2154   2.119   3.788   0.873
  367TCM    cl1 2155   2.283   3.854   0.844
  367TCM    cl2 2156   2.028   3.900   0.978
  367TCM     h1 2157   2.068   3.777   0.777
  367TCM    cl3 2158   2.132   3.627   0.952
  368TCM     c1 2159   3.416   1.620   4.279
  368TCM    cl1 2160   3.488   1.631   4.115
  368TCM    cl2 2161   3.407   1.448   4.329
  368TCM     h1 2162   3.477   1.676   4.350
  368TCM    cl3 2163   3.250   1.689   4.275
  369TCM     c1 2164   2.141   3.231   3.903
  369TCM    cl1 2165   2.312   3.283   3.889
  369TCM    cl2 2166   2.049   3.293   3.762
  369TCM     h1 2167   2.135   3.122   3.906
  369TCM    cl3 2168   2.072   3.299   4.054
  370TCM     c1 2169   2.897   0.647   4.729
  370TCM    cl1 2170   3.032   0.582   4.630
  370TCM    cl2 2171   2.914   0.826   4.742
  370TCM     h1 2172   2.802   0.623   4.682
  370TCM    cl3 2173   2.903   0.575   4.893
  371TCM     c1 2174   3.090   2.360   2.286
  371TCM    cl1 2175   3.151   2.353   2.118
  371TCM    cl2 2176   3.225   2.398   2.397
  371TCM     h1 2177   3.014   2.438   2.294
  371TCM    cl3 2178   3.018   2.202   2.330
  372TCM     c1 2179   4.695   3.853   0.666
  372TCM    cl1 2180   4.813   3.960   0.585
  372TCM    cl2 2181   4.753   3.811   0.830
  372TCM     h1 2182   4.599   3.904   0.673
  372TCM    cl3 2183   4.677   3.703   0.568
  373TCM     c1 2184   2.100   2.538   4.391
  373TCM    cl1 2185   2.074   2.361   4.376
  373TCM    cl2 2186   2.030   2.594   4.547
  373TCM     h1 2187   2.207   2.560   4.389
  373TCM    cl3 2188   2.019   2.622   4.255
  374TCM     c1 2189   2.729   3.748   4.201
  374TCM    cl1 2190   2.628   3.704   4.059
  374TCM    cl2 2191   2.890   3.669   4.186
  374TCM     h1 2192   2.743   3.856   4.204
  374TCM    cl3 2193   2.648   3.694   4.351
  375TCM     c1 2194   4.547   4.605   2.728
  375TCM    cl1 2195   4.627   4.675   2.873
  375TCM    cl2 2196   4.517   4.431   2.757
  375TCM     h1 2197   4.452   4.656   2.711
  375TCM    cl3 2198   4.653   4.625   2.586
  376TCM     c1 2199   2.136   3.164   1.792
  376TCM    cl1 2200   2.001   3.053   1.835
  376TCM    cl2 2201   2.293   3.086   1.833
  376TCM     h1 2202   2.133   3.186   1.685
  376TCM    cl3 2203   2.120   3.316   1.885
  377TCM     c1 2204   3.250   0.044   0.874
  377TCM    cl1 2205   3.305   0.208   0.923
  377TCM    cl2 2206   3.185   0.050   0.707
  377TCM     h1 2207   3.335  -0.025   0.877
  377TCM    cl3 2208   3.123  -0.012   0.988
  378TCM     c1 2209   4.973   3.386   2.846
  378TCM    cl1 2210   5.117   3.489   2.823
  378TCM    cl2 2211   5.013   3.216   2.803
  378TCM     h1 2212   4.940   3.391   2.950
  378TCM    cl3 2213   4.840   3.443   2.739
  379TCM     c1 2214   2.588   2.607   4.633
  379TCM    cl1 2215   2.691   2.582   4.488
  379TCM    cl2 2216   2.608   2.468   4.745
  379TCM     h1 2217   2.617   2.699   4.684
  379TCM    cl3 2218   2.417   2.618   4.580
  380TCM     c1 2219   2.170   0.218   0.149
  380TCM    cl1 2220   2.302   0.320   0.216
  380TCM    cl2 2221   2.159   0.248  -0.027
  380TCM     h1 2222   2.193   0.112   0.167
  380TCM    cl3 2223   2.015   0.260   0.227
  381TCM     c1 2224   3.100   0.017   1.920
  381TCM    cl1 2225   3.116  -0.007   2.098
  381TCM    cl2 2226   3.059   0.189   1.887
  381TCM     h1 2227   3.194  -0.008   1.871
  381TCM    cl3 2228   2.970  -0.090   1.859
  382TCM     c1 2229   1.514   3.265   4.480
  382TCM    cl1 2230   1.498   3.443   4.465
  382TCM    cl2 2231   1.475   3.215   4.648
  382TCM     h1 2232   1.445   3.217   4.411
  382TCM    cl3 2233   1.682   3.216   4.443
  383TCM     c1 2234   0.742   1.962   0.249
  383TCM    cl1 2235   0.810   1.808   0.310
  383TCM    cl2 2236   0.738   2.081   0.384
  383TCM     h1 2237   0.805   2.001   0.168
  383TCM    cl3 2238   0.575   1.935   0.189
  384TCM     c1 2239   2.896   4.661   3.259
  384TCM    cl1 2240   3.039   4.632   3.364
  384TCM    cl2 2241   2.850   4.507   3.179
  384TCM     h1 2242   2.813   4.698   3.319
  384TCM    cl3 2243   2.940   4.783   3.135
  385TCM     c1 2244   2.217   2.744   0.705
  385TCM    cl1 2245   2.285   2.596   0.781
  385TCM    cl2 2246   2.038   2.742   0.722
  385TCM     h1 2247   2.259   2.833   0.753
  385TCM    cl3 2248   2.259   2.745   0.530
  386TCM     c1 2249   3.008   4.850   3.930
  386TCM    cl1 2250   3.113   4.734   4.018
  386TCM    cl2 2251   2.879   4.761   3.842
  386TCM     h1 2252   2.963   4.920   4.000
  386TCM    cl3 2253   3.110   4.940   3.812
  387TCM     c1 2254   2.933   3.110   4.857
  387TCM    cl1 2255   2.849   3.064   4.706
  387TCM    cl2 2256   3.108   3.134   4.823
  387TCM     h1 2257   2.890   3.201   4.898
  387TCM    cl3 2258   2.916   2.976   4.976
  388TCM     c1 2259   0.210   0.031   4.077
  388TCM    cl1 2260   0.077  -0.089   4.063
  388TCM    cl2 2261   0.319  -0.017   4.212
  388TCM     h1 2262   0.266   0.034   3.984
  388TCM    cl3 2263   0.141   0.193   4.112
  389TCM     c1 2264   2.560   2.052   4.054
  389TCM    cl1 2265   2.505   2.207   3.983
  389TCM    cl2 2266   2.687   2.085   4.177
  389TCM     h1 2267   2.476   2.001   4.102
  389TCM    cl3 2268   2.627   1.947   3.925
  390TCM     c1 2269   0.834   1.000   4.892
  390TCM    cl1 2270   0.687   0.913   4.837
  390TCM    cl2 2271   0.848   1.154   4.800
  390TCM     h1 2272   0.826   1.022   4.998
  390TCM    cl3 2273   0.978   0.898   4.862
  391TCM     c1 2274   4.861   2.757   1.870
  391TCM    cl1 2275   4.886   2.722   1.696
  391TCM    cl2 2276   4.695   2.820   1.896
  391TCM     h1 2277   4.875   2.666   1.929
  391TCM    cl3 2278   4.980   2.881   1.923
  392TCM     c1 2279   3.002   3.207   0.359
  392TCM    cl1 2280   2.973   3.355   0.456
  392TCM    cl2 2281   3.166   3.144   0.395
  392TCM     h1 2282   2.927   3.131   0.384
  392TCM    cl3 2283   2.991   3.246   0.185
  393TCM     c1 2284   2.627   4.339   1.463
  393TCM    cl1 2285   2.559   4.249   1.602
  393TCM    cl2 2286   2.574   4.510   1.473
  393TCM     h1 2287   2.737   4.334   1.466
  393TCM    cl3 2288   2.568   4.270   1.309
  394TCM     c1 2289   2.583   3.696   4.724
  394TCM    cl1 2290   2.715   3.752   4.831
  394TCM    cl2 2291   2.428   3.700   4.814
  394TCM     h1 2292   2.576   3.761   4.636
  394TCM    cl3 2293   2.618   3.528   4.672
  395TCM     c1 2294   3.989   3.637   2.612
  395TCM    cl1 2295   4.002   3.804   2.677
  395TCM    cl2 2296   4.013   3.639   2.434
  395TCM     h1 2297   4.066   3.574   2.659
  395TCM    cl3 2298   3.826   3.571   2.649
  396TCM     c1 2299   4.985   0.919   4.846
  396TCM    cl1 2300   4.964   0.967   4.675
  396TCM    cl2 2301   5.073   0.762   4.853
  396TCM     h1 2302   5.043   0.995   4.899
  396TCM    cl3 2303   4.825   0.900   4.925
  397TCM     c1 2304   4.934   2.033   0.536
  397TCM    cl1 2305   4.778   1.953   0.575
  397TCM    cl2 2306   4.916   2.130   0.386
  397TCM     h1 2307   4.963   2.098   0.618
  397TCM    cl3 2308   5.060   1.908   0.509
  398TCM     c1 2309   3.914   0.029   3.262
  398TCM    cl1 2310   3.879   0.203   3.231
  398TCM    cl2 2311   3.767  -0.051   3.328
  398TCM     h1 2312   3.942  -0.019   3.168
  398TCM    cl3 2313   4.049   0.016   3.379
  399TCM     c1 2314   4.792   2.159   4.872
  399TCM    cl1 2315   4.905   2.116   5.005
  399TCM    cl2 2316   4.862   2.105   4.716
  399TCM     h1 2317   4.696   2.109   4.888
  399TCM    cl3 2318   4.769   2.336   4.867
  400TCM     c1 2319   2.624   1.128   3.493
  400TCM    cl1 2320   2.734   1.026   3.395
  400TCM    cl2 2321   2.720   1.232   3.604
  400TCM     h1 2322   2.565   1.191   3.426
  400TCM    cl3 2323   2.514   1.024   3.590
  401TCM     c1 2324   2.882   4.043   4.540
  401TCM    cl1 2325   2.709   4.000   4.549
  401TCM    cl2 2326   2.953   3.971   4.392
  401TCM     h1 2327   2.893   4.152   4.536
  401TCM    cl3 2328   2.968   3.981   4.685
  402TCM     c1 2329   1.458   4.879   0.420
  402TCM    cl1 2330   1.441   5.003   0.291
  402TCM    cl2 2331   1.601   4.776   0.385
  402TCM     h1 2332   1.472   4.929   0.516
  402TCM    cl3 2333   1.311   4.777   0.425
  403TCM     c1 2334   1.422   2.817   4.461
  403TCM    cl1 2335   1.571   2.853   4.555
  403TCM    cl2 2336   1.386   2.953   4.351
  403TCM     h1 2337   1.436   2.725   4.403
  403TCM    cl3 2338   1.284   2.797   4.575
  404TCM     c1 2339   0.904   1.921   2.192
  404TCM    cl1 2340   0.802   2.042   2.277
  404TCM    cl2 2341   0.806   1.839   2.067
  404TCM     h1 2342   0.991   1.970   2.145
  404TCM    cl3 2343   0.959   1.800   2.313
  405TCM     c1 2344   1.356   0.947   0.131
  405TCM    cl1 2345   1.455   1.095   0.112
  405TCM    cl2 2346   1.335   0.867  -0.029
  405TCM     h1 2347   1.407   0.878   0.199
  405TCM    cl3 2348   1.196   0.990   0.198
  406TCM     c1 2349   0.470   4.904   3.069
  406TCM    cl1 2350   0.341   4.991   3.157
  406TCM    cl2 2351   0.546   5.017   2.952
  406TCM     h1 2352   0.545   4.868   3.140
  406TCM    cl3 2353   0.401   4.766   2.978
  407TCM     c1 2354   2.695   3.557   0.219
  407TCM    cl1 2355   2.549   3.641   0.158
  407TCM    cl2 2356   2.793   3.508   0.077
  407TCM     h1 2357   2.753   3.624   0.283
  407TCM    cl3 2358   2.646   3.412   0.311
  408TCM     c1 2359   0.163   1.493   0.763
  408TCM    cl1 2360   0.241   1.570   0.905
  408TCM    cl2 2361   0.133   1.370   0.890
  408TCM     h1 2362   0.058   1.471   0.743
  408TCM    cl3 2363   0.097   1.660   0.754
  409TCM     c1 2364   3.359   4.232   4.027
  409TCM    cl1 2365   3.496   4.139   3.957
  409TCM    cl2 2366   3.205   4.149   3.990
  409TCM     h1 2367   3.371   4.238   4.135
  409TCM    cl3 2368   3.357   4.397   3.957
  410TCM     c1 2369   4.140   3.476   4.683
  410TCM    cl1 2370   4.209   3.391   4.825
  410TCM    cl2 2371   4.036   3.611   4.739
  410TCM     h1 2372   4.221   3.516   4.620
  410TCM    cl3 2373   4.042   3.360   4.588
  411TCM     c1 2374   2.919   0.014   1.464
  411TCM    cl1 2375   3.076   0.056   1.540
  411TCM    cl2 2376   2.785   0.074   1.567
  411TCM     h1 2377   2.913   0.060   1.365
  411TCM    cl3 2378   2.907  -0.164   1.448
  412TCM     c1 2379   4.765   4.728   4.184
  412TCM    cl1 2380   4.657   4.847   4.264
  412TCM    cl2 2381   4.673   4.635   4.062
  412TCM     h1 2382   4.847   4.781   4.134
  412TCM    cl3 2383   4.831   4.615   4.306
  413TCM     c1 2384   3.924   0.718   1.772
  413TCM    cl1 2385   3.875   0.586   1.883
  413TCM    cl2 2386   3.831   0.867   1.810
  413TCM     h1 2387   4.031   0.737   1.783
  413TCM    cl3 2388   3.889   0.669   1.603
  414TCM     c1 2389   2.441   4.140   2.107
  414TCM    cl1 2390   2.407   3.971   2.056
  414TCM    cl2 2391   2.349   4.176   2.257
  414TCM     h1 2392   2.548   4.152   2.125
  414TCM    cl3 2393   2.389   4.252   1.977
  415TCM     c1 2394   1.903   2.244   0.268
  415TCM    cl1 2395   1.742   2.190   0.327
  415TCM    cl2 2396   2.028   2.194   0.386
  415TCM     h1 2397   1.924   2.199   0.171
  415TCM    cl3 2398   1.905   2.423   0.252
  416TCM     c1 2399   2.108   4.205   0.114
  416TCM    cl1 2400   2.131   4.027   0.105
  416TCM    cl2 2401   2.021   4.260  -0.034
  416TCM     h1 2402   2.049   4.230   0.202
  416TCM    cl3 2403   2.267   4.286   0.122
  417TCM     c1 2404   3.714   0.755   2.255
  417TCM    cl1 2405   3.879   0.796   2.196
  417TCM    cl2 2406   3.604   0.734   2.115
  417TCM     h1 2407   3.718   0.662   2.312
  417TCM    cl3 2408   3.653   0.888   2.359
  418TCM     c1 2409   3.549   3.975   0.806
  418TCM    cl1 2410   3.502   3.946   0.635
  418TCM    cl2 2411   3.684   3.865   0.847
  418TCM     h1 2412   3.581   4.078   0.818
  418TCM    cl3 2413   3.409   3.942   0.913
  419TCM     c1 2414   1.691   3.861   2.093
  419TCM    cl1 2415   1.751   3.695   2.128
  419TCM    cl2 2416   1.639   3.938   2.247
  419TCM     h1 2417   1.770   3.920   2.047
  419TCM    cl3 2418   1.551   3.852   1.981
  420TCM     c1 2419   4.949   2.400   2.817
  420TCM    cl1 2420   4.784   2.402   2.746
  420TCM    cl2 2421   4.943   2.320   2.978
  420TCM     h1 2422   5.017   2.345   2.751
  420TCM    cl3 2423   5.007   2.568   2.836
  421TCM     c1 2424   0.894   4.385   3.253
  421TCM    cl1 2425   1.005   4.508   3.322
  421TCM    cl2 2426   0.967   4.316   3.105
  421TCM     h1 2427   0.878   4.306   3.326
  421TCM    cl3 2428   0.738   4.463   3.212
  422TCM     c1 2429   0.649   3.936   0.375
  422TCM    cl1 2430   0.507   3.957   0.483
  422TCM    cl2 2431   0.791   3.882   0.471
  422TCM     h1 2432   0.626   3.860   0.300
  422TCM    cl3 2433   0.687   4.091   0.293
  423TCM     c1 2434   3.149   2.357   0.611
  423TCM    cl1 2435   3.317   2.331   0.555
  423TCM    cl2 2436   3.146   2.478   0.743
  423TCM     h1 2437   3.088   2.394   0.527
  423TCM    cl3 2438   3.082   2.202   0.671
  424TCM     c1 2439   0.568   1.709   2.297
  424TCM    cl1 2440   0.486   1.560   2.241
  424TCM    cl2 2441   0.572   1.713   2.476
  424TCM     h1 2442   0.670   1.710   2.259
  424TCM    cl3 2443   0.478   1.851   2.236
  425TCM     c1 2444   2.400   0.447   4.799
  425TCM    cl1 2445   2.253   0.527   4.735
  425TCM    cl2 2446   2.540   0.557   4.782
  425TCM     h1 2447   2.386   0.422   4.905
  425TCM    cl3 2448   2.431   0.297   4.705
  426TCM     c1 2449   0.502   4.033   4.001
  426TCM    cl1 2450   0.519   4.173   3.890
  426TCM    cl2 2451   0.394   3.911   3.926
  426TCM     h1 2452   0.600   3.988   4.019
  426TCM    cl3 2453   0.432   4.087   4.157
  427TCM     c1 2454   4.685   3.499   1.567
  427TCM    cl1 2455   4.750   3.561   1.722
  427TCM    cl2 2456   4.739   3.330   1.541
  427TCM     h1 2457   4.576   3.502   1.568
  427TCM    cl3 2458   4.746   3.600   1.432
  428TCM     c1 2459   2.538   2.156   0.042
  428TCM    cl1 2460   2.537   1.983   0.087
  428TCM    cl2 2461   2.405   2.189  -0.074
  428TCM     h1 2462   2.525   2.218   0.132
  428TCM    cl3 2463   2.695   2.196  -0.035
  429TCM     c1 2464   0.356   4.517   3.440
  429TCM    cl1 2465   0.185   4.483   3.398
  429TCM    cl2 2466   0.427   4.631   3.321
  429TCM     h1 2467   0.361   4.560   3.540
  429TCM    cl3 2468   0.449   4.363   3.436
  430TCM     c1 2469   3.085   2.007   1.862
  430TCM    cl1 2470   3.251   2.076   1.866
  430TCM    cl2 2471   2.982   2.107   1.755
  430TCM     h1 2472   3.089   1.905   1.825
  430TCM    cl3 2473   3.016   2.007   2.028
  431TCM     c1 2474   4.095   0.978   4.640
  431TCM    cl1 2475   4.124   0.802   4.661
  431TCM    cl2 2476   4.253   1.063   4.631
  431TCM     h1 2477   4.039   0.996   4.548
  431TCM    cl3 2478   4.001   1.039   4.780
  432TCM     c1 2479   1.088   1.963   4.425
  432TCM    cl1 2480   1.192   2.110   4.427
  432TCM    cl2 2481   1.163   1.840   4.318
  432TCM     h1 2482   1.079   1.924   4.526
  432TCM    cl3 2483   0.925   2.006   4.362
  433TCM     c1 2484   0.511   0.001   2.104
  433TCM    cl1 2485   0.581   0.132   2.206
  433TCM    cl2 2486   0.448   0.073   1.952
  433TCM     h1 2487   0.588  -0.073   2.081
  433TCM    cl3 2488   0.376  -0.076   2.193
  434TCM     c1 2489   3.717   4.823   0.822
  434TCM    cl1 2490   3.833   4.882   0.945
  434TCM    cl2 2491   3.809   4.758   0.682
  434TCM     h1 2492   3.654   4.745   0.865
  434TCM    cl3 2493   3.614   4.960   0.767
  435TCM     c1 2494   3.034   2.125   3.506
  435TCM    cl1 2495   3.161   2.233   3.442
  435TCM    cl2 2496   3.111   1.984   3.586
  435TCM     h1 2497   2.972   2.179   3.579
  435TCM    cl3 2498   2.931   2.067   3.371
  436TCM     c1 2499   3.369   2.327   3.131
  436TCM    cl1 2500   3.277   2.274   2.987
  436TCM    cl2 2501   3.290   2.472   3.201
  436TCM     h1 2502   3.372   2.247   3.205
  436TCM    cl3 2503   3.537   2.369   3.082
  437TCM     c1 2504   3.191   4.092   1.711
  437TCM    cl1 2505   3.120   3.989   1.840
  437TCM    cl2 2506   3.061   4.156   1.605
  437TCM     h1 2507   3.245   4.175   1.757
  437TCM    cl3 2508   3.304   3.993   1.614
  438TCM     c1 2509   0.310   2.466   1.543
  438TCM    cl1 2510   0.462   2.515   1.463
  438TCM    cl2 2511   0.217   2.358   1.434
  438TCM     h1 2512   0.333   2.412   1.636
  438TCM    cl3 2513   0.212   2.611   1.581
  439TCM     c1 2514   1.104   3.456   4.178
  439TCM    cl1 2515   1.059   3.305   4.094
  439TCM    cl2 2516   1.020   3.595   4.103
  439TCM     h1 2517   1.076   3.449   4.283
  439TCM    cl3 2518   1.282   3.480   4.166
  440TCM     c1 2519   4.945   2.566   1.315
  440TCM    cl1 2520   4.816   2.691   1.313
  440TCM    cl2 2521   5.089   2.629   1.228
  440TCM     h1 2522   4.972   2.543   1.418
  440TCM    cl3 2523   4.887   2.417   1.233
  441TCM     c1 2524   3.617   0.815   1.391
  441TCM    cl1 2525   3.473   0.709   1.406
  441TCM    cl2 2526   3.619   0.935   1.525
  441TCM     h1 2527   3.708   0.754   1.395
  441TCM    cl3 2528   3.610   0.902   1.234
  442TCM     c1 2529   3.642   1.306   4.590
  442TCM    cl1 2530   3.769   1.199   4.522
  442TCM    cl2 2531   3.691   1.477   4.569
  442TCM     h1 2532   3.547   1.288   4.539
  442TCM    cl3 2533   3.622   1.270   4.765
  443TCM     c1 2534   0.570   3.562   4.089
  443TCM    cl1 2535   0.641   3.714   4.153
  443TCM    cl2 2536   0.686   3.427   4.115
  443TCM     h1 2537   0.476   3.540   4.141
  443TCM    cl3 2538   0.539   3.580   3.914
  444TCM     c1 2539   3.423   2.866   0.027
  444TCM    cl1 2540   3.427   2.954  -0.130
  444TCM    cl2 2541   3.262   2.887   0.103
  444TCM     h1 2542   3.442   2.760   0.009
  444TCM    cl3 2543   3.550   2.932   0.135
  445TCM     c1 2544   0.019   3.231   3.816
  445TCM    cl1 2545  -0.050   3.171   3.662
  445TCM    cl2 2546  -0.110   3.241   3.940
  445TCM     h1 2547   0.098   3.164   3.850
  445TCM    cl3 2548   0.088   3.395   3.789
  446TCM     c1 2549   4.455   0.736   4.818
  446TCM    cl1 2550   4.576   0.628   4.893
  446TCM    cl2 2551   4.493   0.755   4.644
  446TCM     h1 2552   4.355   0.693   4.829
  446TCM    cl3 2553   4.460   0.897   4.898
  447TCM     c1 2554   0.696   2.434   0.251
  447TCM    cl1 2555   0.872   2.404   0.247
  447TCM    cl2 2556   0.613   2.318   0.142
  447TCM     h1 2557   0.659   2.421   0.353
  447TCM    cl3 2558   0.663   2.601   0.194
  448TCM     c1 2559   4.667   1.098   4.465
  448TCM    cl1 2560   4.520   1.147   4.375
  448TCM    cl2 2561   4.716   0.933   4.413
  448TCM     h1 2562   4.748   1.168   4.445
  448TCM    cl3 2563   4.631   1.097   4.641
  449TCM     c1 2564   4.986   2.017   3.378
  449TCM    cl1 2565   4.936   2.188   3.354
  449TCM    cl2 2566   5.064   1.956   3.228
  449TCM     h1 2567   5.056   2.011   3.462
  449TCM    cl3 2568   4.842   1.916   3.414
  450TCM     c1 2569   3.431   0.422   3.781
  450TCM    cl1 2570   3.445   0.498   3.618
  450TCM    cl2 2571   3.360   0.540   3.896
  450TCM     h1 2572   3.367   0.334   3.775
  450TCM    cl3 2573   3.594   0.375   3.837
  451TCM     c1 2574   3.964   3.570   1.503
  451TCM    cl1 2575   4.122   3.566   1.419
  451TCM    cl2 2576   3.865   3.431   1.448
  451TCM     h1 2577   3.980   3.564   1.611
  451TCM    cl3 2578   3.879   3.723   1.464
  452TCM     c1 2579   0.446   4.903   1.513
  452TCM    cl1 2580   0.425   4.836   1.678
  452TCM    cl2 2581   0.360   4.799   1.395
  452TCM     h1 2582   0.404   5.004   1.510
  452TCM    cl3 2583   0.621   4.909   1.474
  453TCM     c1 2584   2.184   3.449   3.411
  453TCM    cl1 2585   2.341   3.398   3.480
  453TCM    cl2 2586   2.214   3.537   3.257
  453TCM     h1 2587   2.121   3.362   3.392
  453TCM    cl3 2588   2.101   3.559   3.525
  454TCM     c1 2589   4.455   3.495   1.141
  454TCM    cl1 2590   4.356   3.645   1.143
  454TCM    cl2 2591   4.455   3.421   1.305
  454TCM     h1 2592   4.414   3.425   1.069
  454TCM    cl3 2593   4.624   3.536   1.094
  455TCM     c1 2594   3.374   4.009   4.408
  455TCM    cl1 2595   3.262   4.147   4.381
  455TCM    cl2 2596   3.405   3.928   4.251
  455TCM     h1 2597   3.468   4.046   4.449
  455TCM    cl3 2598   3.300   3.893   4.523
  456TCM     c1 2599   1.815   1.720   4.598
  456TCM    cl1 2600   1.796   1.898   4.613
  456TCM    cl2 2601   1.696   1.639   4.706
  456TCM     h1 2602   1.797   1.690   4.495
  456TCM    cl3 2603   1.981   1.674   4.647
  457TCM     c1 2604   1.614   3.318   1.918
  457TCM    cl1 2605   1.537   3.476   1.949
  457TCM    cl2 2606   1.772   3.311   2.002
  457TCM     h1 2607   1.550   3.238   1.955
  457TCM    cl3 2608   1.638   3.297   1.741
  458TCM     c1 2609   1.909   4.490   1.329
  458TCM    cl1 2610   1.853   4.320   1.334
  458TCM    cl2 2611   1.956   4.542   1.494
  458TCM     h1 2612   1.996   4.497   1.263
  458TCM    cl3 2613   1.777   4.594   1.268
  459TCM     c1 2614   4.258   4.177   3.442
  459TCM    cl1 2615   4.158   4.135   3.299
  459TCM    cl2 2616   4.153   4.187   3.588
  459TCM     h1 2617   4.334   4.100   3.457
  459TCM    cl3 2618   4.338   4.335   3.415
  460TCM     c1 2619   0.392   0.389   3.512
  460TCM    cl1 2620   0.282   0.486   3.616
  460TCM    cl2 2621   0.329   0.222   3.497
  460TCM     h1 2622   0.398   0.435   3.413
  460TCM    cl3 2623   0.555   0.384   3.587
  461TCM     c1 2624   1.823   3.928   0.459
  461TCM    cl1 2625   1.869   3.789   0.356
  461TCM    cl2 2626   1.644   3.936   0.471
  461TCM     h1 2627   1.865   3.915   0.559
  461TCM    cl3 2628   1.884   4.081   0.387
  462TCM     c1 2629   0.566   1.583   0.482
  462TCM    cl1 2630   0.477   1.456   0.571
  462TCM    cl2 2631   0.512   1.744   0.539
  462TCM     h1 2632   0.674   1.572   0.499
  462TCM    cl3 2633   0.533   1.569   0.306
  463TCM     c1 2634   0.058   4.179   3.809
  463TCM    cl1 2635   0.046   4.026   3.715
  463TCM    cl2 2636   0.175   4.290   3.730
  463TCM     h1 2637  -0.041   4.227   3.812
  463TCM    cl3 2638   0.112   4.143   3.976
  464TCM     c1 2639   4.433   1.294   4.902
  464TCM    cl1 2640   4.496   1.402   5.031
  464TCM    cl2 2641   4.425   1.387   4.749
  464TCM     h1 2642   4.500   1.208   4.890
  464TCM    cl3 2643   4.270   1.236   4.949
  465TCM     c1 2644   0.384   0.173   2.650
  465TCM    cl1 2645   0.330   0.184   2.479
  465TCM    cl2 2646   0.278   0.057   2.737
  465TCM     h1 2647   0.487   0.139   2.654
  465TCM    cl3 2648   0.370   0.334   2.727
  466TCM     c1 2649   0.140   1.554   2.127
  466TCM    cl1 2650  -0.031   1.502   2.133
  466TCM    cl2 2651   0.149   1.728   2.083
  466TCM     h1 2652   0.187   1.538   2.224
  466TCM    cl3 2653   0.226   1.458   2.002
  467TCM     c1 2654   3.667   1.991   1.257
  467TCM    cl1 2655   3.683   2.124   1.137
  467TCM    cl2 2656   3.535   1.881   1.207
  467TCM     h1 2657   3.761   1.936   1.263
  467TCM    cl3 2658   3.628   2.061   1.418
  468TCM     c1 2659   2.684   0.700   4.328
  468TCM    cl1 2660   2.622   0.805   4.196
  468TCM    cl2 2661   2.643   0.774   4.487
  468TCM     h1 2662   2.639   0.601   4.321
  468TCM    cl3 2663   2.862   0.685   4.313
  469TCM     c1 2664   4.465   2.295   4.604
  469TCM    cl1 2665   4.445   2.420   4.730
  469TCM    cl2 2666   4.480   2.133   4.679
  469TCM     h1 2667   4.378   2.296   4.537
  469TCM    cl3 2668   4.613   2.330   4.508
  470TCM     c1 2669   2.401   0.136   3.986
  470TCM    cl1 2670   2.303   0.167   4.133
  470TCM    cl2 2671   2.311   0.022   3.882
  470TCM     h1 2672   2.418   0.230   3.932
  470TCM    cl3 2673   2.558   0.065   4.033
  471TCM     c1 2674   3.101   1.893   3.100
  471TCM    cl1 2675   3.167   1.735   3.045
  471TCM    cl2 2676   3.058   1.994   2.959
  471TCM     h1 2677   3.013   1.877   3.162
  471TCM    cl3 2678   3.228   1.978   3.194
  472TCM     c1 2679   3.696   1.474   1.260
  472TCM    cl1 2680   3.789   1.600   1.173
  472TCM    cl2 2681   3.748   1.311   1.206
  472TCM     h1 2682   3.713   1.483   1.368
  472TCM    cl3 2683   3.521   1.495   1.226
  473TCM     c1 2684   1.993   2.457   3.552
  473TCM    cl1 2685   2.041   2.567   3.419
  473TCM    cl2 2686   2.037   2.534   3.708
  473TCM     h1 2687   1.885   2.440   3.549
  473TCM    cl3 2688   2.079   2.301   3.535
  474TCM     c1 2689   2.398   3.433   4.384
  474TCM    cl1 2690   2.297   3.525   4.500
  474TCM    cl2 2691   2.357   3.484   4.217
  474TCM     h1 2692   2.504   3.453   4.404
  474TCM    cl3 2693   2.366   3.257   4.402
  475TCM     c1 2694   2.802   1.506   2.682
  475TCM    cl1 2695   2.728   1.356   2.747
  475TCM    cl2 2696   2.678   1.634   2.669
  475TCM     h1 2697   2.883   1.539   2.748
  475TCM    cl3 2698   2.869   1.472   2.519
  476TCM     c1 2699   4.526   2.206   0.207
  476TCM    cl1 2700   4.656   2.329   0.219
  476TCM    cl2 2701   4.588   2.047   0.260
  476TCM     h1 2702   4.442   2.236   0.271
  476TCM    cl3 2703   4.470   2.195   0.037
  477TCM     c1 2704   3.038   4.037   3.408
  477TCM    cl1 2705   2.957   4.193   3.368
  477TCM    cl2 2706   3.111   3.969   3.259
  477TCM     h1 2707   3.115   4.054   3.483
  477TCM    cl3 2708   2.916   3.921   3.470
  478TCM     c1 2709   4.954   3.707   0.277
  478TCM    cl1 2710   4.830   3.835   0.253
  478TCM    cl2 2711   5.075   3.760   0.398
  478TCM     h1 2712   4.906   3.615   0.311
  478TCM    cl3 2713   5.036   3.677   0.120
  479TCM     c1 2714   1.473   1.842   2.540
  479TCM    cl1 2715   1.558   1.999   2.560
  479TCM    cl2 2716   1.297   1.869   2.564
  479TCM     h1 2717   1.492   1.803   2.440
  479TCM    cl3 2718   1.533   1.725   2.661
  480TCM     c1 2719   2.720   2.717   1.112
  480TCM    cl1 2720   2.554   2.730   1.047
  480TCM    cl2 2721   2.813   2.595   1.018
  480TCM     h1 2722   2.770   2.814   1.104
  480TCM    cl3 2723   2.713   2.668   1.285
  481TCM     c1 2724   0.027   3.323   3.338
  481TCM    cl1 2725   0.087   3.299   3.171
  481TCM    cl2 2726  -0.152   3.338   3.336
  481TCM     h1 2727   0.056   3.238   3.400
  481TCM    cl3 2728   0.098   3.474   3.405
  482TCM     c1 2729   2.375   4.253   2.908
  482TCM    cl1 2730   2.522   4.342   2.961
  482TCM    cl2 2731   2.284   4.200   3.054
  482TCM     h1 2732   2.312   4.318   2.847
  482TCM    cl3 2733   2.423   4.109   2.814
  483TCM     c1 2734   4.985   2.273   3.738
  483TCM    cl1 2735   5.138   2.212   3.665
  483TCM    cl2 2736   5.017   2.327   3.906
  483TCM     h1 2737   4.948   2.357   3.678
  483TCM    cl3 2738   4.864   2.141   3.738
  484TCM     c1 2739   2.259   1.984   3.539
  484TCM    cl1 2740   2.277   2.001   3.362
  484TCM    cl2 2741   2.395   2.068   3.622
  484TCM     h1 2742   2.164   2.028   3.571
  484TCM    cl3 2743   2.263   1.810   3.583
  485TCM     c1 2744   2.273   0.216   3.474
  485TCM    cl1 2745   2.094   0.211   3.459
  485TCM    cl2 2746   2.332   0.381   3.434
  485TCM     h1 2747   2.302   0.190   3.576
  485TCM    cl3 2748   2.346   0.099   3.360
  486TCM     c1 2749   0.452   0.673   4.701
  486TCM    cl1 2750   0.593   0.575   4.646
  486TCM    cl2 2751   0.427   0.649   4.877
  486TCM     h1 2752   0.473   0.778   4.681
  486TCM    cl3 2753   0.305   0.623   4.612
  487TCM     c1 2754   3.997   0.733   3.530
  487TCM    cl1 2755   4.031   0.674   3.696
  487TCM    cl2 2756   4.120   0.857   3.485
  487TCM     h1 2757   4.003   0.650   3.459
  487TCM    cl3 2758   3.834   0.807   3.524
  488TCM     c1 2759   3.343   4.310   3.150
  488TCM    cl1 2760   3.183   4.266   3.081
  488TCM    cl2 2761   3.317   4.403   3.301
  488TCM     h1 2762   3.400   4.220   3.171
  488TCM    cl3 2763   3.431   4.411   3.030
  489TCM     c1 2764   2.059   2.453   3.075
  489TCM    cl1 2765   2.046   2.290   3.150
  489TCM    cl2 2766   1.895   2.518   3.047
  489TCM     h1 2767   2.114   2.519   3.142
  489TCM    cl3 2768   2.145   2.440   2.918
  490TCM     c1 2769   1.527   0.345   0.026
  490TCM    cl1 2770   1.512   0.523   0.008
  490TCM    cl2 2771   1.364   0.276   0.055
  490TCM     h1 2772   1.569   0.302  -0.065
  490TCM    cl3 2773   1.634   0.308   0.165
  491TCM     c1 2774   2.037   4.087   4.167
  491TCM    cl1 2775   2.178   4.195   4.138
  491TCM    cl2 2776   1.954   4.139   4.317
  491TCM     h1 2777   1.968   4.092   4.082
  491TCM    cl3 2778   2.096   3.919   4.187
  492TCM     c1 2779   0.937   3.673   0.058
  492TCM    cl1 2780   0.991   3.687  -0.113
  492TCM    cl2 2781   0.898   3.502   0.095
  492TCM     h1 2782   1.017   3.707   0.125
  492TCM    cl3 2783   0.791   3.774   0.084
  493TCM     c1 2784   0.121   2.974   1.524
  493TCM    cl1 2785  -0.020   3.064   1.461
  493TCM    cl2 2786   0.215   3.080   1.635
  493TCM     h1 2787   0.087   2.886   1.579
  493TCM    cl3 2788   0.226   2.924   1.388
  494TCM     c1 2789   3.520   0.983   3.340
  494TCM    cl1 2790   3.368   1.062   3.289
  494TCM    cl2 2791   3.658   1.056   3.250
  494TCM     h1 2792   3.535   0.997   3.447
  494TCM    cl3 2793   3.512   0.807   3.303
  495TCM     c1 2794   1.663   4.514   0.705
  495TCM    cl1 2795   1.714   4.355   0.639
  495TCM    cl2 2796   1.694   4.517   0.882
  495TCM     h1 2797   1.720   4.593   0.657
  495TCM    cl3 2798   1.488   4.538   0.675
  496TCM     c1 2799   2.819   2.289   3.810
  496TCM    cl1 2800   2.717   2.229   3.675
  496TCM    cl2 2801   2.925   2.420   3.749
  496TCM     h1 2802   2.755   2.327   3.890
  496TCM    cl3 2803   2.921   2.155   3.871
  497TCM     c1 2804   4.846   3.065   1.034
  497TCM    cl1 2805   4.965   2.958   1.114
  497TCM    cl2 2806   4.898   3.095   0.865
  497TCM     h1 2807   4.747   3.018   1.035
  497TCM    cl3 2808   4.838   3.222   1.122
  498TCM     c1 2809   1.775   4.973   4.939
  498TCM    cl1 2810   1.806   5.144   4.894
  498TCM    cl2 2811   1.599   4.950   4.967
  498TCM     h1 2812   1.809   4.907   4.858
  498TCM    cl3 2813   1.864   4.935   5.090
  499TCM     c1 2814   1.854   2.803   4.840
  499TCM    cl1 2815   1.777   2.643   4.815
  499TCM    cl2 2816   1.971   2.790   4.976
  499TCM     h1 2817   1.906   2.833   4.749
  499TCM    cl3 2818   1.730   2.926   4.882
  500TCM     c1 2819   2.583   3.462   2.407
  500TCM    cl1 2820   2.622   3.288   2.420
  500TCM    cl2 2821   2.724   3.558   2.463
  500TCM     h1 2822   2.561   3.487   2.302
  500TCM    cl3 2823   2.441   3.499   2.509
  501TCM     c1 2824   1.159   4.869   2.743
  501TCM    cl1 2825   1.159   4.988   2.608
  501TCM    cl2 2826   1.136   4.956   2.898
  501TCM     h1 2827   1.078   4.797   2.728
  501TCM    cl3 2828   1.316   4.783   2.745
  502TCM     c1 2829   4.984   4.697   2.972
  502TCM    cl1 2830   5.038   4.868   2.989
  502TCM    cl2 2831   5.096   4.588   3.060
  502TCM     h1 2832   4.883   4.687   3.013
  502TCM    cl3 2833   4.984   4.654   2.798
  503TCM     c1 2834   2.620   3.413   2.921
  503TCM    cl1 2835   2.688   3.553   2.831
  503TCM    cl2 2836   2.517   3.315   2.811
  503TCM     h1 2837   2.701   3.351   2.959
  503TCM    cl3 2838   2.520   3.473   3.057
  504TCM     c1 2839   4.942   4.587   4.928
  504TCM    cl1 2840   4.906   4.526   5.093
  504TCM    cl2 2841   4.924   4.452   4.811
  504TCM     h1 2842   4.872   4.667   4.903
  504TCM    cl3 2843   5.110   4.649   4.924
  505TCM     c1 2844   1.427   3.706   4.836
  505TCM    cl1 2845   1.319   3.821   4.750
  505TCM    cl2 2846   1.375   3.538   4.802
  505TCM     h1 2847   1.530   3.720   4.802
  505TCM    cl3 2848   1.416   3.736   5.012
  506TCM     c1 2849   0.140   1.603   3.106
  506TCM    cl1 2850   0.042   1.603   2.956
  506TCM    cl2 2851   0.291   1.696   3.078
  506TCM     h1 2852   0.083   1.649   3.186
  506TCM    cl3 2853   0.181   1.434   3.151
  507TCM     c1 2854   4.690   4.896   4.645
  507TCM    cl1 2855   4.532   4.962   4.699
  507TCM    cl2 2856   4.694   4.720   4.680
  507TCM     h1 2857   4.702   4.912   4.537
  507TCM    cl3 2858   4.822   4.978   4.734
  508TCM     c1 2859   1.895   4.788   4.330
  508TCM    cl1 2860   1.953   4.836   4.493
  508TCM    cl2 2861   2.004   4.856   4.205
  508TCM     h1 2862   1.895   4.679   4.322
  508TCM    cl3 2863   1.729   4.850   4.303
  509TCM     c1 2864   3.336   4.238   1.339
  509TCM    cl1 2865   3.268   4.384   1.419
  509TCM    cl2 2866   3.513   4.232   1.368
  509TCM     h1 2867   3.289   4.149   1.381
  509TCM    cl3 2868   3.304   4.246   1.163
  510TCM     c1 2869   0.051   4.823   0.579
  510TCM    cl1 2870   0.200   4.755   0.651
  510TCM    cl2 2871   0.070   5.000   0.559
  510TCM     h1 2872   0.033   4.776   0.481
  510TCM    cl3 2873  -0.089   4.790   0.687
  511TCM     c1 2874   3.893   4.713   0.177
  511TCM    cl1 2875   3.735   4.796   0.181
  511TCM    cl2 2876   3.872   4.550   0.104
  511TCM     h1 2877   3.964   4.771   0.117
  511TCM    cl3 2878   3.956   4.696   0.344
  512TCM     c1 2879   0.626   4.424   2.311
  512TCM    cl1 2880   0.781   4.415   2.402
  512TCM    cl2 2881   0.642   4.335   2.156
  512TCM     h1 2882   0.547   4.379   2.370
  512TCM    cl3 2883   0.586   4.596   2.277
  513TCM     c1 2884   2.735   4.760   4.392
  513TCM    cl1 2885   2.645   4.870   4.501
  513TCM    cl2 2886   2.773   4.847   4.239
  513TCM     h1 2887   2.828   4.730   4.440
  513TCM    cl3 2888   2.634   4.616   4.359
  514TCM     c1 2889   4.526   3.869   1.564
  514TCM    cl1 2890   4.467   4.030   1.509
  514TCM    cl2 2891   4.417   3.741   1.501
  514TCM     h1 2892   4.626   3.852   1.526
  514TCM    cl3 2893   4.527   3.862   1.743
  515TCM     c1 2894   3.013   3.483   4.596
  515TCM    cl1 2895   2.922   3.361   4.501
  515TCM    cl2 2896   2.976   3.460   4.770
  515TCM     h1 2897   3.120   3.471   4.579
  515TCM    cl3 2898   2.961   3.647   4.547
  516TCM     c1 2899   2.718   0.224   4.483
  516TCM    cl1 2900   2.873   0.167   4.412
  516TCM    cl2 2901   2.585   0.197   4.366
  516TCM     h1 2902   2.698   0.170   4.576
  516TCM    cl3 2903   2.730   0.400   4.516
  517TCM     c1 2904   2.703   2.986   1.493
  517TCM    cl1 2905   2.825   3.064   1.599
  517TCM    cl2 2906   2.732   3.034   1.323
  517TCM     h1 2907   2.711   2.877   1.503
  517TCM    cl3 2908   2.538   3.038   1.543
  518TCM     c1 2909   4.859   2.822   3.339
  518TCM    cl1 2910   4.943   2.977   3.310
  518TCM    cl2 2911   4.817   2.809   3.514
  518TCM     h1 2912   4.767   2.819   3.280
  518TCM    cl3 2913   4.966   2.686   3.292
  519TCM     c1 2914   1.227   3.414   2.847
  519TCM    cl1 2915   1.314   3.317   2.723
  519TCM    cl2 2916   1.271   3.353   3.010
  519TCM     h1 2917   1.255   3.519   2.838
  519TCM    cl3 2918   1.050   3.397   2.822
  520TCM     c1 2919   2.796   3.875   1.550
  520TCM    cl1 2920   2.963   3.811   1.542
  520TCM    cl2 2921   2.773   3.998   1.421
  520TCM     h1 2922   2.724   3.794   1.535
  520TCM    cl3 2923   2.768   3.952   1.710
  521TCM     c1 2924   4.866   1.335   2.597
  521TCM    cl1 2925   4.747   1.219   2.529
  521TCM    cl2 2926   4.802   1.406   2.748
  521TCM     h1 2927   4.960   1.283   2.617
  521TCM    cl3 2928   4.894   1.466   2.478
  522TCM     c1 2929   4.531   3.151   2.715
  522TCM    cl1 2930   4.437   3.123   2.565
  522TCM    cl2 2931   4.690   3.068   2.701
  522TCM     h1 2932   4.547   3.259   2.729
  522TCM    cl3 2933   4.441   3.085   2.856
  523TCM     c1 2934   2.674   4.342   2.523
  523TCM    cl1 2935   2.734   4.196   2.608
  523TCM    cl2 2936   2.503   4.370   2.567
  523TCM     h1 2937   2.734   4.428   2.552
  523TCM    cl3 2938   2.687   4.317   2.345
  524TCM     c1 2939   2.957   2.821   2.358
  524TCM    cl1 2940   2.996   2.707   2.225
  524TCM    cl2 2941   2.865   2.735   2.485
  524TCM     h1 2942   3.050   2.859   2.401
  524TCM    cl3 2943   2.858   2.956   2.295
  525TCM     c1 2944   1.875   2.998   4.216
  525TCM    cl1 2945   1.726   2.897   4.215
  525TCM    cl2 2946   1.981   2.947   4.080
  525TCM     h1 2947   1.848   3.103   4.204
  525TCM    cl3 2948   1.961   2.975   4.371
  526TCM     c1 2949   4.774   1.648   0.270
  526TCM    cl1 2950   4.595   1.668   0.274
  526TCM    cl2 2951   4.832   1.608   0.434
  526TCM     h1 2952   4.799   1.566   0.202
  526TCM    cl3 2953   4.852   1.799   0.213
  527TCM     c1 2954   2.186   2.685   1.985
  527TCM    cl1 2955   2.221   2.731   1.815
  527TCM    cl2 2956   2.016   2.728   2.024
  527TCM     h1 2957   2.200   2.577   1.997
  527TCM    cl3 2958   2.297   2.772   2.095
  528TCM     c1 2959   1.893   0.514   4.799
  528TCM    cl1 2960   1.881   0.510   4.978
  528TCM    cl2 2961   1.921   0.683   4.744
  528TCM     h1 2962   1.977   0.451   4.767
  528TCM    cl3 2963   1.741   0.453   4.726
  529TCM     c1 2964   0.547   4.718   3.798
  529TCM    cl1 2965   0.513   4.811   3.649
  529TCM    cl2 2966   0.518   4.544   3.767
  529TCM     h1 2967   0.652   4.733   3.827
  529TCM    cl3 2968   0.439   4.775   3.929
  530TCM     c1 2969   3.511   3.306   0.106
  530TCM    cl1 2970   3.514   3.483   0.077
  530TCM    cl2 2971   3.345   3.244   0.082
  530TCM     h1 2972   3.579   3.257   0.036
  530TCM    cl3 2973   3.564   3.273   0.274
  531TCM     c1 2974   4.900   0.526   4.230
  531TCM    cl1 2975   4.992   0.669   4.289
  531TCM    cl2 2976   4.909   0.519   4.051
  531TCM     h1 2977   4.943   0.435   4.272
  531TCM    cl3 2978   4.728   0.541   4.279
  532TCM     c1 2979   2.324   2.989   4.760
  532TCM    cl1 2980   2.198   2.877   4.697
  532TCM    cl2 2981   2.476   2.967   4.667
  532TCM     h1 2982   2.289   3.091   4.750
  532TCM    cl3 2983   2.355   2.952   4.933
  533TCM     c1 2984   2.589   3.942   1.014
  533TCM    cl1 2985   2.655   3.787   0.952
  533TCM    cl2 2986   2.725   4.050   1.058
  533TCM     h1 2987   2.528   3.990   0.936
  533TCM    cl3 2988   2.488   3.912   1.159
  534TCM     c1 2989   1.428   0.183   4.063
  534TCM    cl1 2990   1.401   0.280   4.211
  534TCM    cl2 2991   1.279   0.184   3.962
  534TCM     h1 2992   1.511   0.225   4.006
  534TCM    cl3 2993   1.467   0.014   4.108
  535TCM     c1 2994   1.398   0.282   2.781
  535TCM    cl1 2995   1.471   0.118   2.782
  535TCM    cl2 2996   1.263   0.289   2.898
  535TCM     h1 2997   1.474   0.355   2.809
  535TCM    cl3 2998   1.337   0.319   2.616
  536TCM     c1 2999   1.993   2.956   3.552
  536TCM    cl1 3000   2.108   3.064   3.466
  536TCM    cl2 3001   1.837   3.043   3.577
  536TCM     h1 3002   1.976   2.866   3.493
  536TCM    cl3 3003   2.060   2.912   3.712
  537TCM     c1 3004   3.606   3.750   2.947
  537TCM    cl1 3005   3.484   3.652   2.861
  537TCM    cl2 3006   3.670   3.877   2.837
  537TCM     h1 3007   3.560   3.797   3.035
  537TCM    cl3 3008   3.741   3.644   2.999
  538TCM     c1 3009   2.919   4.597   0.496
  538TCM    cl1 3010   3.054   4.491   0.548
  538TCM    cl2 3011   2.907   4.738   0.607
  538TCM     h1 3012   2.938   4.632   0.395
  538TCM    cl3 3013   2.765   4.505   0.501
  539TCM     c1 3014   1.622   3.290   4.009
  539TCM    cl1 3015   1.730   3.182   3.914
  539TCM    cl2 3016   1.720   3.385   4.126
  539TCM     h1 3017   1.570   3.359   3.941
  539TCM    cl3 3018   1.503   3.191   4.098
  540TCM     c1 3019   2.360   2.292   0.509
  540TCM    cl1 3020   2.409   2.244   0.675
  540TCM    cl2 3021   2.390   2.155   0.397
  540TCM     h1 3022   2.254   2.319   0.508
  540TCM    cl3 3023   2.458   2.434   0.458
  541TCM     c1 3024   3.369   4.897   3.279
  541TCM    cl1 3025   3.355   4.747   3.182
  541TCM    cl2 3026   3.327   4.861   3.450
  541TCM     h1 3027   3.471   4.936   3.274
  541TCM    cl3 3028   3.255   5.020   3.213
  542TCM     c1 3029   3.844   4.008   0.537
  542TCM    cl1 3030   3.777   4.054   0.377
  542TCM    cl2 3031   3.828   4.145   0.651
  542TCM     h1 3032   3.789   3.921   0.575
  542TCM    cl3 3033   4.017   3.965   0.519
  543TCM     c1 3034   2.222   2.562   0.081
  543TCM    cl1 3035   2.297   2.564  -0.082
  543TCM    cl2 3036   2.289   2.697   0.178
  543TCM     h1 3037   2.113   2.574   0.071
  543TCM    cl3 3038   2.258   2.406   0.162
  544TCM     c1 3039   2.945   0.442   3.954
  544TCM    cl1 3040   2.824   0.486   3.830
  544TCM    cl2 3041   3.065   0.329   3.883
  544TCM     h1 3042   2.997   0.532   3.989
  544TCM    cl3 3043   2.861   0.364   4.092
  545TCM     c1 3044   0.738   4.658   1.846
  545TCM    cl1 3045   0.734   4.836   1.861
  545TCM    cl2 3046   0.579   4.591   1.897
  545TCM     h1 3047   0.759   4.630   1.742
  545TCM    cl3 3048   0.866   4.592   1.953
  546TCM     c1 3049   0.233   2.707   3.629
  546TCM    cl1 3050   0.382   2.627   3.570
  546TCM    cl2 3051   0.096   2.591   3.623
  546TCM     h1 3052   0.248   2.741   3.732
  546TCM    cl3 3053   0.197   2.849   3.525
  547TCM     c1 3054   4.173   4.673   0.847
  547TCM    cl1 3055   4.196   4.850   0.861
  547TCM    cl2 3056   4.147   4.603   1.010
  547TCM     h1 3057   4.087   4.652   0.784
  547TCM    cl3 3058   4.321   4.601   0.774
  548TCM     c1 3059   0.219   4.005   0.710
  548TCM    cl1 3060   0.355   4.088   0.792
  548TCM    cl2 3061   0.166   4.100   0.568
  548TCM     h1 3062   0.251   3.905   0.678
  548TCM    cl3 3063   0.083   3.991   0.826
  549TCM     c1 3064   1.831   2.053   3.804
  549TCM    cl1 3065   1.913   1.972   3.666
  549TCM    cl2 3066   1.681   1.963   3.846
  549TCM     h1 3067   1.898   2.054   3.891
  549TCM    cl3 3068   1.789   2.221   3.758
  550TCM     c1 3069   0.567   3.702   0.850
  550TCM    cl1 3070   0.644   3.862   0.822
  550TCM    cl2 3071   0.683   3.573   0.805
  550TCM     h1 3072   0.540   3.693   0.955
  550TCM    cl3 3073   0.422   3.688   0.747
  551TCM     c1 3074   1.545   3.375   0.087
  551TCM    cl1 3075   1.424   3.253   0.139
  551TCM    cl2 3076   1.657   3.302  -0.033
  551TCM     h1 3077   1.494   3.460   0.042
  551TCM    cl3 3078   1.639   3.431   0.229
  552TCM     c1 3079   3.051   1.836   2.517
  552TCM    cl1 3080   3.135   1.708   2.424
  552TCM    cl2 3081   3.024   1.778   2.685
  552TCM     h1 3082   3.113   1.926   2.519
  552TCM    cl3 3083   2.894   1.871   2.439
  553TCM     c1 3084   1.772   2.281   2.554
  553TCM    cl1 3085   1.762   2.248   2.378
  553TCM    cl2 3086   1.624   2.370   2.603
  553TCM     h1 3087   1.778   2.187   2.609
  553TCM    cl3 3088   1.916   2.382   2.588
  554TCM     c1 3089   3.296   4.620   1.754
  554TCM    cl1 3090   3.282   4.706   1.911
  554TCM    cl2 3091   3.199   4.707   1.631
  554TCM     h1 3092   3.400   4.617   1.723
  554TCM    cl3 3093   3.233   4.453   1.774
  555TCM     c1 3094   3.613   4.576   1.284
  555TCM    cl1 3095   3.493   4.579   1.152
  555TCM    cl2 3096   3.534   4.620   1.439
  555TCM     h1 3097   3.656   4.476   1.293
  555TCM    cl3 3098   3.744   4.694   1.249
  556TCM     c1 3099   0.794   2.356   4.323
  556TCM    cl1 3100   0.947   2.394   4.408
  556TCM    cl2 3101   0.779   2.460   4.177
  556TCM     h1 3102   0.793   2.251   4.293
  556TCM    cl3 3103   0.655   2.387   4.433
  557TCM     c1 3104   4.573   3.467   0.034
  557TCM    cl1 3105   4.708   3.409  -0.069
  557TCM    cl2 3106   4.484   3.597  -0.053
  557TCM     h1 3107   4.505   3.384   0.056
  557TCM    cl3 3108   4.639   3.534   0.187
  558TCM     c1 3109   0.075   1.666   3.628
  558TCM    cl1 3110   0.134   1.664   3.459
  558TCM    cl2 3111  -0.095   1.610   3.633
  558TCM     h1 3112   0.137   1.599   3.689
  558TCM    cl3 3113   0.086   1.833   3.693
  559TCM     c1 3114   4.588   1.263   0.387
  559TCM    cl1 3115   4.459   1.161   0.314
  559TCM    cl2 3116   4.728   1.271   0.275
  559TCM     h1 3117   4.549   1.364   0.405
  559TCM    cl3 3118   4.641   1.190   0.542
  560TCM     c1 3119   1.573   2.352   4.956
  560TCM    cl1 3120   1.569   2.441   5.112
  560TCM    cl2 3121   1.407   2.296   4.917
  560TCM     h1 3122   1.610   2.417   4.877
  560TCM    cl3 3123   1.680   2.208   4.972
  561TCM     c1 3124   3.464   1.887   2.888
  561TCM    cl1 3125   3.360   1.929   2.749
  561TCM    cl2 3126   3.552   2.033   2.943
  561TCM     h1 3127   3.402   1.850   2.970
  561TCM    cl3 3128   3.582   1.761   2.841
  562TCM     c1 3129   2.838   4.328   0.886
  562TCM    cl1 3130   2.884   4.225   0.747
  562TCM    cl2 3131   2.660   4.354   0.885
  562TCM     h1 3132   2.867   4.279   0.980
  562TCM    cl3 3133   2.919   4.487   0.874
  563TCM     c1 3134   1.689   3.583   0.835
  563TCM    cl1 3135   1.773   3.525   0.982
  563TCM    cl2 3136   1.666   3.445   0.722
  563TCM     h1 3137   1.592   3.624   0.863
  563TCM    cl3 3138   1.787   3.710   0.755
  564TCM     c1 3139   0.011   2.989   4.915
  564TCM    cl1 3140  -0.093   3.111   4.996
  564TCM    cl2 3141  -0.071   2.830   4.925
  564TCM     h1 3142   0.026   3.017   4.811
  564TCM    cl3 3143   0.169   2.982   5.000
  565TCM     c1 3144   2.979   4.439   2.857
  565TCM    cl1 3145   3.099   4.569   2.885
  565TCM    cl2 3146   3.047   4.322   2.739
  565TCM     h1 3147   2.958   4.388   2.951
  565TCM    cl3 3148   2.827   4.510   2.793
  566TCM     c1 3149   4.691   3.679   3.567
  566TCM    cl1 3150   4.557   3.677   3.686
  566TCM    cl2 3151   4.627   3.635   3.405
  566TCM     h1 3152   4.735   3.779   3.563
  566TCM    cl3 3153   4.815   3.560   3.617
  567TCM     c1 3154   1.928   4.967   2.754
  567TCM    cl1 3155   1.956   5.143   2.733
  567TCM    cl2 3156   2.065   4.875   2.683
  567TCM     h1 3157   1.921   4.944   2.861
  567TCM    cl3 3158   1.775   4.922   2.672
  568TCM     c1 3159   3.035   2.488   4.420
  568TCM    cl1 3160   3.199   2.455   4.485
  568TCM    cl2 3161   2.992   2.362   4.299
  568TCM     h1 3162   2.962   2.486   4.502
  568TCM    cl3 3163   3.032   2.649   4.341
  569TCM     c1 3164   2.313   3.834   0.375
  569TCM    cl1 3165   2.220   3.724   0.269
  569TCM    cl2 3166   2.428   3.740   0.475
  569TCM     h1 3167   2.368   3.906   0.314
  569TCM    cl3 3168   2.200   3.922   0.484
  570TCM     c1 3169   0.012   2.700   0.870
  570TCM    cl1 3170  -0.165   2.690   0.900
  570TCM    cl2 3171   0.042   2.775   0.711
  570TCM     h1 3172   0.058   2.760   0.949
  570TCM    cl3 3173   0.081   2.534   0.872
  571TCM     c1 3174   2.152   1.724   4.043
  571TCM    cl1 3175   1.994   1.769   3.970
  571TCM    cl2 3176   2.146   1.753   4.220
  571TCM     h1 3177   2.173   1.618   4.024
  571TCM    cl3 3178   2.281   1.826   3.971
  572TCM     c1 3179   1.082   0.238   2.334
  572TCM    cl1 3180   0.915   0.179   2.357
  572TCM    cl2 3181   1.082   0.376   2.220
  572TCM     h1 3182   1.124   0.270   2.430
  572TCM    cl3 3183   1.183   0.106   2.265
  573TCM     c1 3184   2.528   4.106   4.945
  573TCM    cl1 3185   2.481   3.983   5.065
  573TCM    cl2 3186   2.443   4.076   4.790
  573TCM     h1 3187   2.502   4.206   4.982
  573TCM    cl3 3188   2.705   4.097   4.918
  574TCM     c1 3189   2.245   4.140   1.413
  574TCM    cl1 3190   2.151   4.212   1.548
  574TCM    cl2 3191   2.132   4.083   1.286
  574TCM     h1 3192   2.312   4.215   1.372
  574TCM    cl3 3193   2.342   4.002   1.475
  575TCM     c1 3194   0.978   2.198   4.807
  575TCM    cl1 3195   0.911   2.172   4.971
  575TCM    cl2 3196   0.856   2.150   4.685
  575TCM     h1 3197   1.005   2.303   4.794
  575TCM    cl3 3198   1.125   2.097   4.787
  576TCM     c1 3199   3.130   4.930   4.519
  576TCM    cl1 3200   3.116   4.826   4.373
  576TCM    cl2 3201   3.287   4.896   4.600
  576TCM     h1 3202   3.127   5.035   4.489
  576TCM    cl3 3203   2.995   4.894   4.632
  577TCM     c1 3204   0.439   3.294   3.492
  577TCM    cl1 3205   0.432   3.444   3.590
  577TCM    cl2 3206   0.428   3.335   3.318
  577TCM     h1 3207   0.534   3.242   3.512
  577TCM    cl3 3208   0.302   3.188   3.538
  578TCM     c1 3209   2.346   4.603   1.197
  578TCM    cl1 3210   2.231   4.739   1.179
  578TCM    cl2 3211   2.395   4.545   1.035
  578TCM     h1 3212   2.435   4.636   1.253
  578TCM    cl3 3213   2.266   4.469   1.286
  579TCM     c1 3214   0.103   4.846   3.618
  579TCM    cl1 3215   0.156   4.694   3.698
  579TCM    cl2 3216   0.182   4.859   3.457
  579TCM     h1 3217  -0.005   4.845   3.605
  579TCM    cl3 3218   0.152   4.985   3.719
  580TCM     c1 3219   4.015   4.632   3.368
  580TCM    cl1 3220   4.158   4.660   3.471
  580TCM    cl2 3221   3.987   4.456   3.350
  580TCM     h1 3222   3.927   4.679   3.412
  580TCM    cl3 3223   4.046   4.701   3.205
  581TCM     c1 3224   3.127   3.763   1.221
  581TCM    cl1 3225   2.964   3.812   1.165
  581TCM    cl2 3226   3.217   3.910   1.272
  581TCM     h1 3227   3.118   3.695   1.305
  581TCM    cl3 3228   3.217   3.684   1.087
  582TCM     c1 3229   4.543   4.028   3.818
  582TCM    cl1 3230   4.545   4.040   3.639
  582TCM    cl2 3231   4.407   4.124   3.883
  582TCM     h1 3232   4.531   3.923   3.847
  582TCM    cl3 3233   4.698   4.091   3.882
  583TCM     c1 3234   1.006   3.144   4.901
  583TCM    cl1 3235   0.958   3.111   5.070
  583TCM    cl2 3236   1.112   3.289   4.896
  583TCM     h1 3237   1.061   3.058   4.860
  583TCM    cl3 3238   0.859   3.173   4.802
  584TCM     c1 3239   0.127   1.837   4.843
  584TCM    cl1 3240   0.109   1.706   4.965
  584TCM    cl2 3241   0.044   1.787   4.692
  584TCM     h1 3242   0.083   1.929   4.881
  584TCM    cl3 3243   0.302   1.862   4.811
  585TCM     c1 3244   0.959   4.804   2.337
  585TCM    cl1 3245   0.899   4.763   2.501
  585TCM    cl2 3246   0.821   4.850   2.233
  585TCM     h1 3247   1.029   4.888   2.344
  585TCM    cl3 3248   1.043   4.662   2.268
  586TCM     c1 3249   0.997   3.545   3.242
  586TCM    cl1 3250   1.145   3.527   3.342
  586TCM    cl2 3251   0.943   3.384   3.186
  586TCM     h1 3252   0.918   3.592   3.302
  586TCM    cl3 3253   1.034   3.649   3.100
  587TCM     c1 3254   4.135   2.716   4.033
  587TCM    cl1 3255   4.078   2.686   4.200
  587TCM    cl2 3256   4.039   2.616   3.919
  587TCM     h1 3257   4.122   2.822   4.008
  587TCM    cl3 3258   4.308   2.672   4.020
  588TCM     c1 3259   1.986   3.193   0.080
  588TCM    cl1 3260   2.039   3.144  -0.084
  588TCM    cl2 3261   2.010   3.369   0.100
  588TCM     h1 3262   1.880   3.169   0.092
  588TCM    cl3 3263   2.083   3.103   0.202
  589TCM     c1 3264   1.504   4.984   0.805
  589TCM    cl1 3265   1.640   4.879   0.751
  589TCM    cl2 3266   1.349   4.896   0.779
  589TCM     h1 3267   1.516   5.008   0.911
  589TCM    cl3 3268   1.504   5.134   0.707
  590TCM     c1 3269   0.339   3.187   0.640
  590TCM    cl1 3270   0.414   3.319   0.735
  590TCM    cl2 3271   0.252   3.076   0.750
  590TCM     h1 3272   0.269   3.230   0.568
  590TCM    cl3 3273   0.467   3.096   0.552
  591TCM     c1 3274   3.055   1.631   3.476
  591TCM    cl1 3275   2.952   1.693   3.343
  591TCM    cl2 3276   3.189   1.534   3.405
  591TCM     h1 3277   3.096   1.714   3.533
  591TCM    cl3 3278   2.956   1.526   3.582
  592TCM     c1 3279   2.648   4.566   0.119
  592TCM    cl1 3280   2.651   4.391   0.159
  592TCM    cl2 3281   2.812   4.635   0.142
  592TCM     h1 3282   2.617   4.579   0.015
  592TCM    cl3 3283   2.533   4.650   0.226
  593TCM     c1 3284   3.981   3.335   3.463
  593TCM    cl1 3285   4.042   3.411   3.312
  593TCM    cl2 3286   4.064   3.178   3.489
  593TCM     h1 3287   4.000   3.401   3.548
  593TCM    cl3 3288   3.804   3.306   3.447
  594TCM     c1 3289   2.958   3.744   0.758
  594TCM    cl1 3290   3.032   3.895   0.822
  594TCM    cl2 3291   3.086   3.642   0.685
  594TCM     h1 3292   2.910   3.690   0.840
  594TCM    cl3 3293   2.836   3.786   0.633
  595TCM     c1 3294   4.590   4.025   1.151
  595TCM    cl1 3295   4.655   3.876   1.227
  595TCM    cl2 3296   4.444   3.983   1.057
  595TCM     h1 3297   4.564   4.097   1.229
  595TCM    cl3 3298   4.714   4.096   1.043
  596TCM     c1 3299   4.449   2.661   0.132
  596TCM    cl1 3300   4.341   2.518   0.135
  596TCM    cl2 3301   4.353   2.805   0.081
  596TCM     h1 3302   4.491   2.678   0.231
  596TCM    cl3 3303   4.582   2.634   0.014
  597TCM     c1 3304   0.002   3.497   4.196
  597TCM    cl1 3305  -0.009   3.534   4.372
  597TCM    cl2 3306   0.165   3.432   4.160
  597TCM     h1 3307  -0.075   3.424   4.170
  597TCM    cl3 3308  -0.024   3.647   4.101
  598TCM     c1 3309   3.315   4.050   2.751
  598TCM    cl1 3310   3.308   3.972   2.913
  598TCM    cl2 3311   3.343   3.926   2.624
  598TCM     h1 3312   3.221   4.101   2.731
  598TCM    cl3 3313   3.450   4.169   2.749
  599TCM     c1 3314   3.750   3.397   3.888
  599TCM    cl1 3315   3.783   3.359   4.060
  599TCM    cl2 3316   3.905   3.431   3.804
  599TCM     h1 3317   3.702   3.311   3.840
  599TCM    cl3 3318   3.644   3.540   3.877
  600TCM     c1 3319   4.471   0.223   0.066
  600TCM    cl1 3320   4.443   0.389   0.129
  600TCM    cl2 3321   4.638   0.210   0.004
  600TCM     h1 3322   4.456   0.151   0.147
  600TCM    cl3 3323   4.355   0.189  -0.066
  601TCM     c1 3324   3.178   2.813   3.343
  601TCM    cl1 3325   3.177   2.986   3.390
  601TCM    cl2 3326   3.109   2.797   3.178
  601TCM     h1 3327   3.280   2.774   3.344
  601TCM    cl3 3328   3.077   2.719   3.458
  602TCM     c1 3329   0.495   2.119   1.469
  602TCM    cl1 3330   0.620   2.144   1.344
  602TCM    cl2 3331   0.546   2.196   1.623
  602TCM     h1 3332   0.401   2.163   1.435
  602TCM    cl3 3333   0.469   1.943   1.497
  603TCM     c1 3334   0.218   3.870   2.817
  603TCM    cl1 3335   0.287   3.778   2.678
  603TCM    cl2 3336   0.273   3.798   2.971
  603TCM     h1 3337   0.251   3.974   2.811
  603TCM    cl3 3338   0.039   3.864   2.810
  604TCM     c1 3339   1.533   1.689   0.923
  604TCM    cl1 3340   1.706   1.695   0.971
  604TCM    cl2 3341   1.430   1.684   1.070
  604TCM     h1 3342   1.508   1.779   0.865
  604TCM    cl3 3343   1.502   1.543   0.824
  605TCM     c1 3344   0.135   1.024   2.405
  605TCM    cl1 3345  -0.007   0.931   2.462
  605TCM    cl2 3346   0.247   1.051   2.542
  605TCM     h1 3347   0.187   0.968   2.326
  605TCM    cl3 3348   0.082   1.183   2.340
  606TCM     c1 3349   4.242   2.896   3.620
  606TCM    cl1 3350   4.138   2.812   3.500
  606TCM    cl2 3351   4.375   2.787   3.671
  606TCM     h1 3352   4.284   2.987   3.575
  606TCM    cl3 3353   4.142   2.939   3.763
  607TCM     c1 3354   1.682   3.347   3.455
  607TCM    cl1 3355   1.707   3.449   3.600
  607TCM    cl2 3356   1.836   3.333   3.364
  607TCM     h1 3357   1.648   3.248   3.486
  607TCM    cl3 3358   1.558   3.422   3.349
  608TCM     c1 3359   2.516   2.961   2.463
  608TCM    cl1 3360   2.354   3.033   2.490
  608TCM    cl2 3361   2.498   2.789   2.416
  608TCM     h1 3362   2.567   3.015   2.384
  608TCM    cl3 3363   2.611   2.973   2.615
  609TCM     c1 3364   4.941   0.004   2.640
  609TCM    cl1 3365   4.773  -0.025   2.695
  609TCM    cl2 3366   4.957   0.172   2.579
  609TCM     h1 3367   5.010  -0.011   2.724
  609TCM    cl3 3368   4.982  -0.110   2.508
  610TCM     c1 3369   4.971   1.977   1.074
  610TCM    cl1 3370   5.022   1.809   1.111
  610TCM    cl2 3371   4.804   2.004   1.134
  610TCM     h1 3372   5.038   2.048   1.124
  610TCM    cl3 3373   4.976   2.003   0.897
  611TCM     c1 3374   3.119   3.704   0.134
  611TCM    cl1 3375   3.159   3.544   0.064
  611TCM    cl2 3376   3.271   3.797   0.156
  611TCM     h1 3377   3.052   3.758   0.066
  611TCM    cl3 3378   3.038   3.682   0.292
  612TCM     c1 3379   2.653   3.593   3.385
  612TCM    cl1 3380   2.740   3.564   3.540
  612TCM    cl2 3381   2.770   3.650   3.261
  612TCM     h1 3382   2.606   3.501   3.352
  612TCM    cl3 3383   2.528   3.719   3.411
  613TCM     c1 3384   2.043   4.103   2.035
  613TCM    cl1 3385   2.089   4.033   1.876
  613TCM    cl2 3386   2.038   3.972   2.157
  613TCM     h1 3387   2.115   4.179   2.065
  613TCM    cl3 3388   1.880   4.177   2.022
  614TCM     c1 3389   1.431   1.502   0.175
  614TCM    cl1 3390   1.491   1.528   0.008
  614TCM    cl2 3391   1.281   1.404   0.170
  614TCM     h1 3392   1.507   1.449   0.233
  614TCM    cl3 3393   1.394   1.660   0.251
  615TCM     c1 3394   0.210   2.564   4.133
  615TCM    cl1 3395   0.119   2.696   4.215
  615TCM    cl2 3396   0.359   2.526   4.225
  615TCM     h1 3397   0.147   2.475   4.127
  615TCM    cl3 3398   0.256   2.618   3.969
  616TCM     c1 3399   0.375   1.158   4.638
  616TCM    cl1 3400   0.535   1.138   4.560
  616TCM    cl2 3401   0.328   1.004   4.716
  616TCM     h1 3402   0.380   1.237   4.714
  616TCM    cl3 3403   0.252   1.200   4.514
  617TCM     c1 3404   4.843   2.439   0.535
  617TCM    cl1 3405   4.762   2.600   0.541
  617TCM    cl2 3406   4.815   2.351   0.688
  617TCM     h1 3407   4.802   2.382   0.451
  617TCM    cl3 3408   5.019   2.462   0.512
  618TCM     c1 3409   2.135   3.915   4.558
  618TCM    cl1 3410   2.305   3.886   4.508
  618TCM    cl2 3411   2.126   3.931   4.737
  618TCM     h1 3412   2.098   4.006   4.512
  618TCM    cl3 3413   2.031   3.777   4.507
  619TCM     c1 3414   2.828   2.949   3.001
  619TCM    cl1 3415   2.662   3.016   2.991
  619TCM    cl2 3416   2.943   3.084   3.029
  619TCM     h1 3417   2.835   2.878   3.084
  619TCM    cl3 3418   2.870   2.867   2.847
  620TCM     c1 3419   2.830   4.065   0.247
  620TCM    cl1 3420   2.753   3.911   0.297
  620TCM    cl2 3421   2.985   4.031   0.163
  620TCM     h1 3422   2.764   4.120   0.181
  620TCM    cl3 3423   2.863   4.164   0.393
  621TCM     c1 3424   3.220   4.119   0.445
  621TCM    cl1 3425   3.362   4.108   0.336
  621TCM    cl2 3426   3.266   4.204   0.596
  621TCM     h1 3427   3.140   4.173   0.395
  621TCM    cl3 3428   3.164   3.953   0.485
  622TCM     c1 3429   2.387   3.385   0.735
  622TCM    cl1 3430   2.449   3.548   0.774
  622TCM    cl2 3431   2.385   3.285   0.884
  622TCM     h1 3432   2.286   3.392   0.693
  622TCM    cl3 3433   2.497   3.309   0.616
  623TCM     c1 3434   4.174   3.757   3.625
  623TCM    cl1 3435   4.264   3.832   3.489
  623TCM    cl2 3436   4.241   3.819   3.779
  623TCM     h1 3437   4.068   3.783   3.618
  623TCM    cl3 3438   4.194   3.579   3.617
  624TCM     c1 3439   0.178   4.480   4.144
  624TCM    cl1 3440   0.058   4.523   4.017
  624TCM    cl2 3441   0.201   4.621   4.253
  624TCM     h1 3442   0.142   4.394   4.201
  624TCM    cl3 3443   0.335   4.440   4.067
  625TCM     c1 3444   4.399   4.543   3.710
  625TCM    cl1 3445   4.457   4.702   3.769
  625TCM    cl2 3446   4.256   4.490   3.806
  625TCM     h1 3447   4.371   4.551   3.605
  625TCM    cl3 3448   4.530   4.422   3.727
  626TCM     c1 3449   2.484   2.330   3.219
  626TCM    cl1 3450   2.358   2.428   3.300
  626TCM    cl2 3451   2.406   2.222   3.099
  626TCM     h1 3452   2.556   2.395   3.169
  626TCM    cl3 3453   2.569   2.230   3.341
  627TCM     c1 3454   0.209   4.107   2.391
  627TCM    cl1 3455   0.382   4.084   2.348
  627TCM    cl2 3456   0.192   4.122   2.568
  627TCM     h1 3457   0.170   4.197   2.343
  627TCM    cl3 3458   0.114   3.965   2.335
  628TCM     c1 3459   1.975   4.987   1.531
  628TCM    cl1 3460   1.965   4.900   1.374
  628TCM    cl2 3461   1.915   4.881   1.662
  628TCM     h1 3462   2.079   5.015   1.551
  628TCM    cl3 3463   1.874   5.135   1.524
  629TCM     c1 3464   0.332   2.133   2.449
  629TCM    cl1 3465   0.200   2.053   2.358
  629TCM    cl2 3466   0.386   2.024   2.580
  629TCM     h1 3467   0.416   2.155   2.381
  629TCM    cl3 3468   0.269   2.286   2.520
  630TCM     c1 3469   1.710   4.024   1.135
  630TCM    cl1 3470   1.716   4.159   1.017
  630TCM    cl2 3471   1.649   3.876   1.053
  630TCM     h1 3472   1.810   4.005   1.175
  630TCM    cl3 3473   1.598   4.066   1.269
  631TCM     c1 3474   2.521   2.956   0.271
  631TCM    cl1 3475   2.662   3.053   0.219
  631TCM    cl2 3476   2.415   3.055   0.376
  631TCM     h1 3477   2.465   2.923   0.183
  631TCM    cl3 3478   2.578   2.813   0.364
  632TCM     c1 3479   4.732   1.626   0.768
  632TCM    cl1 3480   4.724   1.687   0.936
  632TCM    cl2 3481   4.571   1.642   0.690
  632TCM     h1 3482   4.806   1.684   0.712
  632TCM    cl3 3483   4.780   1.453   0.769
  633TCM     c1 3484   0.033   1.952   2.682
  633TCM    cl1 3485   0.081   1.991   2.851
  633TCM    cl2 3486  -0.046   2.095   2.608
  633TCM     h1 3487   0.122   1.925   2.624
  633TCM    cl3 3488  -0.081   1.814   2.683
  634TCM     c1 3489   3.470   0.449   3.261
  634TCM    cl1 3490   3.293   0.472   3.272
  634TCM    cl2 3491   3.524   0.478   3.092
  634TCM     h1 3492   3.521   0.519   3.328
  634TCM    cl3 3493   3.511   0.280   3.308
  635TCM     c1 3494   4.933   0.793   1.999
  635TCM    cl1 3495   5.012   0.931   2.083
  635TCM    cl2 3496   5.059   0.691   1.923
  635TCM     h1 3497   4.876   0.734   2.071
  635TCM    cl3 3498   4.823   0.856   1.873
  636TCM     c1 3499   1.845   0.578   4.387
  636TCM    cl1 3500   2.012   0.526   4.428
  636TCM    cl2 3501   1.745   0.434   4.349
  636TCM     h1 3502   1.801   0.631   4.472
  636TCM    cl3 3503   1.850   0.687   4.245
  637TCM     c1 3504   4.954   0.467   4.670
  637TCM    cl1 3505   5.020   0.377   4.529
  637TCM    cl2 3506   4.871   0.352   4.779
  637TCM     h1 3507   5.036   0.516   4.724
  637TCM    cl3 3508   4.837   0.591   4.616
  638TCM     c1 3509   0.392   3.367   4.445
  638TCM    cl1 3510   0.410   3.282   4.602
  638TCM    cl2 3511   0.442   3.255   4.313
  638TCM     h1 3512   0.288   3.398   4.430
  638TCM    cl3 3513   0.499   3.511   4.442
  639TCM     c1 3514   2.340   1.077   4.041
  639TCM    cl1 3515   2.175   1.043   4.104
  639TCM    cl2 3516   2.337   1.228   3.944
  639TCM     h1 3517   2.409   1.088   4.124
  639TCM    cl3 3518   2.392   0.941   3.937
  640TCM     c1 3519   3.541   1.094   2.050
  640TCM    cl1 3520   3.476   1.261   2.050
  640TCM    cl2 3521   3.719   1.100   2.069
  640TCM     h1 3522   3.497   1.038   2.133
  640TCM    cl3 3523   3.500   1.016   1.894
  641TCM     c1 3524   2.789   4.994   2.694
  641TCM    cl1 3525   2.882   4.866   2.779
  641TCM    cl2 3526   2.618   4.943   2.678
  641TCM     h1 3527   2.795   5.087   2.751
  641TCM    cl3 3528   2.860   5.019   2.530
  642TCM     c1 3529   1.717   2.235   4.314
  642TCM    cl1 3530   1.717   2.413   4.336
  642TCM    cl2 3531   1.695   2.198   4.139
  642TCM     h1 3532   1.812   2.193   4.348
  642TCM    cl3 3533   1.582   2.163   4.407
  643TCM     c1 3534   1.049   0.067   1.911
  643TCM    cl1 3535   0.902   0.135   1.989
  643TCM    cl2 3536   1.027   0.060   1.734
  643TCM     h1 3537   1.135   0.130   1.935
  643TCM    cl3 3538   1.080  -0.099   1.974
  644TCM     c1 3539   3.293   0.039   4.128
  644TCM    cl1 3540   3.371   0.124   3.990
  644TCM    cl2 3541   3.130   0.109   4.157
  644TCM     h1 3542   3.284  -0.067   4.105
  644TCM    cl3 3543   3.394   0.061   4.275
   5.00000   5.00000   5.00000
