FOO
 3543
    1MOM     C1    1   3.403   0.069   0.877
    1MOM     O2    2   3.344   0.187   0.934
    1MOM     C3    3   3.259   0.262   0.856
    1MOM     C4    4   3.235   0.242   0.719
    1MOM     C5    5   3.144   0.324   0.651
    1MOM     C6    6   3.077   0.428   0.716
    1MOM     C7    7   2.978   0.504   0.637
    1MOM     C8    8   2.847   0.524   0.685
    1MOM     C9    9   2.749   0.588   0.608
    1MOM    C10   10   2.613   0.609   0.661
    1MOM    O11   11   2.527   0.655   0.586
    1MOM    C12   12   2.784   0.633   0.479
    1MOM    C13   13   2.914   0.616   0.431
    1MOM    C14   14   3.010   0.551   0.509
    1MOM    C15   15   3.102   0.450   0.854
    1MOM    C16   16   3.042   0.559   0.934
    1MOM    C17   17   3.043   0.692   0.891
    1MOM    C18   18   2.989   0.795   0.970
    1MOM    C19   19   2.986   0.940   0.924
    1MOM    C20   20   3.120   1.008   0.953
    1MOM    N21   21   2.959   0.952   0.781
    1MOM    C22   22   2.932   0.763   1.094
    1MOM    C23   23   2.930   0.630   1.138
    1MOM    C24   24   2.985   0.529   1.059
    1MOM    C25   25   3.192   0.366   0.920
    1MOM    H26   26   3.469   0.103   0.797
    1MOM    H27   27   3.320   0.007   0.841
    1MOM    H28   28   3.457   0.021   0.959
    1MOM    H29   29   3.284   0.162   0.664
    1MOM    H30   30   3.125   0.303   0.547
    1MOM    H31   31   2.822   0.489   0.785
    1MOM    H32   32   2.711   0.683   0.417
    1MOM    H33   33   2.939   0.653   0.332
    1MOM    H34   34   3.111   0.539   0.471
    1MOM    H35   35   3.087   0.717   0.795
    1MOM    H36   36   2.908   0.995   0.978
    1MOM    H37   37   3.108   1.112   0.921
    1MOM    H38   38   3.136   0.999   1.060
    1MOM    H39   39   3.195   0.954   0.894
    1MOM    H40   40   3.012   1.021   0.729
    1MOM    H41   41   2.888   0.840   1.156
    1MOM    H42   42   2.885   0.606   1.234
    1MOM    H43   43   2.981   0.427   1.095
    1MOM    H44   44   3.213   0.382   1.025
    2MOM    C45   45   3.314   1.042  -0.127
    2MOM    O46   46   3.302   1.120  -0.008
    2MOM    C47   47   3.195   1.097   0.076
    2MOM    C48   48   3.088   1.011   0.049
    2MOM    C49   49   2.987   0.994   0.143
    2MOM    C50   50   2.988   1.061   0.267
    2MOM    C51   51   2.880   1.029   0.362
    2MOM    C52   52   2.908   0.996   0.496
    2MOM    C53   53   2.806   0.959   0.586
    2MOM    C54   54   2.835   0.924   0.726
    2MOM    O55   55   2.750   0.871   0.797
    2MOM    C56   56   2.674   0.955   0.538
    2MOM    C57   57   2.644   0.989   0.406
    2MOM    C58   58   2.746   1.026   0.319
    2MOM    C59   59   3.095   1.151   0.294
    2MOM    C60   60   3.106   1.233   0.416
    2MOM    C61   61   2.996   1.307   0.465
    2MOM    C62   62   3.007   1.386   0.581
    2MOM    C63   63   2.888   1.464   0.635
    2MOM    C64   64   2.858   1.584   0.546
    2MOM    N65   65   2.769   1.381   0.643
    2MOM    C66   66   3.130   1.391   0.648
    2MOM    C67   67   3.240   1.319   0.601
    2MOM    C68   68   3.228   1.241   0.486
    2MOM    C69   69   3.196   1.166   0.197
    2MOM    H70   70   3.228   1.068  -0.190
    2MOM    H71   71   3.315   0.937  -0.097
    2MOM    H72   72   3.409   1.073  -0.172
    2MOM    H73   73   3.083   0.955  -0.043
    2MOM    H74   74   2.906   0.924   0.122
    2MOM    H75   75   3.011   0.997   0.529
    2MOM    H76   76   2.593   0.926   0.605
    2MOM    H77   77   2.541   0.987   0.372
    2MOM    H78   78   2.721   1.053   0.217
    2MOM    H79   79   2.901   1.302   0.412
    2MOM    H80   80   2.912   1.501   0.735
    2MOM    H81   81   2.777   1.638   0.596
    2MOM    H82   82   2.950   1.641   0.541
    2MOM    H83   83   2.828   1.544   0.448
    2MOM    H84   84   2.681   1.425   0.618
    2MOM    H85   85   3.140   1.451   0.738
    2MOM    H86   86   3.335   1.324   0.653
    2MOM    H87   87   3.314   1.185   0.451
    2MOM    H88   88   3.277   1.236   0.216
    3MOM    C89   89   1.995   0.990   0.185
    3MOM    O90   90   2.032   1.117   0.241
    3MOM    C91   91   2.120   1.120   0.346
    3MOM    C92   92   2.173   1.007   0.410
    3MOM    C93   93   2.263   1.022   0.516
    3MOM    C94   94   2.302   1.149   0.562
    3MOM    C95   95   2.402   1.152   0.670
    3MOM    C96   96   2.523   1.222   0.656
    3MOM    C97   97   2.624   1.213   0.754
    3MOM    C98   98   2.755   1.280   0.736
    3MOM    O99   99   2.852   1.246   0.803
    3MOM   C100  100   2.599   1.136   0.869
    3MOM   C101  101   2.478   1.070   0.886
    3MOM   C102  102   2.380   1.077   0.787
    3MOM   C103  103   2.249   1.264   0.498
    3MOM   C104  104   2.282   1.403   0.537
    3MOM   C105  105   2.284   1.444   0.671
    3MOM   C106  106   2.316   1.576   0.708
    3MOM   C107  107   2.325   1.619   0.853
    3MOM   C108  108   2.187   1.657   0.907
    3MOM   N109  109   2.381   1.514   0.938
    3MOM   C110  110   2.344   1.669   0.607
    3MOM   C111  111   2.341   1.631   0.472
    3MOM   C112  112   2.310   1.499   0.438
    3MOM   C113  113   2.159   1.246   0.391
    3MOM   H114  114   1.944   0.935   0.264
    3MOM   H115  115   2.088   0.943   0.151
    3MOM   H116  116   1.928   1.014   0.102
    3MOM   H117  117   2.147   0.907   0.379
    3MOM   H118  118   2.304   0.933   0.562
    3MOM   H119  119   2.540   1.278   0.565
    3MOM   H120  120   2.676   1.126   0.945
    3MOM   H121  121   2.461   1.010   0.975
    3MOM   H122  122   2.287   1.023   0.800
    3MOM   H123  123   2.261   1.372   0.749
    3MOM   H124  124   2.389   1.707   0.861
    3MOM   H125  125   2.204   1.689   1.011
    3MOM   H126  126   2.152   1.738   0.843
    3MOM   H127  127   2.125   1.567   0.900
    3MOM   H128  128   2.333   1.495   1.025
    3MOM   H129  129   2.370   1.771   0.633
    3MOM   H130  130   2.362   1.704   0.395
    3MOM   H131  131   2.310   1.471   0.333
    3MOM   H132  132   2.115   1.332   0.342
    4MOM   C133  133   2.317   0.885   1.723
    4MOM   O134  134   2.263   1.003   1.660
    4MOM   C135  135   2.338   1.065   1.562
    4MOM   C136  136   2.451   1.010   1.500
    4MOM   C137  137   2.520   1.083   1.403
    4MOM   C138  138   2.481   1.213   1.366
    4MOM   C139  139   2.561   1.281   1.261
    4MOM   C140  140   2.501   1.349   1.153
    4MOM   C141  141   2.577   1.410   1.051
    4MOM   C142  142   2.516   1.484   0.938
    4MOM   O143  143   2.585   1.526   0.846
    4MOM   C144  144   2.717   1.401   1.060
    4MOM   C145  145   2.779   1.334   1.166
    4MOM   C146  146   2.701   1.276   1.266
    4MOM   C147  147   2.367   1.269   1.429
    4MOM   C148  148   2.320   1.408   1.409
    4MOM   C149  149   2.409   1.517   1.413
    4MOM   C150  150   2.363   1.649   1.400
    4MOM   C151  151   2.459   1.766   1.400
    4MOM   C152  152   2.506   1.800   1.541
    4MOM   N153  153   2.576   1.738   1.318
    4MOM   C154  154   2.226   1.672   1.384
    4MOM   C155  155   2.136   1.565   1.381
    4MOM   C156  156   2.183   1.434   1.393
    4MOM   C157  157   2.297   1.192   1.524
    4MOM   H158  158   2.416   0.912   1.760
    4MOM   H159  159   2.318   0.807   1.646
    4MOM   H160  160   2.247   0.862   1.804
    4MOM   H161  161   2.486   0.911   1.524
    4MOM   H162  162   2.606   1.037   1.354
    4MOM   H163  163   2.392   1.352   1.148
    4MOM   H164  164   2.780   1.446   0.983
    4MOM   H165  165   2.887   1.329   1.170
    4MOM   H166  166   2.751   1.226   1.348
    4MOM   H167  167   2.515   1.499   1.425
    4MOM   H168  168   2.409   1.855   1.359
    4MOM   H169  169   2.569   1.889   1.531
    4MOM   H170  170   2.416   1.818   1.600
    4MOM   H171  171   2.562   1.713   1.577
    4MOM   H172  172   2.667   1.760   1.358
    4MOM   H173  173   2.189   1.773   1.374
    4MOM   H174  174   2.030   1.584   1.369
    4MOM   H175  175   2.112   1.352   1.390
    4MOM   H176  176   2.211   1.234   1.574
    5MOM   C177  177   3.483   1.350   1.221
    5MOM   O178  178   3.402   1.436   1.303
    5MOM   C179  179   3.291   1.494   1.246
    5MOM   C180  180   3.237   1.459   1.122
    5MOM   C181  181   3.123   1.524   1.073
    5MOM   C182  182   3.061   1.626   1.146
    5MOM   C183  183   2.938   1.684   1.088
    5MOM   C184  184   2.820   1.694   1.162
    5MOM   C185  185   2.700   1.740   1.104
    5MOM   C186  186   2.574   1.744   1.180
    5MOM   O187  187   2.466   1.755   1.123
    5MOM   C188  188   2.702   1.778   0.969
    5MOM   C189  189   2.820   1.770   0.894
    5MOM   C190  190   2.937   1.723   0.953
    5MOM   C191  191   3.114   1.663   1.272
    5MOM   C192  192   3.058   1.770   1.357
    5MOM   C193  193   3.029   1.898   1.306
    5MOM   C194  194   2.974   1.998   1.387
    5MOM   C195  195   2.937   2.135   1.332
    5MOM   C196  196   3.063   2.220   1.314
    5MOM   N197  197   2.870   2.124   1.204
    5MOM   C198  198   2.948   1.970   1.522
    5MOM   C199  199   2.977   1.844   1.575
    5MOM   C200  200   3.031   1.745   1.493
    5MOM   C201  201   3.228   1.595   1.319
    5MOM   H202  202   3.514   1.409   1.134
    5MOM   H203  203   3.421   1.264   1.195
    5MOM   H204  204   3.568   1.323   1.284
    5MOM   H205  205   3.280   1.380   1.061
    5MOM   H206  206   3.082   1.492   0.978
    5MOM   H207  207   2.821   1.661   1.266
    5MOM   H208  208   2.611   1.811   0.920
    5MOM   H209  209   2.818   1.799   0.790
    5MOM   H210  210   3.027   1.716   0.894
    5MOM   H211  211   3.049   1.919   1.201
    5MOM   H212  212   2.871   2.187   1.403
    5MOM   H213  213   3.027   2.318   1.279
    5MOM   H214  214   3.110   2.226   1.412
    5MOM   H215  215   3.125   2.169   1.239
    5MOM   H216  216   2.904   2.182   1.129
    5MOM   H217  217   2.903   2.046   1.585
    5MOM   H218  218   2.956   1.823   1.679
    5MOM   H219  219   3.052   1.647   1.535
    5MOM   H220  220   3.271   1.623   1.415
    6MOM   C221  221   2.992   2.236   0.258
    6MOM   O222  222   2.983   2.318   0.376
    6MOM   C223  223   2.904   2.277   0.480
    6MOM   C224  224   2.810   2.173   0.473
    6MOM   C225  225   2.734   2.139   0.586
    6MOM   C226  226   2.750   2.207   0.708
    6MOM   C227  227   2.674   2.158   0.824
    6MOM   C228  228   2.739   2.137   0.947
    6MOM   C229  229   2.670   2.093   1.061
    6MOM   C230  230   2.740   2.078   1.191
    6MOM   O231  231   2.683   2.028   1.287
    6MOM   C232  232   2.533   2.063   1.048
    6MOM   C233  233   2.467   2.081   0.927
    6MOM   C234  234   2.537   2.128   0.815
    6MOM   C235  235   2.844   2.313   0.715
    6MOM   C236  236   2.871   2.392   0.837
    6MOM   C237  237   2.766   2.449   0.912
    6MOM   C238  238   2.791   2.520   1.031
    6MOM   C239  239   2.679   2.580   1.113
    6MOM   C240  240   2.604   2.688   1.035
    6MOM   N241  241   2.585   2.477   1.154
    6MOM   C242  242   2.924   2.533   1.074
    6MOM   C243  243   3.029   2.478   1.001
    6MOM   C244  244   3.002   2.408   0.883
    6MOM   C245  245   2.918   2.346   0.600
    6MOM   H246  246   2.893   2.239   0.212
    6MOM   H247  247   3.022   2.136   0.292
    6MOM   H248  248   3.068   2.283   0.196
    6MOM   H249  249   2.794   2.116   0.382
    6MOM   H250  250   2.665   2.056   0.579
    6MOM   H251  251   2.845   2.155   0.953
    6MOM   H252  252   2.478   2.026   1.134
    6MOM   H253  253   2.361   2.057   0.920
    6MOM   H254  254   2.484   2.143   0.722
    6MOM   H255  255   2.664   2.436   0.878
    6MOM   H256  256   2.721   2.628   1.202
    6MOM   H257  257   2.529   2.728   1.104
    6MOM   H258  258   2.679   2.763   1.007
    6MOM   H259  259   2.559   2.639   0.948
    6MOM   H260  260   2.493   2.476   1.110
    6MOM   H261  261   2.945   2.586   1.167
    6MOM   H262  262   3.131   2.488   1.037
    6MOM   H263  263   3.085   2.364   0.828
    6MOM   H264  264   2.990   2.427   0.603
    7MOM   C265  265   1.829   1.899   0.890
    7MOM   O266  266   1.873   2.035   0.899
    7MOM   C267  267   1.971   2.068   0.990
    7MOM   C268  268   2.037   1.976   1.073
    7MOM   C269  269   2.136   2.020   1.162
    7MOM   C270  270   2.171   2.156   1.172
    7MOM   C271  271   2.280   2.192   1.265
    7MOM   C272  272   2.382   2.280   1.227
    7MOM   C273  273   2.492   2.308   1.310
    7MOM   C274  274   2.600   2.399   1.267
    7MOM   O275  275   2.704   2.408   1.332
    7MOM   C276  276   2.498   2.243   1.434
    7MOM   C277  277   2.396   2.157   1.475
    7MOM   C278  278   2.288   2.132   1.392
    7MOM   C279  279   2.105   2.249   1.087
    7MOM   C280  280   2.133   2.394   1.086
    7MOM   C281  281   2.124   2.472   1.202
    7MOM   C282  282   2.149   2.610   1.200
    7MOM   C283  283   2.137   2.698   1.323
    7MOM   C284  284   2.011   2.671   1.405
    7MOM   N285  285   2.253   2.680   1.408
    7MOM   C286  286   2.190   2.669   1.079
    7MOM   C287  287   2.201   2.592   0.963
    7MOM   C288  288   2.171   2.456   0.966
    7MOM   C289  289   2.007   2.202   0.998
    7MOM   H290  290   1.791   1.872   0.989
    7MOM   H291  291   1.915   1.840   0.858
    7MOM   H292  292   1.750   1.900   0.815
    7MOM   H293  293   2.015   1.870   1.070
    7MOM   H294  294   2.188   1.946   1.221
    7MOM   H295  295   2.379   2.323   1.127
    7MOM   H296  296   2.584   2.258   1.499
    7MOM   H297  297   2.404   2.107   1.572
    7MOM   H298  298   2.211   2.063   1.425
    7MOM   H299  299   2.096   2.424   1.295
    7MOM   H300  300   2.132   2.803   1.290
    7MOM   H301  301   2.010   2.748   1.483
    7MOM   H302  302   1.927   2.681   1.335
    7MOM   H303  303   2.020   2.571   1.447
    7MOM   H304  304   2.247   2.615   1.486
    7MOM   H305  305   2.213   2.775   1.075
    7MOM   H306  306   2.232   2.639   0.870
    7MOM   H307  307   2.180   2.397   0.875
    7MOM   H308  308   1.955   2.272   0.933
    8MOM   C309  309   2.689   1.949   1.832
    8MOM   O310  310   2.583   2.040   1.864
    8MOM   C311  311   2.592   2.169   1.817
    8MOM   C312  312   2.709   2.229   1.769
    8MOM   C313  313   2.707   2.359   1.718
    8MOM   C314  314   2.587   2.433   1.713
    8MOM   C315  315   2.589   2.564   1.645
    8MOM   C316  316   2.490   2.593   1.550
    8MOM   C317  317   2.483   2.719   1.487
    8MOM   C318  318   2.372   2.749   1.395
    8MOM   O319  319   2.384   2.834   1.307
    8MOM   C320  320   2.582   2.814   1.516
    8MOM   C321  321   2.683   2.785   1.608
    8MOM   C322  322   2.686   2.660   1.673
    8MOM   C323  323   2.469   2.375   1.767
    8MOM   C324  324   2.339   2.446   1.773
    8MOM   C325  325   2.334   2.579   1.818
    8MOM   C326  326   2.214   2.652   1.819
    8MOM   C327  327   2.212   2.797   1.863
    8MOM   C328  328   2.252   2.810   2.010
    8MOM   N329  329   2.306   2.873   1.781
    8MOM   C330  330   2.096   2.589   1.777
    8MOM   C331  331   2.099   2.455   1.735
    8MOM   C332  332   2.220   2.385   1.733
    8MOM   C333  333   2.474   2.244   1.817
    8MOM   H334  334   2.776   1.980   1.891
    8MOM   H335  335   2.705   1.955   1.724
    8MOM   H336  336   2.652   1.851   1.862
    8MOM   H337  337   2.804   2.176   1.769
    8MOM   H338  338   2.797   2.402   1.676
    8MOM   H339  339   2.418   2.516   1.525
    8MOM   H340  340   2.578   2.912   1.469
    8MOM   H341  341   2.758   2.860   1.631
    8MOM   H342  342   2.764   2.640   1.746
    8MOM   H343  343   2.425   2.627   1.851
    8MOM   H344  344   2.111   2.836   1.851
    8MOM   H345  345   2.238   2.915   2.036
    8MOM   H346  346   2.184   2.744   2.065
    8MOM   H347  347   2.356   2.779   2.018
    8MOM   H348  348   2.399   2.835   1.765
    8MOM   H349  349   2.002   2.643   1.776
    8MOM   H350  350   2.007   2.407   1.704
    8MOM   H351  351   2.221   2.282   1.697
    8MOM   H352  352   2.385   2.197   1.858
    9CAP   C353  353   2.475   0.630   0.853
    9CAP   O354  354   2.590   0.570   0.790
    9CAP   H355  355   2.488   0.738   0.843
    9CAP   H356  356   2.479   0.597   0.957
    9CAP   H357  357   2.387   0.592   0.800
   10CAP   C358  358   1.951   3.129   1.616
   10CAP   C359  359   2.103   3.117   1.593
   10CAP   C360  360   2.126   3.082   1.445
   10CAP   C361  361   2.167   3.253   1.629
   10CAP   O362  362   2.142   3.011   1.682
   10CAP   C363  363   2.271   2.970   1.692
   10CAP   O364  364   2.366   3.014   1.629
   10CAP   H365  365   1.915   3.209   1.551
   10CAP   H366  366   1.908   3.032   1.589
   10CAP   H367  367   1.938   3.152   1.722
   10CAP   H368  368   2.083   2.983   1.430
   10CAP   H369  369   2.234   3.084   1.427
   10CAP   H370  370   2.075   3.159   1.386
   10CAP   H371  371   2.149   3.268   1.736
   10CAP   H372  372   2.274   3.246   1.606
   10CAP   H373  373   2.117   3.328   1.568
   11TCM     c1  374   4.341   0.473   2.703
   11TCM    cl1  375   4.318   0.428   2.531
   11TCM    cl2  376   4.508   0.535   2.726
   11TCM     h1  377   4.269   0.551   2.730
   11TCM    cl3  378   4.314   0.328   2.805
   12TCM     c1  379   1.927   2.757   4.007
   12TCM    cl1  380   1.968   2.589   4.056
   12TCM    cl2  381   1.766   2.758   3.928
   12TCM     h1  382   1.925   2.822   4.095
   12TCM    cl3  383   2.050   2.816   3.891
   13TCM     c1  384   2.757   4.564   4.633
   13TCM    cl1  385   2.831   4.406   4.594
   13TCM    cl2  386   2.704   4.563   4.804
   13TCM     h1  387   2.830   4.644   4.617
   13TCM    cl3  388   2.613   4.589   4.529
   14TCM     c1  389   2.707   0.558   3.360
   14TCM    cl1  390   2.708   0.700   3.470
   14TCM    cl2  391   2.803   0.427   3.435
   14TCM     h1  392   2.604   0.525   3.344
   14TCM    cl3  393   2.780   0.606   3.204
   15TCM     c1  394   2.414   1.407   2.543
   15TCM    cl1  395   2.518   1.514   2.445
   15TCM    cl2  396   2.373   1.490   2.697
   15TCM     h1  397   2.322   1.384   2.488
   15TCM    cl3  398   2.502   1.255   2.579
   16TCM     c1  399   4.873   0.955   0.079
   16TCM    cl1  400   5.000   1.043  -0.013
   16TCM    cl2  401   4.836   1.045   0.229
   16TCM     h1  402   4.783   0.946   0.018
   16TCM    cl3  403   4.933   0.792   0.123
   17TCM     c1  404   2.726   0.795   2.457
   17TCM    cl1  405   2.628   0.935   2.403
   17TCM    cl2  406   2.675   0.648   2.367
   17TCM     h1  407   2.832   0.815   2.437
   17TCM    cl3  408   2.702   0.772   2.633
   18TCM     c1  409   3.460   4.038   4.616
   18TCM    cl1  410   3.579   3.972   4.500
   18TCM    cl2  411   3.326   4.115   4.524
   18TCM     h1  412   3.420   3.957   4.678
   18TCM    cl3  413   3.538   4.161   4.720
   19TCM     c1  414   0.798   4.312   3.383
   19TCM    cl1  415   0.977   4.328   3.379
   19TCM    cl2  416   0.725   4.470   3.427
   19TCM     h1  417   0.762   4.281   3.285
   19TCM    cl3  418   0.752   4.189   3.506
   20TCM     c1  419   3.802   1.140   2.487
   20TCM    cl1  420   3.849   1.182   2.655
   20TCM    cl2  421   3.939   1.058   2.405
   20TCM     h1  422   3.715   1.074   2.489
   20TCM    cl3  423   3.763   1.290   2.397
   21TCM     c1  424   4.709   3.122   3.820
   21TCM    cl1  425   4.620   3.065   3.965
   21TCM    cl2  426   4.657   3.028   3.676
   21TCM     h1  427   4.689   3.228   3.804
   21TCM    cl3  428   4.885   3.098   3.846
   22TCM     c1  429   0.351   2.666   1.164
   22TCM    cl1  430   0.275   2.819   1.221
   22TCM    cl2  431   0.290   2.529   1.261
   22TCM     h1  432   0.327   2.651   1.059
   22TCM    cl3  433   0.529   2.679   1.183
   23TCM     c1  434   1.371   1.642   2.340
   23TCM    cl1  435   1.501   1.761   2.308
   23TCM    cl2  436   1.303   1.587   2.184
   23TCM     h1  437   1.411   1.557   2.395
   23TCM    cl3  438   1.242   1.722   2.436
   24TCM     c1  439   4.255   4.334   0.725
   24TCM    cl1  440   4.408   4.419   0.683
   24TCM    cl2  441   4.178   4.274   0.575
   24TCM     h1  442   4.277   4.250   0.791
   24TCM    cl3  443   4.145   4.448   0.808
   25TCM     c1  444   2.151   4.942   3.514
   25TCM    cl1  445   2.224   5.039   3.647
   25TCM    cl2  446   2.253   4.958   3.368
   25TCM     h1  447   2.146   4.837   3.545
   25TCM    cl3  448   1.986   5.003   3.479
   26TCM     c1  449   2.716   1.674   2.778
   26TCM    cl1  450   2.816   1.707   2.923
   26TCM    cl2  451   2.761   1.514   2.713
   26TCM     h1  452   2.610   1.675   2.806
   26TCM    cl3  453   2.746   1.800   2.654
   27TCM     c1  454   0.387   3.042   4.748
   27TCM    cl1  455   0.542   3.037   4.657
   27TCM    cl2  456   0.322   2.875   4.761
   27TCM     h1  457   0.404   3.082   4.848
   27TCM    cl3  458   0.270   3.144   4.659
   28TCM     c1  459   4.312   3.227   1.978
   28TCM    cl1  460   4.161   3.249   2.072
   28TCM    cl2  461   4.278   3.122   1.836
   28TCM     h1  462   4.348   3.324   1.943
   28TCM    cl3  463   4.437   3.148   2.080
   29TCM     c1  464   0.316   3.745   0.031
   29TCM    cl1  465   0.190   3.833  -0.061
   29TCM    cl2  466   0.403   3.861   0.137
   29TCM     h1  467   0.270   3.668   0.092
   29TCM    cl3  468   0.433   3.671  -0.083
   30TCM     c1  469   2.070   1.003   3.542
   30TCM    cl1  470   2.191   1.115   3.613
   30TCM    cl2  471   2.152   0.883   3.437
   30TCM     h1  472   2.018   0.951   3.623
   30TCM    cl3  473   1.951   1.095   3.444
   31TCM     c1  474   0.958   1.915   2.600
   31TCM    cl1  475   1.019   2.026   2.473
   31TCM    cl2  476   0.828   1.812   2.531
   31TCM     h1  477   1.040   1.851   2.636
   31TCM    cl3  478   0.892   2.012   2.736
   32TCM     c1  479   3.108   4.440   4.938
   32TCM    cl1  480   3.087   4.295   4.835
   32TCM    cl2  481   2.998   4.428   5.080
   32TCM     h1  482   3.211   4.447   4.972
   32TCM    cl3  483   3.064   4.586   4.844
   33TCM     c1  484   2.635   2.442   2.081
   33TCM    cl1  485   2.642   2.620   2.057
   33TCM    cl2  486   2.517   2.404   2.211
   33TCM     h1  487   2.603   2.394   1.988
   33TCM    cl3  488   2.797   2.381   2.126
   34TCM     c1  489   2.955   1.846   0.116
   34TCM    cl1  490   2.962   1.825   0.294
   34TCM    cl2  491   3.113   1.907   0.057
   34TCM     h1  492   2.932   1.750   0.068
   34TCM    cl3  493   2.827   1.966   0.077
   35TCM     c1  494   4.915   4.835   1.076
   35TCM    cl1  495   4.820   4.727   1.184
   35TCM    cl2  496   4.870   5.006   1.107
   35TCM     h1  497   5.022   4.822   1.097
   35TCM    cl3  498   4.882   4.793   0.905
   36TCM     c1  499   0.292   3.276   0.159
   36TCM    cl1  500   0.395   3.131   0.186
   36TCM    cl2  501   0.235   3.276  -0.011
   36TCM     h1  502   0.206   3.274   0.227
   36TCM    cl3  503   0.389   3.424   0.187
   37TCM     c1  504   3.911   3.105   1.820
   37TCM    cl1  505   3.929   2.930   1.783
   37TCM    cl2  506   3.746   3.136   1.882
   37TCM     h1  507   3.985   3.133   1.896
   37TCM    cl3  508   3.939   3.201   1.671
   38TCM     c1  509   1.001   0.757   3.700
   38TCM    cl1  510   0.848   0.746   3.607
   38TCM    cl2  511   1.006   0.912   3.791
   38TCM     h1  512   1.007   0.674   3.770
   38TCM    cl3  513   1.140   0.749   3.588
   39TCM     c1  514   2.654   3.534   3.195
   39TCM    cl1  515   2.509   3.568   3.295
   39TCM    cl2  516   2.786   3.474   3.301
   39TCM     h1  517   2.629   3.458   3.120
   39TCM    cl3  518   2.706   3.685   3.114
   40TCM     c1  519   0.427   0.730   2.404
   40TCM    cl1  520   0.504   0.625   2.528
   40TCM    cl2  521   0.553   0.826   2.321
   40TCM     h1  522   0.374   0.668   2.332
   40TCM    cl3  523   0.312   0.842   2.483
   41TCM     c1  524   4.788   1.978   2.033
   41TCM    cl1  525   4.609   1.973   2.036
   41TCM    cl2  526   4.846   1.921   1.872
   41TCM     h1  527   4.822   2.080   2.050
   41TCM    cl3  528   4.854   1.871   2.161
   42TCM     c1  529   1.297   3.533   2.234
   42TCM    cl1  530   1.221   3.448   2.373
   42TCM    cl2  531   1.410   3.658   2.297
   42TCM     h1  532   1.352   3.461   2.173
   42TCM    cl3  533   1.170   3.611   2.134
   43TCM     c1  534   3.547   1.507   2.058
   43TCM    cl1  535   3.539   1.329   2.041
   43TCM    cl2  536   3.411   1.581   1.966
   43TCM     h1  537   3.539   1.535   2.164
   43TCM    cl3  538   3.703   1.566   1.992
   44TCM     c1  539   0.740   2.126   1.880
   44TCM    cl1  540   0.570   2.140   1.826
   44TCM    cl2  541   0.826   2.280   1.850
   44TCM     h1  542   0.742   2.104   1.988
   44TCM    cl3  543   0.822   1.994   1.790
   45TCM     c1  544   2.254   3.782   1.723
   45TCM    cl1  545   2.226   3.891   1.863
   45TCM    cl2  546   2.135   3.820   1.593
   45TCM     h1  547   2.355   3.797   1.684
   45TCM    cl3  548   2.234   3.612   1.775
   46TCM     c1  549   0.731   4.263   1.019
   46TCM    cl1  550   0.879   4.227   0.923
   46TCM    cl2  551   0.717   4.440   1.042
   46TCM     h1  552   0.643   4.226   0.966
   46TCM    cl3  553   0.743   4.183   1.179
   47TCM     c1  554   0.137   1.140   4.586
   47TCM    cl1  555  -0.030   1.076   4.577
   47TCM    cl2  556   0.247   1.016   4.654
   47TCM     h1  557   0.171   1.169   4.486
   47TCM    cl3  558   0.139   1.284   4.693
   48TCM     c1  559   1.060   3.657   4.625
   48TCM    cl1  560   0.912   3.747   4.576
   48TCM    cl2  561   1.196   3.773   4.641
   48TCM     h1  562   1.042   3.608   4.721
   48TCM    cl3  563   1.098   3.535   4.500
   49TCM     c1  564   0.228   0.697   4.481
   49TCM    cl1  565   0.374   0.765   4.401
   49TCM    cl2  566   0.230   0.518   4.471
   49TCM     h1  567   0.227   0.728   4.586
   49TCM    cl3  568   0.081   0.759   4.399
   50TCM     c1  569   1.020   4.035   2.175
   50TCM    cl1  570   1.146   3.957   2.276
   50TCM    cl2  571   0.969   3.922   2.045
   50TCM     h1  572   0.934   4.060   2.237
   50TCM    cl3  573   1.087   4.184   2.101
   51TCM     c1  574   3.498   4.093   0.102
   51TCM    cl1  575   3.485   4.067   0.279
   51TCM    cl2  576   3.369   4.205   0.049
   51TCM     h1  577   3.596   4.136   0.078
   51TCM    cl3  578   3.480   3.936   0.017
   52TCM     c1  579   1.063   1.559   1.263
   52TCM    cl1  580   1.048   1.437   1.132
   52TCM    cl2  581   1.155   1.700   1.201
   52TCM     h1  582   0.963   1.591   1.295
   52TCM    cl3  583   1.150   1.488   1.403
   53TCM     c1  584   3.172   0.447   2.126
   53TCM    cl1  585   3.271   0.490   2.269
   53TCM    cl2  586   3.255   0.502   1.977
   53TCM     h1  587   3.159   0.339   2.122
   53TCM    cl3  588   3.011   0.526   2.138
   54TCM     c1  589   0.149   0.687   1.977
   54TCM    cl1  590   0.166   0.618   1.812
   54TCM    cl2  591   0.288   0.634   2.077
   54TCM     h1  592   0.147   0.796   1.971
   54TCM    cl3  593  -0.004   0.628   2.051
   55TCM     c1  594   3.733   2.474   1.165
   55TCM    cl1  595   3.579   2.435   1.250
   55TCM    cl2  596   3.727   2.642   1.102
   55TCM     h1  597   3.816   2.465   1.235
   55TCM    cl3  598   3.756   2.359   1.029
   56TCM     c1  599   4.927   1.617   3.132
   56TCM    cl1  600   4.933   1.439   3.110
   56TCM    cl2  601   4.921   1.697   2.971
   56TCM     h1  602   4.837   1.644   3.189
   56TCM    cl3  603   5.073   1.671   3.221
   57TCM     c1  604   1.757   3.420   2.320
   57TCM    cl1  605   1.617   3.354   2.229
   57TCM    cl2  606   1.814   3.570   2.240
   57TCM     h1  607   1.727   3.442   2.423
   57TCM    cl3  608   1.888   3.298   2.320
   58TCM     c1  609   0.325   4.914   4.621
   58TCM    cl1  610   0.183   4.898   4.512
   58TCM    cl2  611   0.266   4.941   4.788
   58TCM     h1  612   0.385   4.823   4.617
   58TCM    cl3  613   0.423   5.054   4.570
   59TCM     c1  614   4.317   0.254   4.372
   59TCM    cl1  615   4.240   0.114   4.454
   59TCM    cl2  616   4.243   0.275   4.210
   59TCM     h1  617   4.301   0.344   4.432
   59TCM    cl3  618   4.493   0.224   4.356
   60TCM     c1  619   3.739   4.617   1.433
   60TCM    cl1  620   3.826   4.606   1.590
   60TCM    cl2  621   3.751   4.460   1.347
   60TCM     h1  622   3.634   4.641   1.451
   60TCM    cl3  623   3.814   4.746   1.333
   61TCM     c1  624   4.596   4.347   4.883
   61TCM    cl1  625   4.631   4.265   5.039
   61TCM    cl2  626   4.470   4.471   4.908
   61TCM     h1  627   4.687   4.394   4.844
   61TCM    cl3  628   4.536   4.226   4.765
   62TCM     c1  629   3.904   4.181   1.667
   62TCM    cl1  630   4.000   4.313   1.740
   62TCM    cl2  631   3.940   4.172   1.491
   62TCM     h1  632   3.930   4.086   1.714
   62TCM    cl3  633   3.729   4.213   1.690
   63TCM     c1  634   3.596   3.947   3.303
   63TCM    cl1  635   3.505   3.957   3.457
   63TCM    cl2  636   3.662   3.781   3.282
   63TCM     h1  637   3.530   3.971   3.219
   63TCM    cl3  638   3.732   4.063   3.308
   64TCM     c1  639   0.147   0.846   3.245
   64TCM    cl1  640   0.012   0.802   3.135
   64TCM    cl2  641   0.257   0.963   3.164
   64TCM     h1  642   0.107   0.892   3.336
   64TCM    cl3  643   0.239   0.698   3.286
   65TCM     c1  644   2.967   2.476   2.932
   65TCM    cl1  645   2.848   2.350   2.978
   65TCM    cl2  646   3.079   2.505   3.068
   65TCM     h1  647   3.023   2.442   2.844
   65TCM    cl3  648   2.880   2.627   2.892
   66TCM     c1  649   3.539   1.991   2.285
   66TCM    cl1  650   3.577   1.895   2.138
   66TCM    cl2  651   3.687   2.008   2.386
   66TCM     h1  652   3.504   2.090   2.255
   66TCM    cl3  653   3.412   1.907   2.379
   67TCM     c1  654   4.999   0.411   2.393
   67TCM    cl1  655   5.118   0.546   2.398
   67TCM    cl2  656   4.834   0.479   2.374
   67TCM     h1  657   5.022   0.345   2.309
   67TCM    cl3  658   5.009   0.318   2.547
   68TCM     c1  659   4.978   3.480   0.985
   68TCM    cl1  660   5.154   3.453   0.963
   68TCM    cl2  661   4.941   3.654   0.963
   68TCM     h1  662   4.922   3.421   0.912
   68TCM    cl3  663   4.931   3.427   1.151
   69TCM     c1  664   1.377   3.307   0.790
   69TCM    cl1  665   1.507   3.311   0.915
   69TCM    cl2  666   1.451   3.307   0.627
   69TCM     h1  667   1.317   3.217   0.803
   69TCM    cl3  668   1.273   3.452   0.810
   70TCM     c1  669   4.539   4.766   2.099
   70TCM    cl1  670   4.684   4.681   2.034
   70TCM    cl2  671   4.417   4.784   1.968
   70TCM     h1  672   4.496   4.708   2.181
   70TCM    cl3  673   4.587   4.928   2.158
   71TCM     c1  674   2.647   4.259   3.900
   71TCM    cl1  675   2.475   4.215   3.922
   71TCM    cl2  676   2.731   4.251   4.058
   71TCM     h1  677   2.695   4.190   3.830
   71TCM    cl3  678   2.657   4.426   3.835
   72TCM     c1  679   4.620   1.677   4.979
   72TCM    cl1  680   4.553   1.705   4.815
   72TCM    cl2  681   4.800   1.675   4.970
   72TCM     h1  682   4.588   1.757   5.046
   72TCM    cl3  683   4.561   1.519   5.041
   73TCM     c1  684   2.699   4.668   4.168
   73TCM    cl1  685   2.540   4.590   4.139
   73TCM    cl2  686   2.761   4.737   4.015
   73TCM     h1  687   2.687   4.748   4.241
   73TCM    cl3  688   2.816   4.547   4.231
   74TCM     c1  689   3.676   3.987   2.082
   74TCM    cl1  690   3.588   4.143   2.076
   74TCM    cl2  691   3.830   4.002   1.992
   74TCM     h1  692   3.697   3.961   2.186
   74TCM    cl3  693   3.574   3.859   2.008
   75TCM     c1  694   0.750   0.046   3.284
   75TCM    cl1  695   0.756  -0.109   3.374
   75TCM    cl2  696   0.759   0.013   3.107
   75TCM     h1  697   0.658   0.099   3.307
   75TCM    cl3  698   0.891   0.147   3.331
   76TCM     c1  699   0.753   1.412   2.676
   76TCM    cl1  700   0.626   1.519   2.607
   76TCM    cl2  701   0.709   1.366   2.843
   76TCM     h1  702   0.762   1.322   2.614
   76TCM    cl3  703   0.910   1.499   2.678
   77TCM     c1  704   0.997   0.542   2.269
   77TCM    cl1  705   0.880   0.579   2.400
   77TCM    cl2  706   0.959   0.383   2.196
   77TCM     h1  707   0.991   0.619   2.192
   77TCM    cl3  708   1.163   0.539   2.336
   78TCM     c1  709   2.847   1.016   3.534
   78TCM    cl1  710   2.888   1.190   3.536
   78TCM    cl2  711   2.800   0.965   3.700
   78TCM     h1  712   2.765   0.998   3.465
   78TCM    cl3  713   2.992   0.922   3.482
   79TCM     c1  714   4.432   4.856   1.172
   79TCM    cl1  715   4.270   4.933   1.163
   79TCM    cl2  716   4.520   4.921   1.314
   79TCM     h1  717   4.421   4.748   1.181
   79TCM    cl3  718   4.524   4.894   1.022
   80TCM     c1  719   0.518   4.225   0.234
   80TCM    cl1  720   0.345   4.217   0.281
   80TCM    cl2  721   0.535   4.187   0.060
   80TCM     h1  722   0.557   4.325   0.254
   80TCM    cl3  723   0.610   4.105   0.332
   81TCM     c1  724   2.236   3.415   2.259
   81TCM    cl1  725   2.327   3.518   2.144
   81TCM    cl2  726   2.186   3.513   2.401
   81TCM     h1  727   2.148   3.373   2.209
   81TCM    cl3  728   2.341   3.280   2.315
   82TCM     c1  729   0.241   3.014   0.883
   82TCM    cl1  730   0.335   3.161   0.841
   82TCM    cl2  731   0.340   2.868   0.853
   82TCM     h1  732   0.213   3.018   0.989
   82TCM    cl3  733   0.094   3.008   0.781
   83TCM     c1  734   3.190   3.650   0.980
   83TCM    cl1  735   3.189   3.824   1.025
   83TCM    cl2  736   3.246   3.553   1.120
   83TCM     h1  737   3.089   3.619   0.951
   83TCM    cl3  738   3.302   3.625   0.842
   84TCM     c1  739   3.135   2.625   4.916
   84TCM    cl1  740   3.280   2.719   4.866
   84TCM    cl2  741   2.987   2.715   4.870
   84TCM     h1  742   3.135   2.528   4.865
   84TCM    cl3  743   3.138   2.600   5.093
   85TCM     c1  744   1.150   1.310   1.870
   85TCM    cl1  745   1.027   1.407   1.957
   85TCM    cl2  746   1.308   1.396   1.875
   85TCM     h1  747   1.160   1.212   1.918
   85TCM    cl3  748   1.099   1.288   1.700
   86TCM     c1  749   1.595   2.462   4.664
   86TCM    cl1  750   1.478   2.334   4.618
   86TCM    cl2  751   1.758   2.390   4.681
   86TCM     h1  752   1.597   2.539   4.586
   86TCM    cl3  753   1.545   2.535   4.820
   87TCM     c1  754   1.934   3.953   3.915
   87TCM    cl1  755   1.829   3.867   3.798
   87TCM    cl2  756   1.847   3.974   4.070
   87TCM     h1  757   2.025   3.895   3.932
   87TCM    cl3  758   1.976   4.114   3.849
   88TCM     c1  759   0.490   0.228   4.887
   88TCM    cl1  760   0.586   0.082   4.930
   88TCM    cl2  761   0.587   0.375   4.919
   88TCM     h1  762   0.464   0.224   4.781
   88TCM    cl3  763   0.341   0.231   4.986
   89TCM     c1  764   0.817   0.445   2.923
   89TCM    cl1  765   0.793   0.443   2.745
   89TCM    cl2  766   0.877   0.606   2.974
   89TCM     h1  767   0.721   0.425   2.972
   89TCM    cl3  768   0.936   0.319   2.970
   90TCM     c1  769   4.448   3.112   3.129
   90TCM    cl1  770   4.454   3.280   3.065
   90TCM    cl2  771   4.526   3.107   3.291
   90TCM     h1  772   4.343   3.080   3.138
   90TCM    cl3  773   4.537   3.003   3.018
   91TCM     c1  774   3.075   4.894   0.313
   91TCM    cl1  775   3.159   4.829   0.169
   91TCM    cl2  776   3.187   5.001   0.405
   91TCM     h1  777   2.988   4.952   0.281
   91TCM    cl3  778   3.023   4.759   0.419
   92TCM     c1  779   1.569   4.838   3.506
   92TCM    cl1  780   1.528   4.941   3.365
   92TCM    cl2  781   1.623   4.939   3.643
   92TCM     h1  782   1.480   4.780   3.535
   92TCM    cl3  783   1.700   4.725   3.458
   93TCM     c1  784   0.765   0.739   4.024
   93TCM    cl1  785   0.686   0.723   4.184
   93TCM    cl2  786   0.647   0.801   3.904
   93TCM     h1  787   0.849   0.808   4.032
   93TCM    cl3  788   0.825   0.579   3.970
   94TCM     c1  789   2.125   0.065   2.609
   94TCM    cl1  790   2.206  -0.046   2.494
   94TCM    cl2  791   2.073   0.213   2.522
   94TCM     h1  792   2.038   0.015   2.652
   94TCM    cl3  793   2.239   0.110   2.740
   95TCM     c1  794   1.056   1.311   2.299
   95TCM    cl1  795   1.097   1.156   2.217
   95TCM    cl2  796   1.168   1.338   2.436
   95TCM     h1  797   1.064   1.393   2.228
   95TCM    cl3  798   0.887   1.302   2.360
   96TCM     c1  799   1.259   1.628   4.861
   96TCM    cl1  800   1.235   1.460   4.919
   96TCM    cl2  801   1.187   1.643   4.697
   96TCM     h1  802   1.210   1.698   4.929
   96TCM    cl3  803   1.434   1.665   4.853
   97TCM     c1  804   4.113   2.760   2.204
   97TCM    cl1  805   4.135   2.583   2.186
   97TCM    cl2  806   3.944   2.805   2.162
   97TCM     h1  807   4.133   2.790   2.308
   97TCM    cl3  808   4.225   2.846   2.093
   98TCM     c1  809   2.872   4.758   1.345
   98TCM    cl1  810   2.965   4.647   1.239
   98TCM    cl2  811   2.967   4.906   1.376
   98TCM     h1  812   2.778   4.784   1.296
   98TCM    cl3  813   2.838   4.675   1.500
   99TCM     c1  814   4.291   2.658   3.092
   99TCM    cl1  815   4.459   2.612   3.048
   99TCM    cl2  816   4.201   2.702   2.943
   99TCM     h1  817   4.242   2.574   3.141
   99TCM    cl3  818   4.295   2.800   3.202
  100TCM     c1  819   4.135   0.597   3.477
  100TCM    cl1  820   4.004   0.719   3.485
  100TCM    cl2  821   4.065   0.434   3.506
  100TCM     h1  822   4.182   0.600   3.378
  100TCM    cl3  823   4.258   0.631   3.602
  101TCM     c1  824   4.189   0.889   3.007
  101TCM    cl1  825   4.319   0.994   3.071
  101TCM    cl2  826   4.100   0.814   3.143
  101TCM     h1  827   4.120   0.948   2.946
  101TCM    cl3  828   4.261   0.759   2.907
  102TCM     c1  829   1.867   0.296   3.183
  102TCM    cl1  830   1.872   0.339   3.358
  102TCM    cl2  831   1.702   0.240   3.143
  102TCM     h1  832   1.892   0.384   3.123
  102TCM    cl3  833   1.985   0.165   3.149
  103TCM     c1  834   0.398   4.648   3.299
  103TCM    cl1  835   0.408   4.793   3.194
  103TCM    cl2  836   0.234   4.576   3.288
  103TCM     h1  837   0.472   4.575   3.267
  103TCM    cl3  838   0.430   4.696   3.469
  104TCM     c1  839   0.126   1.651   4.741
  104TCM    cl1  840   0.106   1.819   4.801
  104TCM    cl2  841   0.301   1.610   4.742
  104TCM     h1  842   0.071   1.582   4.806
  104TCM    cl3  843   0.062   1.640   4.574
  105TCM     c1  844   0.874   0.251   0.187
  105TCM    cl1  845   1.020   0.274   0.289
  105TCM    cl2  846   0.811   0.085   0.213
  105TCM     h1  847   0.798   0.324   0.215
  105TCM    cl3  848   0.919   0.271   0.015
  106TCM     c1  849   0.801   1.865   1.229
  106TCM    cl1  850   0.745   1.997   1.123
  106TCM    cl2  851   0.734   1.709   1.170
  106TCM     h1  852   0.910   1.861   1.229
  106TCM    cl3  853   0.743   1.894   1.397
  107TCM     c1  854   4.548   1.549   2.104
  107TCM    cl1  855   4.561   1.649   2.253
  107TCM    cl2  856   4.679   1.594   1.989
  107TCM     h1  857   4.558   1.443   2.130
  107TCM    cl3  858   4.389   1.578   2.027
  108TCM     c1  859   2.902   1.220   2.558
  108TCM    cl1  860   2.822   1.251   2.401
  108TCM    cl2  861   3.041   1.332   2.577
  108TCM     h1  862   2.830   1.237   2.639
  108TCM    cl3  863   2.962   1.051   2.564
  109TCM     c1  864   2.979   0.456   2.520
  109TCM    cl1  865   3.037   0.626   2.525
  109TCM    cl2  866   2.840   0.437   2.631
  109TCM     h1  867   2.948   0.431   2.418
  109TCM    cl3  868   3.111   0.346   2.572
  110TCM     c1  869   2.266   4.560   1.098
  110TCM    cl1  870   2.186   4.441   1.206
  110TCM    cl2  871   2.145   4.630   0.986
  110TCM     h1  872   2.312   4.639   1.157
  110TCM    cl3  873   2.394   4.477   1.002
  111TCM     c1  874   0.323   3.263   4.027
  111TCM    cl1  875   0.159   3.322   3.984
  111TCM    cl2  876   0.427   3.403   4.069
  111TCM     h1  877   0.317   3.195   4.112
  111TCM    cl3  878   0.393   3.176   3.886
  112TCM     c1  879   2.745   4.860   1.781
  112TCM    cl1  880   2.622   4.883   1.909
  112TCM    cl2  881   2.902   4.811   1.853
  112TCM     h1  882   2.711   4.783   1.711
  112TCM    cl3  883   2.767   5.015   1.693
  113TCM     c1  884   2.488   4.672   3.434
  113TCM    cl1  885   2.606   4.557   3.504
  113TCM    cl2  886   2.365   4.583   3.338
  113TCM     h1  887   2.438   4.727   3.515
  113TCM    cl3  888   2.574   4.787   3.327
  114TCM     c1  889   3.475   3.512   4.746
  114TCM    cl1  890   3.647   3.466   4.776
  114TCM    cl2  891   3.422   3.440   4.590
  114TCM     h1  892   3.412   3.475   4.827
  114TCM    cl3  893   3.464   3.690   4.737
  115TCM     c1  894   1.851   0.055   4.404
  115TCM    cl1  895   1.727  -0.017   4.513
  115TCM    cl2  896   1.777   0.189   4.310
  115TCM     h1  897   1.935   0.092   4.463
  115TCM    cl3  898   1.909  -0.071   4.289
  116TCM     c1  899   3.290   3.764   1.804
  116TCM    cl1  900   3.190   3.883   1.894
  116TCM    cl2  901   3.374   3.846   1.669
  116TCM     h1  902   3.363   3.720   1.872
  116TCM    cl3  903   3.183   3.635   1.739
  117TCM     c1  904   0.098   2.675   2.076
  117TCM    cl1  905   0.007   2.548   2.164
  117TCM    cl2  906   0.128   2.621   1.907
  117TCM     h1  907   0.039   2.767   2.075
  117TCM    cl3  908   0.255   2.703   2.157
  118TCM     c1  909   1.538   0.793   3.391
  118TCM    cl1  910   1.647   0.656   3.353
  118TCM    cl2  911   1.620   0.946   3.348
  118TCM     h1  912   1.445   0.783   3.334
  118TCM    cl3  913   1.500   0.793   3.566
  119TCM     c1  914   1.413   4.453   3.390
  119TCM    cl1  915   1.571   4.387   3.335
  119TCM    cl2  916   1.375   4.601   3.297
  119TCM     h1  917   1.335   4.378   3.375
  119TCM    cl3  918   1.425   4.493   3.565
  120TCM     c1  919   1.061   2.819   3.552
  120TCM    cl1  920   1.097   2.845   3.378
  120TCM    cl2  921   1.122   2.657   3.601
  120TCM     h1  922   1.110   2.896   3.612
  120TCM    cl3  923   0.883   2.825   3.578
  121TCM     c1  924   4.843   2.299   2.349
  121TCM    cl1  925   4.779   2.241   2.507
  121TCM    cl2  926   4.715   2.288   2.224
  121TCM     h1  927   4.875   2.403   2.360
  121TCM    cl3  928   4.983   2.197   2.301
  122TCM     c1  929   2.439   1.398   1.762
  122TCM    cl1  930   2.494   1.557   1.824
  122TCM    cl2  931   2.277   1.361   1.831
  122TCM     h1  932   2.432   1.403   1.653
  122TCM    cl3  933   2.556   1.271   1.810
  123TCM     c1  934   1.103   4.939   3.572
  123TCM    cl1  935   1.219   5.074   3.548
  123TCM    cl2  936   1.017   4.964   3.727
  123TCM     h1  937   1.032   4.936   3.490
  123TCM    cl3  938   1.195   4.785   3.579
  124TCM     c1  939   4.191   3.528   2.800
  124TCM    cl1  940   4.141   3.546   2.972
  124TCM    cl2  941   4.195   3.691   2.724
  124TCM     h1  942   4.291   3.483   2.795
  124TCM    cl3  943   4.073   3.425   2.714
  125TCM     c1  944   4.168   1.016   3.808
  125TCM    cl1  945   4.057   0.875   3.808
  125TCM    cl2  946   4.333   0.963   3.761
  125TCM     h1  947   4.132   1.091   3.737
  125TCM    cl3  948   4.173   1.086   3.973
  126TCM     c1  949   3.767   1.683   2.536
  126TCM    cl1  950   3.945   1.701   2.519
  126TCM    cl2  951   3.733   1.556   2.658
  126TCM     h1  952   3.724   1.778   2.569
  126TCM    cl3  953   3.696   1.636   2.378
  127TCM     c1  954   4.927   4.074   3.317
  127TCM    cl1  955   5.100   4.084   3.274
  127TCM    cl2  956   4.906   3.959   3.452
  127TCM     h1  957   4.891   4.173   3.347
  127TCM    cl3  958   4.833   4.018   3.175
  128TCM     c1  959   0.397   1.694   0.174
  128TCM    cl1  960   0.233   1.758   0.139
  128TCM    cl2  961   0.384   1.543   0.269
  128TCM     h1  962   0.449   1.674   0.080
  128TCM    cl3  963   0.488   1.816   0.269
  129TCM     c1  964   3.487   1.671   3.379
  129TCM    cl1  965   3.361   1.758   3.472
  129TCM    cl2  966   3.472   1.711   3.205
  129TCM     h1  967   3.585   1.700   3.415
  129TCM    cl3  968   3.465   1.494   3.401
  130TCM     c1  969   1.113   2.359   2.855
  130TCM    cl1  970   0.976   2.297   2.953
  130TCM    cl2  971   1.163   2.521   2.915
  130TCM     h1  972   1.198   2.290   2.862
  130TCM    cl3  973   1.062   2.372   2.683
  131TCM     c1  974   0.190   2.565   0.007
  131TCM    cl1  975   0.203   2.449   0.143
  131TCM    cl2  976   0.329   2.539  -0.104
  131TCM     h1  977   0.096   2.548  -0.047
  131TCM    cl3  978   0.193   2.733   0.069
  132TCM     c1  979   0.707   4.656   4.895
  132TCM    cl1  980   0.543   4.718   4.858
  132TCM    cl2  981   0.698   4.479   4.922
  132TCM     h1  982   0.774   4.676   4.811
  132TCM    cl3  983   0.771   4.736   5.043
  133TCM     c1  984   4.609   4.601   0.225
  133TCM    cl1  985   4.742   4.613   0.105
  133TCM    cl2  986   4.573   4.764   0.290
  133TCM     h1  987   4.520   4.561   0.176
  133TCM    cl3  988   4.659   4.493   0.359
  134TCM     c1  989   0.609   1.233   0.421
  134TCM    cl1  990   0.530   1.090   0.493
  134TCM    cl2  991   0.645   1.201   0.248
  134TCM     h1  992   0.544   1.320   0.429
  134TCM    cl3  993   0.763   1.265   0.508
  135TCM     c1  994   2.255   0.396   3.515
  135TCM    cl1  995   2.136   0.530   3.529
  135TCM    cl2  996   2.419   0.461   3.542
  135TCM     h1  997   2.233   0.320   3.590
  135TCM    cl3  998   2.245   0.324   3.351
  136TCM     c1  999   0.477   1.295   3.211
  136TCM    cl1 1000   0.578   1.439   3.172
  136TCM    cl2 1001   0.303   1.339   3.199
  136TCM     h1 1002   0.500   1.215   3.140
  136TCM    cl3 1003   0.514   1.241   3.378
  137TCM     c1 1004   0.149   4.354   0.017
  137TCM    cl1 1005   0.272   4.482  -0.008
  137TCM    cl2 1006   0.200   4.204  -0.067
  137TCM     h1 1007   0.139   4.334   0.124
  137TCM    cl3 1008  -0.010   4.407  -0.047
  138TCM     c1 1009   4.038   1.299   2.119
  138TCM    cl1 1010   4.156   1.293   1.984
  138TCM    cl2 1011   3.884   1.223   2.065
  138TCM     h1 1012   4.077   1.245   2.205
  138TCM    cl3 1013   4.008   1.470   2.164
  139TCM     c1 1014   0.822   0.111   1.697
  139TCM    cl1 1015   0.902  -0.048   1.671
  139TCM    cl2 1016   0.905   0.200   1.829
  139TCM     h1 1017   0.828   0.170   1.605
  139TCM    cl3 1018   0.650   0.086   1.741
  140TCM     c1 1019   4.722   0.319   3.061
  140TCM    cl1 1020   4.840   0.445   3.109
  140TCM    cl2 1021   4.556   0.383   3.077
  140TCM     h1 1022   4.740   0.289   2.958
  140TCM    cl3 1023   4.741   0.177   3.170
  141TCM     c1 1024   1.645   1.435   3.520
  141TCM    cl1 1025   1.630   1.315   3.388
  141TCM    cl2 1026   1.810   1.428   3.589
  141TCM     h1 1027   1.626   1.535   3.481
  141TCM    cl3 1028   1.525   1.397   3.649
  142TCM     c1 1029   2.463   3.494   3.646
  142TCM    cl1 1030   2.370   3.385   3.754
  142TCM    cl2 1031   2.629   3.429   3.625
  142TCM     h1 1032   2.414   3.501   3.549
  142TCM    cl3 1033   2.473   3.658   3.719
  143TCM     c1 1034   0.810   1.208   3.600
  143TCM    cl1 1035   0.939   1.288   3.696
  143TCM    cl2 1036   0.705   1.112   3.711
  143TCM     h1 1037   0.749   1.283   3.549
  143TCM    cl3 1038   0.884   1.099   3.479
  144TCM     c1 1039   0.894   4.430   1.797
  144TCM    cl1 1040   0.949   4.299   1.687
  144TCM    cl2 1041   0.716   4.448   1.783
  144TCM     h1 1042   0.920   4.405   1.900
  144TCM    cl3 1043   0.973   4.585   1.750
  145TCM     c1 1044   3.531   4.108   2.572
  145TCM    cl1 1045   3.597   4.004   2.441
  145TCM    cl2 1046   3.373   4.043   2.625
  145TCM     h1 1047   3.600   4.110   2.656
  145TCM    cl3 1048   3.509   4.274   2.508
  146TCM     c1 1049   0.456   2.364   3.375
  146TCM    cl1 1050   0.528   2.240   3.268
  146TCM    cl2 1051   0.399   2.286   3.526
  146TCM     h1 1052   0.531   2.441   3.398
  146TCM    cl3 1053   0.317   2.441   3.291
  147TCM     c1 1054   1.773   3.948   1.816
  147TCM    cl1 1055   1.885   4.051   1.720
  147TCM    cl2 1056   1.865   3.813   1.890
  147TCM     h1 1057   1.727   4.008   1.894
  147TCM    cl3 1058   1.645   3.882   1.709
  148TCM     c1 1059   2.141   1.592   2.262
  148TCM    cl1 1060   2.264   1.510   2.159
  148TCM    cl2 1061   2.219   1.725   2.353
  148TCM     h1 1062   2.061   1.631   2.199
  148TCM    cl3 1063   2.072   1.473   2.378
  149TCM     c1 1064   3.736   0.078   3.809
  149TCM    cl1 1065   3.687   0.030   3.975
  149TCM    cl2 1066   3.671  -0.039   3.690
  149TCM     h1 1067   3.697   0.178   3.787
  149TCM    cl3 1068   3.916   0.082   3.799
  150TCM     c1 1069   4.973   4.571   4.552
  150TCM    cl1 1070   5.034   4.501   4.399
  150TCM    cl2 1071   5.110   4.583   4.668
  150TCM     h1 1072   4.933   4.671   4.534
  150TCM    cl3 1073   4.845   4.466   4.621
  151TCM     c1 1074   0.602   1.758   0.614
  151TCM    cl1 1075   0.743   1.842   0.542
  151TCM    cl2 1076   0.616   1.762   0.793
  151TCM     h1 1077   0.509   1.808   0.583
  151TCM    cl3 1078   0.600   1.588   0.558
  152TCM     c1 1079   1.005   1.797   2.151
  152TCM    cl1 1080   0.874   1.920   2.154
  152TCM    cl2 1081   1.045   1.758   1.981
  152TCM     h1 1082   1.093   1.836   2.202
  152TCM    cl3 1083   0.948   1.648   2.234
  153TCM     c1 1084   3.556   1.334   3.080
  153TCM    cl1 1085   3.381   1.303   3.101
  153TCM    cl2 1086   3.606   1.284   2.915
  153TCM     h1 1087   3.576   1.441   3.094
  153TCM    cl3 1088   3.648   1.240   3.202
  154TCM     c1 1089   3.211   0.201   1.773
  154TCM    cl1 1090   3.123   0.075   1.681
  154TCM    cl2 1091   3.340   0.271   1.669
  154TCM     h1 1092   3.141   0.280   1.802
  154TCM    cl3 1093   3.284   0.129   1.920
  155TCM     c1 1094   3.984   2.463   1.474
  155TCM    cl1 1095   3.888   2.615   1.468
  155TCM    cl2 1096   4.088   2.453   1.328
  155TCM     h1 1097   4.046   2.463   1.564
  155TCM    cl3 1098   3.873   2.322   1.477
  156TCM     c1 1099   2.785   4.284   2.575
  156TCM    cl1 1100   2.659   4.346   2.686
  156TCM    cl2 1101   2.879   4.156   2.658
  156TCM     h1 1102   2.739   4.243   2.485
  156TCM    cl3 1103   2.896   4.418   2.530
  157TCM     c1 1104   4.353   0.992   2.602
  157TCM    cl1 1105   4.293   0.833   2.544
  157TCM    cl2 1106   4.494   0.966   2.710
  157TCM     h1 1107   4.383   1.053   2.517
  157TCM    cl3 1108   4.223   1.076   2.693
  158TCM     c1 1109   0.775   1.895   4.927
  158TCM    cl1 1110   0.813   1.935   5.097
  158TCM    cl2 1111   0.633   1.785   4.921
  158TCM     h1 1112   0.753   1.986   4.872
  158TCM    cl3 1113   0.917   1.814   4.851
  159TCM     c1 1114   2.087   4.627   4.457
  159TCM    cl1 1115   2.031   4.739   4.585
  159TCM    cl2 1116   2.152   4.478   4.532
  159TCM     h1 1117   2.004   4.602   4.390
  159TCM    cl3 1118   2.218   4.705   4.362
  160TCM     c1 1119   2.124   0.178   4.832
  160TCM    cl1 1120   2.289   0.160   4.763
  160TCM    cl2 1121   2.129   0.149   5.009
  160TCM     h1 1122   2.088   0.279   4.813
  160TCM    cl3 1123   2.014   0.060   4.754
  161TCM     c1 1124   1.923   0.800   3.162
  161TCM    cl1 1125   1.788   0.777   3.046
  161TCM    cl2 1126   2.042   0.914   3.091
  161TCM     h1 1127   1.885   0.839   3.256
  161TCM    cl3 1128   2.003   0.642   3.191
  162TCM     c1 1129   1.663   2.151   4.945
  162TCM    cl1 1130   1.658   2.283   5.068
  162TCM    cl2 1131   1.569   2.011   5.005
  162TCM     h1 1132   1.621   2.187   4.851
  162TCM    cl3 1133   1.834   2.102   4.919
  163TCM     c1 1134   2.074   1.858   1.737
  163TCM    cl1 1135   2.201   1.981   1.772
  163TCM    cl2 1136   2.146   1.694   1.744
  163TCM     h1 1137   1.994   1.866   1.812
  163TCM    cl3 1138   2.007   1.888   1.574
  164TCM     c1 1139   4.843   1.298   0.529
  164TCM    cl1 1140   4.708   1.319   0.644
  164TCM    cl2 1141   4.941   1.155   0.575
  164TCM     h1 1142   4.804   1.284   0.428
  164TCM    cl3 1143   4.948   1.443   0.534
  165TCM     c1 1144   2.923   1.494   1.832
  165TCM    cl1 1145   3.097   1.461   1.800
  165TCM    cl2 1146   2.832   1.484   1.677
  165TCM     h1 1147   2.884   1.420   1.903
  165TCM    cl3 1148   2.908   1.658   1.900
  166TCM     c1 1149   4.449   4.500   2.566
  166TCM    cl1 1150   4.348   4.631   2.634
  166TCM    cl2 1151   4.474   4.527   2.391
  166TCM     h1 1152   4.546   4.498   2.617
  166TCM    cl3 1153   4.367   4.342   2.591
  167TCM     c1 1154   3.116   0.300   4.569
  167TCM    cl1 1155   3.014   0.337   4.712
  167TCM    cl2 1156   3.013   0.290   4.422
  167TCM     h1 1157   3.191   0.378   4.555
  167TCM    cl3 1158   3.197   0.141   4.594
  168TCM     c1 1159   3.583   3.900   3.894
  168TCM    cl1 1160   3.543   4.036   4.004
  168TCM    cl2 1161   3.714   3.948   3.781
  168TCM     h1 1162   3.616   3.814   3.954
  168TCM    cl3 1163   3.437   3.854   3.800
  169TCM     c1 1164   2.343   0.827   3.823
  169TCM    cl1 1165   2.433   0.809   3.669
  169TCM    cl2 1166   2.417   0.722   3.949
  169TCM     h1 1167   2.346   0.931   3.856
  169TCM    cl3 1168   2.172   0.776   3.800
  170TCM     c1 1169   2.595   0.304   0.016
  170TCM    cl1 1170   2.432   0.378   0.024
  170TCM    cl2 1171   2.708   0.402   0.115
  170TCM     h1 1172   2.591   0.202   0.054
  170TCM    cl3 1173   2.650   0.304  -0.154
  171TCM     c1 1174   2.479   3.224   1.952
  171TCM    cl1 1175   2.508   3.338   1.817
  171TCM    cl2 1176   2.566   3.070   1.922
  171TCM     h1 1177   2.516   3.268   2.045
  171TCM    cl3 1178   2.304   3.192   1.968
  172TCM     c1 1179   0.791   4.663   1.432
  172TCM    cl1 1180   0.653   4.773   1.465
  172TCM    cl2 1181   0.868   4.710   1.277
  172TCM     h1 1182   0.864   4.670   1.513
  172TCM    cl3 1183   0.732   4.494   1.418
  173TCM     c1 1184   3.999   2.247   4.642
  173TCM    cl1 1185   4.074   2.406   4.603
  173TCM    cl2 1186   4.020   2.213   4.817
  173TCM     h1 1187   3.893   2.250   4.617
  173TCM    cl3 1188   4.080   2.117   4.548
  174TCM     c1 1189   1.736   4.815   4.868
  174TCM    cl1 1190   1.584   4.842   4.960
  174TCM    cl2 1191   1.719   4.664   4.773
  174TCM     h1 1192   1.754   4.899   4.801
  174TCM    cl3 1193   1.874   4.798   4.981
  175TCM     c1 1194   3.416   3.580   0.183
  175TCM    cl1 1195   3.295   3.620   0.056
  175TCM    cl2 1196   3.409   3.703   0.314
  175TCM     h1 1197   3.394   3.481   0.224
  175TCM    cl3 1198   3.580   3.580   0.111
  176TCM     c1 1199   4.641   0.881   0.583
  176TCM    cl1 1200   4.678   0.953   0.744
  176TCM    cl2 1201   4.791   0.816   0.510
  176TCM     h1 1202   4.569   0.800   0.596
  176TCM    cl3 1203   4.571   1.007   0.476
  177TCM     c1 1204   4.110   1.821   2.128
  177TCM    cl1 1205   4.203   1.774   2.274
  177TCM    cl2 1206   4.172   1.979   2.068
  177TCM     h1 1207   4.122   1.745   2.050
  177TCM    cl3 1208   3.936   1.838   2.169
  178TCM     c1 1209   3.635   1.546   0.107
  178TCM    cl1 1210   3.761   1.515  -0.017
  178TCM    cl2 1211   3.605   1.722   0.118
  178TCM     h1 1212   3.543   1.495   0.078
  178TCM    cl3 1213   3.691   1.483   0.265
  179TCM     c1 1214   3.917   3.134   4.762
  179TCM    cl1 1215   4.029   3.059   4.880
  179TCM    cl2 1216   3.748   3.116   4.821
  179TCM     h1 1217   3.941   3.240   4.750
  179TCM    cl3 1218   3.933   3.051   4.604
  180TCM     c1 1219   1.200   0.295   3.834
  180TCM    cl1 1220   1.095   0.403   3.737
  180TCM    cl2 1221   1.162   0.315   4.008
  180TCM     h1 1222   1.183   0.191   3.805
  180TCM    cl3 1223   1.372   0.337   3.807
  181TCM     c1 1224   3.385   0.337   1.254
  181TCM    cl1 1225   3.301   0.185   1.302
  181TCM    cl2 1226   3.533   0.359   1.352
  181TCM     h1 1227   3.411   0.332   1.148
  181TCM    cl3 1228   3.275   0.476   1.283
  182TCM     c1 1229   1.473   0.051   4.040
  182TCM    cl1 1230   1.387   0.058   4.197
  182TCM    cl2 1231   1.364  -0.014   3.913
  182TCM     h1 1232   1.506   0.151   4.012
  182TCM    cl3 1233   1.616  -0.057   4.056
  183TCM     c1 1234   2.090   0.961   4.177
  183TCM    cl1 1235   2.228   1.028   4.085
  183TCM    cl2 1236   2.112   0.996   4.352
  183TCM     h1 1237   1.997   1.007   4.142
  183TCM    cl3 1238   2.083   0.784   4.153
  184TCM     c1 1239   3.190   0.593   0.162
  184TCM    cl1 1240   3.334   0.552   0.064
  184TCM    cl2 1241   3.049   0.615   0.053
  184TCM     h1 1242   3.169   0.512   0.233
  184TCM    cl3 1243   3.220   0.745   0.253
  185TCM     c1 1244   1.401   2.178   2.545
  185TCM    cl1 1245   1.310   2.089   2.672
  185TCM    cl2 1246   1.544   2.082   2.496
  185TCM     h1 1247   1.336   2.195   2.458
  185TCM    cl3 1248   1.455   2.336   2.611
  186TCM     c1 1249   4.776   3.961   4.745
  186TCM    cl1 1250   4.878   4.079   4.834
  186TCM    cl2 1251   4.851   3.799   4.756
  186TCM     h1 1252   4.676   3.959   4.789
  186TCM    cl3 1253   4.765   4.010   4.573
  187TCM     c1 1254   0.548   0.963   2.748
  187TCM    cl1 1255   0.535   1.043   2.909
  187TCM    cl2 1256   0.683   0.844   2.752
  187TCM     h1 1257   0.454   0.911   2.726
  187TCM    cl3 1258   0.580   1.086   2.622
  188TCM     c1 1259   4.798   0.620   3.580
  188TCM    cl1 1260   4.768   0.481   3.470
  188TCM    cl2 1261   4.647   0.715   3.596
  188TCM     h1 1262   4.829   0.584   3.678
  188TCM    cl3 1263   4.927   0.725   3.511
  189TCM     c1 1264   0.030   4.653   0.445
  189TCM    cl1 1265  -0.076   4.789   0.394
  189TCM    cl2 1266   0.043   4.532   0.314
  189TCM     h1 1267   0.129   4.692   0.469
  189TCM    cl3 1268  -0.039   4.575   0.591
  190TCM     c1 1269   0.734   3.241   0.194
  190TCM    cl1 1270   0.787   3.073   0.227
  190TCM    cl2 1271   0.871   3.333   0.123
  190TCM     h1 1272   0.650   3.240   0.125
  190TCM    cl3 1273   0.683   3.317   0.348
  191TCM     c1 1274   1.161   2.624   4.526
  191TCM    cl1 1275   1.210   2.618   4.698
  191TCM    cl2 1276   1.305   2.595   4.422
  191TCM     h1 1277   1.086   2.547   4.506
  191TCM    cl3 1278   1.094   2.786   4.489
  192TCM     c1 1279   1.565   4.324   4.867
  192TCM    cl1 1280   1.450   4.452   4.921
  192TCM    cl2 1281   1.473   4.196   4.781
  192TCM     h1 1282   1.639   4.368   4.800
  192TCM    cl3 1283   1.646   4.253   5.010
  193TCM     c1 1284   0.673   3.105   0.677
  193TCM    cl1 1285   0.674   3.003   0.824
  193TCM    cl2 1286   0.544   3.051   0.565
  193TCM     h1 1287   0.656   3.209   0.705
  193TCM    cl3 1288   0.832   3.091   0.595
  194TCM     c1 1289   4.287   1.433   2.450
  194TCM    cl1 1290   4.401   1.404   2.586
  194TCM    cl2 1291   4.123   1.378   2.496
  194TCM     h1 1292   4.285   1.540   2.426
  194TCM    cl3 1293   4.342   1.339   2.308
  195TCM     c1 1294   2.011   0.475   4.409
  195TCM    cl1 1295   1.906   0.614   4.452
  195TCM    cl2 1296   2.008   0.355   4.543
  195TCM     h1 1297   1.974   0.428   4.317
  195TCM    cl3 1298   2.179   0.532   4.385
  196TCM     c1 1299   0.329   0.057   2.647
  196TCM    cl1 1300   0.278  -0.012   2.489
  196TCM    cl2 1301   0.360   0.233   2.630
  196TCM     h1 1302   0.250   0.041   2.721
  196TCM    cl3 1303   0.479  -0.024   2.701
  197TCM     c1 1304   1.583   4.492   4.441
  197TCM    cl1 1305   1.688   4.369   4.519
  197TCM    cl2 1306   1.681   4.637   4.403
  197TCM     h1 1307   1.541   4.451   4.348
  197TCM    cl3 1308   1.449   4.536   4.552
  198TCM     c1 1309   4.129   4.552   1.356
  198TCM    cl1 1310   4.161   4.579   1.182
  198TCM    cl2 1311   4.187   4.693   1.450
  198TCM     h1 1312   4.022   4.538   1.372
  198TCM    cl3 1313   4.217   4.405   1.410
  199TCM     c1 1314   0.802   2.357   0.358
  199TCM    cl1 1315   0.729   2.254   0.486
  199TCM    cl2 1316   0.899   2.254   0.247
  199TCM     h1 1317   0.724   2.408   0.302
  199TCM    cl3 1318   0.911   2.477   0.434
  200TCM     c1 1319   1.310   1.135   4.074
  200TCM    cl1 1320   1.355   1.247   4.206
  200TCM    cl2 1321   1.232   1.228   3.942
  200TCM     h1 1322   1.400   1.086   4.036
  200TCM    cl3 1323   1.196   1.011   4.135
  201TCM     c1 1324   0.151   0.872   0.436
  201TCM    cl1 1325   0.264   0.917   0.304
  201TCM    cl2 1326   0.216   0.932   0.592
  201TCM     h1 1327   0.053   0.916   0.417
  201TCM    cl3 1328   0.137   0.693   0.443
  202TCM     c1 1329   1.048   4.376   1.260
  202TCM    cl1 1330   1.092   4.468   1.112
  202TCM    cl2 1331   1.112   4.460   1.405
  202TCM     h1 1332   0.939   4.369   1.267
  202TCM    cl3 1333   1.118   4.211   1.250
  203TCM     c1 1334   4.951   2.687   2.540
  203TCM    cl1 1335   4.788   2.638   2.484
  203TCM    cl2 1336   5.017   2.811   2.429
  203TCM     h1 1337   4.944   2.728   2.641
  203TCM    cl3 1338   5.058   2.543   2.540
  204TCM     c1 1339   0.605   2.766   0.203
  204TCM    cl1 1340   0.775   2.712   0.191
  204TCM    cl2 1341   0.503   2.623   0.243
  204TCM     h1 1342   0.594   2.842   0.281
  204TCM    cl3 1343   0.553   2.833   0.045
  205TCM     c1 1344   3.606   4.682   3.384
  205TCM    cl1 1345   3.583   4.594   3.229
  205TCM    cl2 1346   3.512   4.834   3.382
  205TCM     h1 1347   3.572   4.619   3.467
  205TCM    cl3 1348   3.779   4.721   3.406
  206TCM     c1 1349   1.995   0.730   2.330
  206TCM    cl1 1350   1.817   0.738   2.315
  206TCM    cl2 1351   2.041   0.577   2.412
  206TCM     h1 1352   2.040   0.733   2.231
  206TCM    cl3 1353   2.053   0.869   2.428
  207TCM     c1 1354   0.507   4.460   4.517
  207TCM    cl1 1355   0.671   4.520   4.557
  207TCM    cl2 1356   0.410   4.593   4.445
  207TCM     h1 1357   0.515   4.378   4.445
  207TCM    cl3 1358   0.427   4.400   4.666
  208TCM     c1 1359   1.918   4.764   3.956
  208TCM    cl1 1360   2.072   4.720   4.036
  208TCM    cl2 1361   1.799   4.630   3.974
  208TCM     h1 1362   1.878   4.854   4.003
  208TCM    cl3 1363   1.946   4.794   3.781
  209TCM     c1 1364   0.910   0.044   1.138
  209TCM    cl1 1365   1.053   0.152   1.149
  209TCM    cl2 1366   0.822   0.079   0.986
  209TCM     h1 1367   0.943  -0.060   1.138
  209TCM    cl3 1368   0.803   0.073   1.279
  210TCM     c1 1369   2.808   2.166   2.590
  210TCM    cl1 1370   2.891   2.324   2.605
  210TCM    cl2 1371   2.737   2.151   2.426
  210TCM     h1 1372   2.879   2.085   2.606
  210TCM    cl3 1373   2.677   2.157   2.712
  211TCM     c1 1374   0.914   3.544   0.870
  211TCM    cl1 1375   0.855   3.381   0.826
  211TCM    cl2 1376   0.989   3.539   1.033
  211TCM     h1 1377   0.988   3.578   0.797
  211TCM    cl3 1378   0.775   3.658   0.872
  212TCM     c1 1379   3.805   2.155   1.998
  212TCM    cl1 1380   3.892   2.220   2.141
  212TCM    cl2 1381   3.894   2.199   1.849
  212TCM     h1 1382   3.798   2.046   2.006
  212TCM    cl3 1383   3.640   2.225   1.992
  213TCM     c1 1384   0.373   3.782   3.469
  213TCM    cl1 1385   0.532   3.862   3.496
  213TCM    cl2 1386   0.328   3.796   3.296
  213TCM     h1 1387   0.380   3.677   3.497
  213TCM    cl3 1388   0.249   3.864   3.570
  214TCM     c1 1389   2.730   3.596   4.085
  214TCM    cl1 1390   2.644   3.457   4.012
  214TCM    cl2 1391   2.655   3.635   4.244
  214TCM     h1 1392   2.835   3.571   4.100
  214TCM    cl3 1393   2.717   3.739   3.976
  215TCM     c1 1394   0.946   2.782   4.054
  215TCM    cl1 1395   1.043   2.858   3.923
  215TCM    cl2 1396   1.036   2.641   4.120
  215TCM     h1 1397   0.929   2.855   4.134
  215TCM    cl3 1398   0.789   2.728   3.988
  216TCM     c1 1399   1.470   2.753   3.317
  216TCM    cl1 1400   1.465   2.813   3.486
  216TCM    cl2 1401   1.394   2.590   3.309
  216TCM     h1 1402   1.414   2.821   3.252
  216TCM    cl3 1403   1.640   2.742   3.261
  217TCM     c1 1404   3.694   4.649   3.900
  217TCM    cl1 1405   3.689   4.510   4.014
  217TCM    cl2 1406   3.627   4.599   3.741
  217TCM     h1 1407   3.635   4.732   3.940
  217TCM    cl3 1408   3.865   4.702   3.879
  218TCM     c1 1409   0.164   3.368   0.574
  218TCM    cl1 1410   0.217   3.215   0.499
  218TCM    cl2 1411   0.004   3.345   0.651
  218TCM     h1 1412   0.237   3.399   0.650
  218TCM    cl3 1413   0.151   3.495   0.448
  219TCM     c1 1414   1.225   2.198   0.085
  219TCM    cl1 1415   1.330   2.212   0.230
  219TCM    cl2 1416   1.196   2.024   0.050
  219TCM     h1 1417   1.130   2.248   0.104
  219TCM    cl3 1418   1.307   2.275  -0.055
  220TCM     c1 1419   0.338   1.780   2.853
  220TCM    cl1 1420   0.307   1.708   2.691
  220TCM    cl2 1421   0.335   1.651   2.977
  220TCM     h1 1422   0.436   1.828   2.853
  220TCM    cl3 1423   0.212   1.903   2.889
  221TCM     c1 1424   3.518   0.222   4.838
  221TCM    cl1 1425   3.577   0.114   4.707
  221TCM    cl2 1426   3.430   0.360   4.766
  221TCM     h1 1427   3.451   0.166   4.904
  221TCM    cl3 1428   3.658   0.283   4.933
  222TCM     c1 1429   1.647   2.475   2.186
  222TCM    cl1 1430   1.776   2.415   2.076
  222TCM    cl2 1431   1.531   2.342   2.219
  222TCM     h1 1432   1.693   2.508   2.280
  222TCM    cl3 1433   1.561   2.612   2.110
  223TCM     c1 1434   3.963   0.414   3.984
  223TCM    cl1 1435   3.979   0.552   4.097
  223TCM    cl2 1436   4.105   0.411   3.874
  223TCM     h1 1437   3.959   0.321   4.041
  223TCM    cl3 1438   3.813   0.432   3.888
  224TCM     c1 1439   0.174   3.689   1.438
  224TCM    cl1 1440   0.191   3.687   1.259
  224TCM    cl2 1441   0.038   3.581   1.485
  224TCM     h1 1442   0.266   3.655   1.484
  224TCM    cl3 1443   0.139   3.857   1.492
  225TCM     c1 1444   0.312   1.279   0.730
  225TCM    cl1 1445   0.295   1.357   0.570
  225TCM    cl2 1446   0.188   1.347   0.841
  225TCM     h1 1447   0.297   1.171   0.721
  225TCM    cl3 1448   0.476   1.313   0.795
  226TCM     c1 1449   3.712   2.354   2.795
  226TCM    cl1 1450   3.573   2.449   2.856
  226TCM    cl2 1451   3.839   2.467   2.735
  226TCM     h1 1452   3.753   2.293   2.875
  226TCM    cl3 1453   3.657   2.249   2.660
  227TCM     c1 1454   0.177   4.570   2.854
  227TCM    cl1 1455   0.235   4.739   2.835
  227TCM    cl2 1456   0.025   4.570   2.949
  227TCM     h1 1457   0.158   4.526   2.755
  227TCM    cl3 1458   0.301   4.473   2.939
  228TCM     c1 1459   0.040   4.403   2.125
  228TCM    cl1 1460   0.066   4.251   2.034
  228TCM    cl2 1461   0.148   4.405   2.269
  228TCM     h1 1462   0.062   4.489   2.061
  228TCM    cl3 1463  -0.130   4.410   2.181
  229TCM     c1 1464   0.399   2.286   2.173
  229TCM    cl1 1465   0.334   2.373   2.316
  229TCM    cl2 1466   0.571   2.331   2.149
  229TCM     h1 1467   0.390   2.179   2.189
  229TCM    cl3 1468   0.305   2.333   2.028
  230TCM     c1 1469   0.498   3.856   2.802
  230TCM    cl1 1470   0.499   3.749   2.658
  230TCM    cl2 1471   0.616   3.989   2.777
  230TCM     h1 1472   0.398   3.897   2.817
  230TCM    cl3 1473   0.545   3.761   2.947
  231TCM     c1 1474   2.201   0.432   4.040
  231TCM    cl1 1475   2.022   0.447   4.049
  231TCM    cl2 1476   2.249   0.410   3.869
  231TCM     h1 1477   2.247   0.523   4.080
  231TCM    cl3 1478   2.253   0.289   4.136
  232TCM     c1 1479   1.905   1.963   2.244
  232TCM    cl1 1480   1.859   1.816   2.337
  232TCM    cl2 1481   1.757   2.049   2.193
  232TCM     h1 1482   1.966   2.028   2.307
  232TCM    cl3 1483   1.999   1.914   2.099
  233TCM     c1 1484   0.969   3.172   2.266
  233TCM    cl1 1485   1.047   3.246   2.123
  233TCM    cl2 1486   0.874   3.297   2.354
  233TCM     h1 1487   0.902   3.092   2.234
  233TCM    cl3 1488   1.095   3.105   2.375
  234TCM     c1 1489   4.519   3.639   3.080
  234TCM    cl1 1490   4.677   3.694   3.142
  234TCM    cl2 1491   4.530   3.616   2.902
  234TCM     h1 1492   4.491   3.544   3.128
  234TCM    cl3 1493   4.395   3.763   3.116
  235TCM     c1 1494   4.052   0.885   4.574
  235TCM    cl1 1495   4.086   0.945   4.408
  235TCM    cl2 1496   4.190   0.784   4.629
  235TCM     h1 1497   4.040   0.969   4.642
  235TCM    cl3 1498   3.902   0.786   4.572
  236TCM     c1 1499   4.979   3.108   4.339
  236TCM    cl1 1500   4.929   3.106   4.511
  236TCM    cl2 1501   5.138   3.190   4.324
  236TCM     h1 1502   4.988   3.005   4.302
  236TCM    cl3 1503   4.857   3.196   4.242
  237TCM     c1 1504   0.905   1.651   0.284
  237TCM    cl1 1505   1.036   1.647   0.160
  237TCM    cl2 1506   0.963   1.568   0.432
  237TCM     h1 1507   0.879   1.754   0.307
  237TCM    cl3 1508   0.760   1.566   0.220
  238TCM     c1 1509   1.695   2.068   1.839
  238TCM    cl1 1510   1.860   2.138   1.830
  238TCM    cl2 1511   1.669   1.956   1.702
  238TCM     h1 1512   1.684   2.013   1.933
  238TCM    cl3 1513   1.575   2.201   1.833
  239TCM     c1 1514   2.262   4.471   3.776
  239TCM    cl1 1515   2.088   4.449   3.813
  239TCM    cl2 1516   2.294   4.643   3.736
  239TCM     h1 1517   2.322   4.441   3.862
  239TCM    cl3 1518   2.304   4.367   3.635
  240TCM     c1 1519   3.046   0.501   1.556
  240TCM    cl1 1520   2.992   0.488   1.727
  240TCM    cl2 1521   3.026   0.671   1.501
  240TCM     h1 1522   3.151   0.472   1.548
  240TCM    cl3 1523   2.947   0.392   1.454
  241TCM     c1 1524   2.430   4.807   4.849
  241TCM    cl1 1525   2.550   4.933   4.895
  241TCM    cl2 1526   2.391   4.823   4.674
  241TCM     h1 1527   2.472   4.708   4.868
  241TCM    cl3 1528   2.280   4.828   4.944
  242TCM     c1 1529   2.730   1.739   3.438
  242TCM    cl1 1530   2.563   1.797   3.413
  242TCM    cl2 1531   2.819   1.747   3.283
  242TCM     h1 1532   2.780   1.802   3.513
  242TCM    cl3 1533   2.727   1.569   3.495
  243TCM     c1 1534   0.853   1.461   4.710
  243TCM    cl1 1535   0.863   1.443   4.888
  243TCM    cl2 1536   0.703   1.550   4.667
  243TCM     h1 1537   0.940   1.517   4.674
  243TCM    cl3 1538   0.850   1.299   4.634
  244TCM     c1 1539   2.920   1.008   3.032
  244TCM    cl1 1540   2.809   1.000   3.172
  244TCM    cl2 1541   3.083   1.057   3.089
  244TCM     h1 1542   2.926   0.910   2.983
  244TCM    cl3 1543   2.859   1.130   2.915
  245TCM     c1 1544   3.385   0.786   1.552
  245TCM    cl1 1545   3.366   0.631   1.640
  245TCM    cl2 1546   3.486   0.761   1.406
  245TCM     h1 1547   3.286   0.824   1.523
  245TCM    cl3 1548   3.466   0.904   1.661
  246TCM     c1 1549   0.385   0.307   0.331
  246TCM    cl1 1550   0.464   0.146   0.334
  246TCM    cl2 1551   0.499   0.426   0.258
  246TCM     h1 1552   0.294   0.303   0.271
  246TCM    cl3 1553   0.344   0.357   0.498
  247TCM     c1 1554   0.500   3.727   3.842
  247TCM    cl1 1555   0.624   3.716   3.970
  247TCM    cl2 1556   0.338   3.747   3.916
  247TCM     h1 1557   0.521   3.813   3.778
  247TCM    cl3 1558   0.502   3.577   3.743
  248TCM     c1 1559   0.144   3.996   4.595
  248TCM    cl1 1560   0.110   4.171   4.572
  248TCM    cl2 1561   0.320   3.972   4.619
  248TCM     h1 1562   0.090   3.959   4.682
  248TCM    cl3 1563   0.092   3.905   4.449
  249TCM     c1 1564   3.495   1.685   0.873
  249TCM    cl1 1565   3.543   1.521   0.817
  249TCM    cl2 1566   3.522   1.697   1.050
  249TCM     h1 1567   3.555   1.760   0.821
  249TCM    cl3 1568   3.322   1.711   0.836
  250TCM     c1 1569   3.370   4.312   3.635
  250TCM    cl1 1570   3.412   4.358   3.466
  250TCM    cl2 1571   3.517   4.250   3.716
  250TCM     h1 1572   3.332   4.399   3.688
  250TCM    cl3 1573   3.245   4.183   3.634
  251TCM     c1 1574   1.654   4.737   3.086
  251TCM    cl1 1575   1.760   4.594   3.105
  251TCM    cl2 1576   1.559   4.721   2.935
  251TCM     h1 1577   1.587   4.745   3.171
  251TCM    cl3 1578   1.756   4.885   3.076
  252TCM     c1 1579   2.353   0.455   2.585
  252TCM    cl1 1580   2.387   0.392   2.420
  252TCM    cl2 1581   2.362   0.634   2.583
  252TCM     h1 1582   2.253   0.424   2.617
  252TCM    cl3 1583   2.476   0.391   2.699
  253TCM     c1 1584   3.181   1.866   4.011
  253TCM    cl1 1585   3.214   1.941   4.171
  253TCM    cl2 1586   3.008   1.889   3.969
  253TCM     h1 1587   3.244   1.912   3.935
  253TCM    cl3 1588   3.216   1.690   4.021
  254TCM     c1 1589   2.824   2.608   0.313
  254TCM    cl1 1590   2.693   2.562   0.427
  254TCM    cl2 1591   2.871   2.778   0.342
  254TCM     h1 1592   2.910   2.543   0.327
  254TCM    cl3 1593   2.763   2.591   0.145
  255TCM     c1 1594   1.277   0.105   4.795
  255TCM    cl1 1595   1.169   0.229   4.722
  255TCM    cl2 1596   1.376   0.182   4.923
  255TCM     h1 1597   1.217   0.025   4.837
  255TCM    cl3 1598   1.385   0.039   4.668
  256TCM     c1 1599   0.748   1.532   1.635
  256TCM    cl1 1600   0.748   1.495   1.459
  256TCM    cl2 1601   0.902   1.613   1.678
  256TCM     h1 1602   0.665   1.599   1.658
  256TCM    cl3 1603   0.731   1.380   1.728
  257TCM     c1 1604   4.887   3.104   0.289
  257TCM    cl1 1605   4.875   3.053   0.460
  257TCM    cl2 1606   5.029   3.026   0.213
  257TCM     h1 1607   4.796   3.075   0.235
  257TCM    cl3 1608   4.907   3.282   0.280
  258TCM     c1 1609   0.514   1.557   3.845
  258TCM    cl1 1610   0.536   1.449   3.703
  258TCM    cl2 1611   0.399   1.483   3.961
  258TCM     h1 1612   0.610   1.572   3.894
  258TCM    cl3 1613   0.451   1.716   3.789
  259TCM     c1 1614   0.776   0.784   0.230
  259TCM    cl1 1615   0.793   0.611   0.274
  259TCM    cl2 1616   0.803   0.886   0.374
  259TCM     h1 1617   0.851   0.808   0.154
  259TCM    cl3 1618   0.612   0.813   0.164
  260TCM     c1 1619   3.449   4.792   4.874
  260TCM    cl1 1620   3.295   4.865   4.820
  260TCM    cl2 1621   3.418   4.631   4.947
  260TCM     h1 1622   3.517   4.781   4.789
  260TCM    cl3 1623   3.523   4.897   4.999
  261TCM     c1 1624   2.926   3.850   3.469
  261TCM    cl1 1625   2.801   3.757   3.558
  261TCM    cl2 1626   3.088   3.777   3.498
  261TCM     h1 1627   2.904   3.848   3.362
  261TCM    cl3 1628   2.927   4.020   3.527
  262TCM     c1 1629   2.740   4.110   3.076
  262TCM    cl1 1630   2.874   4.009   3.139
  262TCM    cl2 1631   2.643   4.014   2.959
  262TCM     h1 1632   2.676   4.142   3.158
  262TCM    cl3 1633   2.808   4.254   2.994
  263TCM     c1 1634   3.364   1.114   2.643
  263TCM    cl1 1635   3.441   1.260   2.573
  263TCM    cl2 1636   3.270   1.160   2.789
  263TCM     h1 1637   3.298   1.068   2.569
  263TCM    cl3 1638   3.493   0.997   2.689
  264TCM     c1 1639   4.232   1.954   0.053
  264TCM    cl1 1640   4.271   2.127   0.077
  264TCM    cl2 1641   4.345   1.853   0.149
  264TCM     h1 1642   4.129   1.935   0.086
  264TCM    cl3 1643   4.248   1.912  -0.121
  265TCM     c1 1644   3.078   2.047   0.726
  265TCM    cl1 1645   3.218   2.133   0.655
  265TCM    cl2 1646   3.106   2.022   0.902
  265TCM     h1 1647   2.988   2.106   0.712
  265TCM    cl3 1648   3.058   1.889   0.645
  266TCM     c1 1649   4.519   4.648   1.595
  266TCM    cl1 1650   4.544   4.581   1.430
  266TCM    cl2 1651   4.674   4.710   1.660
  266TCM     h1 1652   4.446   4.729   1.591
  266TCM    cl3 1653   4.456   4.518   1.703
  267TCM     c1 1654   4.607   0.727   3.209
  267TCM    cl1 1655   4.600   0.736   3.030
  267TCM    cl2 1656   4.443   0.697   3.274
  267TCM     h1 1657   4.674   0.646   3.239
  267TCM    cl3 1658   4.670   0.883   3.273
  268TCM     c1 1659   3.358   1.799   0.479
  268TCM    cl1 1660   3.265   1.650   0.445
  268TCM    cl2 1661   3.348   1.909   0.337
  268TCM     h1 1662   3.316   1.849   0.566
  268TCM    cl3 1663   3.529   1.757   0.511
  269TCM     c1 1664   1.708   0.116   2.794
  269TCM    cl1 1665   1.850   0.225   2.813
  269TCM    cl2 1666   1.761  -0.033   2.709
  269TCM     h1 1667   1.669   0.090   2.893
  269TCM    cl3 1668   1.581   0.198   2.699
  270TCM     c1 1669   1.145   4.589   4.775
  270TCM    cl1 1670   1.064   4.522   4.920
  270TCM    cl2 1671   1.235   4.738   4.821
  270TCM     h1 1672   1.214   4.516   4.734
  270TCM    cl3 1673   1.020   4.631   4.653
  271TCM     c1 1674   4.972   0.244   4.525
  271TCM    cl1 1675   4.884   0.093   4.487
  271TCM    cl2 1676   5.048   0.229   4.688
  271TCM     h1 1677   5.050   0.262   4.450
  271TCM    cl3 1678   4.857   0.382   4.525
  272TCM     c1 1679   4.174   4.569   0.217
  272TCM    cl1 1680   4.256   4.690   0.113
  272TCM    cl2 1681   4.289   4.436   0.254
  272TCM     h1 1682   4.141   4.616   0.310
  272TCM    cl3 1683   4.031   4.502   0.131
  273TCM     c1 1684   0.463   2.552   3.757
  273TCM    cl1 1685   0.512   2.643   3.611
  273TCM    cl2 1686   0.415   2.668   3.886
  273TCM     h1 1687   0.378   2.488   3.733
  273TCM    cl3 1688   0.599   2.451   3.815
  274TCM     c1 1689   3.732   1.174   1.676
  274TCM    cl1 1690   3.766   1.346   1.712
  274TCM    cl2 1691   3.876   1.076   1.719
  274TCM     h1 1692   3.646   1.140   1.734
  274TCM    cl3 1693   3.697   1.155   1.501
  275TCM     c1 1694   1.095   4.856   0.234
  275TCM    cl1 1695   1.183   4.701   0.210
  275TCM    cl2 1696   1.137   4.968   0.100
  275TCM     h1 1697   0.988   4.838   0.234
  275TCM    cl3 1698   1.145   4.930   0.390
  276TCM     c1 1699   3.142   0.924   3.822
  276TCM    cl1 1700   3.153   1.098   3.778
  276TCM    cl2 1701   3.143   0.906   4.000
  276TCM     h1 1702   3.050   0.882   3.782
  276TCM    cl3 1703   3.283   0.837   3.752
  277TCM     c1 1704   4.363   3.386   3.538
  277TCM    cl1 1705   4.392   3.451   3.373
  277TCM    cl2 1706   4.520   3.362   3.620
  277TCM     h1 1707   4.302   3.456   3.595
  277TCM    cl3 1708   4.277   3.228   3.525
  278TCM     c1 1709   1.187   0.713   0.432
  278TCM    cl1 1710   1.347   0.635   0.406
  278TCM    cl2 1711   1.070   0.590   0.491
  278TCM     h1 1712   1.197   0.792   0.507
  278TCM    cl3 1713   1.129   0.783   0.278
  279TCM     c1 1714   0.917   2.221   0.893
  279TCM    cl1 1715   0.919   2.377   0.806
  279TCM    cl2 1716   1.084   2.179   0.946
  279TCM     h1 1717   0.852   2.229   0.981
  279TCM    cl3 1718   0.856   2.092   0.784
  280TCM     c1 1719   3.629   2.522   2.355
  280TCM    cl1 1720   3.567   2.588   2.509
  280TCM    cl2 1721   3.553   2.363   2.323
  280TCM     h1 1722   3.605   2.591   2.273
  280TCM    cl3 1723   3.807   2.503   2.366
  281TCM     c1 1724   2.922   3.776   2.664
  281TCM    cl1 1725   2.752   3.819   2.624
  281TCM    cl2 1726   2.960   3.833   2.830
  281TCM     h1 1727   2.934   3.668   2.659
  281TCM    cl3 1728   3.033   3.854   2.547
  282TCM     c1 1729   1.043   1.172   0.057
  282TCM    cl1 1730   1.000   1.268   0.202
  282TCM    cl2 1731   0.922   1.041   0.035
  282TCM     h1 1732   1.044   1.236  -0.032
  282TCM    cl3 1733   1.205   1.099   0.081
  283TCM     c1 1734   2.925   0.126   0.869
  283TCM    cl1 1735   2.978   0.035   1.014
  283TCM    cl2 1736   2.769   0.207   0.904
  283TCM     h1 1737   3.000   0.201   0.843
  283TCM    cl3 1738   2.904   0.012   0.732
  284TCM     c1 1739   1.920   3.435   0.795
  284TCM    cl1 1740   1.903   3.416   0.973
  284TCM    cl2 1741   1.820   3.312   0.711
  284TCM     h1 1742   1.887   3.535   0.766
  284TCM    cl3 1743   2.092   3.413   0.747
  285TCM     c1 1744   2.760   3.689   1.764
  285TCM    cl1 1745   2.599   3.755   1.810
  285TCM    cl2 1746   2.833   3.606   1.905
  285TCM     h1 1747   2.748   3.617   1.682
  285TCM    cl3 1748   2.866   3.824   1.711
  286TCM     c1 1749   4.475   0.355   3.936
  286TCM    cl1 1750   4.557   0.419   3.790
  286TCM    cl2 1751   4.531   0.446   4.080
  286TCM     h1 1752   4.367   0.366   3.926
  286TCM    cl3 1753   4.516   0.182   3.958
  287TCM     c1 1754   4.400   2.829   4.644
  287TCM    cl1 1755   4.409   2.785   4.818
  287TCM    cl2 1756   4.565   2.848   4.578
  287TCM     h1 1757   4.347   2.750   4.589
  287TCM    cl3 1758   4.310   2.984   4.625
  288TCM     c1 1759   0.780   4.778   2.088
  288TCM    cl1 1760   0.912   4.898   2.066
  288TCM    cl2 1761   0.851   4.615   2.108
  288TCM     h1 1762   0.721   4.804   2.176
  288TCM    cl3 1763   0.675   4.780   1.943
  289TCM     c1 1764   4.968   0.226   0.228
  289TCM    cl1 1765   4.966   0.283   0.058
  289TCM    cl2 1766   5.000   0.364   0.338
  289TCM     h1 1767   4.872   0.181   0.254
  289TCM    cl3 1768   5.098   0.103   0.248
  290TCM     c1 1769   4.450   0.206   3.526
  290TCM    cl1 1770   4.312   0.189   3.641
  290TCM    cl2 1771   4.422   0.348   3.421
  290TCM     h1 1772   4.543   0.219   3.582
  290TCM    cl3 1773   4.460   0.058   3.425
  291TCM     c1 1774   3.403   4.849   4.331
  291TCM    cl1 1775   3.492   4.769   4.197
  291TCM    cl2 1776   3.429   5.027   4.321
  291TCM     h1 1777   3.297   4.826   4.322
  291TCM    cl3 1778   3.465   4.790   4.488
  292TCM     c1 1779   1.182   1.878   1.657
  292TCM    cl1 1780   1.086   1.872   1.505
  292TCM    cl2 1781   1.304   2.008   1.643
  292TCM     h1 1782   1.115   1.899   1.741
  292TCM    cl3 1783   1.265   1.721   1.683
  293TCM     c1 1784   3.287   1.565   2.724
  293TCM    cl1 1785   3.389   1.622   2.589
  293TCM    cl2 1786   3.134   1.660   2.726
  293TCM     h1 1787   3.265   1.459   2.712
  293TCM    cl3 1788   3.375   1.591   2.878
  294TCM     c1 1789   3.528   0.309   0.360
  294TCM    cl1 1790   3.362   0.372   0.380
  294TCM    cl2 1791   3.630   0.434   0.281
  294TCM     h1 1792   3.570   0.285   0.458
  294TCM    cl3 1793   3.523   0.162   0.258
  295TCM     c1 1794   0.495   1.272   2.114
  295TCM    cl1 1795   0.383   1.395   2.045
  295TCM    cl2 1796   0.469   1.261   2.292
  295TCM     h1 1797   0.475   1.175   2.068
  295TCM    cl3 1798   0.664   1.321   2.083
  296TCM     c1 1799   2.741   3.676   1.221
  296TCM    cl1 1800   2.779   3.645   1.394
  296TCM    cl2 1801   2.587   3.594   1.179
  296TCM     h1 1802   2.732   3.783   1.204
  296TCM    cl3 1803   2.874   3.610   1.120
  297TCM     c1 1804   2.136   2.688   4.430
  297TCM    cl1 1805   2.059   2.825   4.342
  297TCM    cl2 1806   2.023   2.549   4.433
  297TCM     h1 1807   2.228   2.659   4.379
  297TCM    cl3 1808   2.174   2.739   4.597
  298TCM     c1 1809   0.502   2.103   0.866
  298TCM    cl1 1810   0.439   2.056   0.705
  298TCM    cl2 1811   0.373   2.082   0.989
  298TCM     h1 1812   0.587   2.039   0.892
  298TCM    cl3 1813   0.554   2.274   0.861
  299TCM     c1 1814   2.578   0.242   1.904
  299TCM    cl1 1815   2.449   0.189   1.791
  299TCM    cl2 1816   2.504   0.282   2.063
  299TCM     h1 1817   2.651   0.162   1.917
  299TCM    cl3 1818   2.659   0.388   1.838
  300TCM     c1 1819   2.453   3.465   4.945
  300TCM    cl1 1820   2.616   3.509   4.884
  300TCM    cl2 1821   2.357   3.390   4.813
  300TCM     h1 1822   2.463   3.394   5.027
  300TCM    cl3 1823   2.369   3.612   5.003
  301TCM     c1 1824   4.857   3.464   4.897
  301TCM    cl1 1825   4.975   3.538   5.011
  301TCM    cl2 1826   4.713   3.406   4.988
  301TCM     h1 1827   4.826   3.539   4.824
  301TCM    cl3 1828   4.933   3.326   4.813
  302TCM     c1 1829   3.909   1.699   1.718
  302TCM    cl1 1830   4.026   1.612   1.823
  302TCM    cl2 1831   3.995   1.758   1.572
  302TCM     h1 1832   3.828   1.633   1.690
  302TCM    cl3 1833   3.844   1.840   1.808
  303TCM     c1 1834   2.104   2.887   2.804
  303TCM    cl1 1835   2.198   2.773   2.701
  303TCM    cl2 1836   2.013   3.000   2.698
  303TCM     h1 1837   2.034   2.831   2.867
  303TCM    cl3 1838   2.217   2.980   2.908
  304TCM     c1 1839   4.661   2.710   0.660
  304TCM    cl1 1840   4.692   2.588   0.532
  304TCM    cl2 1841   4.564   2.845   0.593
  304TCM     h1 1842   4.607   2.664   0.743
  304TCM    cl3 1843   4.817   2.776   0.720
  305TCM     c1 1844   4.886   4.361   1.724
  305TCM    cl1 1845   4.971   4.509   1.779
  305TCM    cl2 1846   4.829   4.383   1.555
  305TCM     h1 1847   4.954   4.276   1.728
  305TCM    cl3 1848   4.745   4.329   1.831
  306TCM     c1 1849   3.059   1.504   3.653
  306TCM    cl1 1850   3.230   1.462   3.688
  306TCM    cl2 1851   3.042   1.682   3.639
  306TCM     h1 1852   3.028   1.457   3.559
  306TCM    cl3 1853   2.954   1.446   3.787
  307TCM     c1 1854   0.806   3.718   2.409
  307TCM    cl1 1855   0.968   3.696   2.484
  307TCM    cl2 1856   0.808   3.650   2.243
  307TCM     h1 1857   0.731   3.666   2.468
  307TCM    cl3 1858   0.767   3.893   2.402
  308TCM     c1 1859   2.913   3.992   2.174
  308TCM    cl1 1860   2.954   3.818   2.180
  308TCM    cl2 1861   2.800   4.032   2.308
  308TCM     h1 1862   3.004   4.052   2.184
  308TCM    cl3 1863   2.835   4.030   2.017
  309TCM     c1 1864   1.351   2.920   2.137
  309TCM    cl1 1865   1.182   2.887   2.086
  309TCM    cl2 1866   1.374   2.865   2.306
  309TCM     h1 1867   1.420   2.868   2.071
  309TCM    cl3 1868   1.382   3.097   2.129
  310TCM     c1 1869   4.526   0.004   4.748
  310TCM    cl1 1870   4.552  -0.056   4.580
  310TCM    cl2 1871   4.650   0.128   4.786
  310TCM     h1 1872   4.427   0.047   4.756
  310TCM    cl3 1873   4.541  -0.135   4.861
  311TCM     c1 1874   4.208   0.014   2.379
  311TCM    cl1 1875   4.307   0.139   2.296
  311TCM    cl2 1876   4.208   0.046   2.555
  311TCM     h1 1877   4.106   0.018   2.341
  311TCM    cl3 1878   4.279  -0.147   2.346
  312TCM     c1 1879   1.216   0.040   3.056
  312TCM    cl1 1880   1.389   0.034   3.005
  312TCM    cl2 1881   1.191  -0.065   3.199
  312TCM     h1 1882   1.189   0.143   3.080
  312TCM    cl3 1883   1.113  -0.019   2.922
  313TCM     c1 1884   3.232   4.811   3.723
  313TCM    cl1 1885   3.289   4.671   3.627
  313TCM    cl2 1886   3.211   4.952   3.614
  313TCM     h1 1887   3.137   4.787   3.771
  313TCM    cl3 1888   3.354   4.851   3.849
  314TCM     c1 1889   3.540   2.024   4.796
  314TCM    cl1 1890   3.422   2.062   4.926
  314TCM    cl2 1891   3.661   2.156   4.785
  314TCM     h1 1892   3.590   1.929   4.819
  314TCM    cl3 1893   3.455   2.011   4.639
  315TCM     c1 1894   4.657   4.123   2.582
  315TCM    cl1 1895   4.707   4.257   2.473
  315TCM    cl2 1896   4.683   4.174   2.752
  315TCM     h1 1897   4.552   4.099   2.566
  315TCM    cl3 1898   4.758   3.979   2.547
  316TCM     c1 1899   4.569   2.818   2.199
  316TCM    cl1 1900   4.745   2.845   2.181
  316TCM    cl2 1901   4.517   2.866   2.364
  316TCM     h1 1902   4.515   2.878   2.126
  316TCM    cl3 1903   4.532   2.644   2.174
  317TCM     c1 1904   1.177   2.037   0.502
  317TCM    cl1 1905   1.123   2.203   0.541
  317TCM    cl2 1906   1.060   1.960   0.391
  317TCM     h1 1907   1.276   2.041   0.455
  317TCM    cl3 1908   1.187   1.941   0.653
  318TCM     c1 1909   0.936   1.690   3.913
  318TCM    cl1 1910   0.849   1.669   3.757
  318TCM    cl2 1911   1.041   1.548   3.941
  318TCM     h1 1912   0.997   1.781   3.909
  318TCM    cl3 1913   0.816   1.704   4.046
  319TCM     c1 1914   4.025   3.543   1.280
  319TCM    cl1 1915   4.128   3.605   1.413
  319TCM    cl2 1916   4.024   3.363   1.286
  319TCM     h1 1917   3.923   3.580   1.291
  319TCM    cl3 1918   4.093   3.598   1.123
  320TCM     c1 1919   4.952   4.913   2.146
  320TCM    cl1 1920   5.068   4.776   2.158
  320TCM    cl2 1921   4.953   4.978   1.979
  320TCM     h1 1922   4.852   4.878   2.171
  320TCM    cl3 1923   4.999   5.043   2.262
  321TCM     c1 1924   1.149   2.452   1.851
  321TCM    cl1 1925   1.287   2.424   1.962
  321TCM    cl2 1926   1.170   2.353   1.703
  321TCM     h1 1927   1.056   2.424   1.901
  321TCM    cl3 1928   1.143   2.626   1.806
  322TCM     c1 1929   0.779   2.123   4.010
  322TCM    cl1 1930   0.927   2.058   3.933
  322TCM    cl2 1931   0.775   2.071   4.182
  322TCM     h1 1932   0.778   2.232   4.003
  322TCM    cl3 1933   0.635   2.056   3.925
  323TCM     c1 1934   0.750   0.789   4.827
  323TCM    cl1 1935   0.856   0.862   4.701
  323TCM    cl2 1936   0.837   0.651   4.903
  323TCM     h1 1937   0.726   0.864   4.902
  323TCM    cl3 1938   0.599   0.730   4.751
  324TCM     c1 1939   3.381   2.678   0.881
  324TCM    cl1 1940   3.365   2.677   1.060
  324TCM    cl2 1941   3.489   2.545   0.828
  324TCM     h1 1942   3.282   2.664   0.836
  324TCM    cl3 1943   3.448   2.836   0.827
  325TCM     c1 1944   3.391   4.730   2.933
  325TCM    cl1 1945   3.227   4.779   2.879
  325TCM    cl2 1946   3.470   4.869   3.014
  325TCM     h1 1947   3.383   4.646   3.002
  325TCM    cl3 1948   3.487   4.681   2.790
  326TCM     c1 1949   4.347   3.301   4.923
  326TCM    cl1 1950   4.231   3.353   5.049
  326TCM    cl2 1951   4.272   3.324   4.761
  326TCM     h1 1952   4.438   3.361   4.930
  326TCM    cl3 1953   4.388   3.128   4.947
  327TCM     c1 1954   4.366   2.586   2.624
  327TCM    cl1 1955   4.478   2.706   2.696
  327TCM    cl2 1956   4.450   2.494   2.495
  327TCM     h1 1957   4.331   2.517   2.702
  327TCM    cl3 1958   4.225   2.673   2.554
  328TCM     c1 1959   1.948   4.452   3.402
  328TCM    cl1 1960   2.031   4.590   3.480
  328TCM    cl2 1961   1.890   4.338   3.527
  328TCM     h1 1962   1.863   4.489   3.344
  328TCM    cl3 1963   2.063   4.369   3.292
  329TCM     c1 1964   3.459   2.137   1.047
  329TCM    cl1 1965   3.497   2.050   0.894
  329TCM    cl2 1966   3.389   2.021   1.164
  329TCM     h1 1967   3.550   2.181   1.088
  329TCM    cl3 1968   3.340   2.267   1.013
  330TCM     c1 1969   2.608   1.753   2.193
  330TCM    cl1 1970   2.663   1.593   2.134
  330TCM    cl2 1971   2.467   1.809   2.097
  330TCM     h1 1972   2.579   1.745   2.298
  330TCM    cl3 1973   2.742   1.871   2.178
  331TCM     c1 1974   2.751   2.558   3.353
  331TCM    cl1 1975   2.818   2.704   3.272
  331TCM    cl2 1976   2.882   2.441   3.386
  331TCM     h1 1977   2.703   2.588   3.447
  331TCM    cl3 1978   2.629   2.483   3.245
  332TCM     c1 1979   4.868   1.816   1.501
  332TCM    cl1 1980   4.894   1.993   1.507
  332TCM    cl2 1981   5.017   1.732   1.557
  332TCM     h1 1982   4.784   1.789   1.566
  332TCM    cl3 1983   4.833   1.768   1.332
  333TCM     c1 1984   1.315   1.131   3.453
  333TCM    cl1 1985   1.232   1.287   3.425
  333TCM    cl2 1986   1.243   1.005   3.348
  333TCM     h1 1987   1.422   1.141   3.430
  333TCM    cl3 1988   1.296   1.084   3.625
  334TCM     c1 1989   3.271   4.145   2.255
  334TCM    cl1 1990   3.221   4.202   2.092
  334TCM    cl2 1991   3.287   3.966   2.252
  334TCM     h1 1992   3.367   4.190   2.282
  334TCM    cl3 1993   3.147   4.191   2.376
  335TCM     c1 1994   1.909   3.690   0.423
  335TCM    cl1 1995   1.809   3.540   0.414
  335TCM    cl2 1996   2.072   3.656   0.357
  335TCM     h1 1997   1.861   3.769   0.365
  335TCM    cl3 1998   1.922   3.741   0.595
  336TCM     c1 1999   4.630   2.180   2.875
  336TCM    cl1 2000   4.611   2.247   3.041
  336TCM    cl2 2001   4.509   2.255   2.767
  336TCM     h1 2002   4.731   2.203   2.839
  336TCM    cl3 2003   4.606   2.003   2.879
  337TCM     c1 2004   2.437   3.952   1.321
  337TCM    cl1 2005   2.319   3.846   1.237
  337TCM    cl2 2006   2.570   3.994   1.208
  337TCM     h1 2007   2.387   4.044   1.354
  337TCM    cl3 2008   2.503   3.864   1.462
  338TCM     c1 2009   0.862   0.001   4.636
  338TCM    cl1 2010   0.790   0.166   4.643
  338TCM    cl2 2011   0.736  -0.118   4.592
  338TCM     h1 2012   0.942  -0.000   4.561
  338TCM    cl3 2013   0.929  -0.042   4.797
  339TCM     c1 2014   3.655   3.156   3.502
  339TCM    cl1 2015   3.685   3.010   3.602
  339TCM    cl2 2016   3.640   3.108   3.330
  339TCM     h1 2017   3.563   3.206   3.535
  339TCM    cl3 2018   3.794   3.268   3.519
  340TCM     c1 2019   3.547   3.753   1.133
  340TCM    cl1 2020   3.660   3.873   1.060
  340TCM    cl2 2021   3.472   3.825   1.279
  340TCM     h1 2022   3.470   3.727   1.061
  340TCM    cl3 2023   3.639   3.606   1.180
  341TCM     c1 2024   2.542   1.280   3.680
  341TCM    cl1 2025   2.421   1.412   3.678
  341TCM    cl2 2026   2.533   1.187   3.527
  341TCM     h1 2027   2.642   1.322   3.691
  341TCM    cl3 2028   2.508   1.169   3.818
  342TCM     c1 2029   1.991   3.732   4.573
  342TCM    cl1 2030   2.123   3.811   4.666
  342TCM    cl2 2031   1.941   3.839   4.438
  342TCM     h1 2032   2.026   3.637   4.534
  342TCM    cl3 2033   1.850   3.706   4.681
  343TCM     c1 2034   4.081   3.911   3.068
  343TCM    cl1 2035   4.090   4.015   3.213
  343TCM    cl2 2036   4.166   3.991   2.932
  343TCM     h1 2037   4.129   3.814   3.089
  343TCM    cl3 2038   3.910   3.884   3.024
  344TCM     c1 2039   3.142   1.468   0.012
  344TCM    cl1 2040   2.991   1.468   0.109
  344TCM    cl2 2041   3.276   1.533   0.112
  344TCM     h1 2042   3.166   1.366  -0.020
  344TCM    cl3 2043   3.119   1.573  -0.132
  345TCM     c1 2044   0.361   0.585   3.983
  345TCM    cl1 2045   0.235   0.497   3.892
  345TCM    cl2 2046   0.398   0.497   4.135
  345TCM     h1 2047   0.452   0.593   3.922
  345TCM    cl3 2048   0.302   0.750   4.023
  346TCM     c1 2049   3.270   0.889   1.963
  346TCM    cl1 2050   3.273   1.068   1.953
  346TCM    cl2 2051   3.133   0.827   1.865
  346TCM     h1 2052   3.364   0.848   1.924
  346TCM    cl3 2053   3.250   0.839   2.134
  347TCM     c1 2054   2.670   0.162   2.453
  347TCM    cl1 2055   2.551   0.053   2.375
  347TCM    cl2 2056   2.740   0.271   2.329
  347TCM     h1 2057   2.621   0.221   2.530
  347TCM    cl3 2058   2.801   0.065   2.528
  348TCM     c1 2059   2.764   4.472   2.197
  348TCM    cl1 2060   2.629   4.366   2.249
  348TCM    cl2 2061   2.716   4.564   2.051
  348TCM     h1 2062   2.789   4.542   2.278
  348TCM    cl3 2063   2.906   4.371   2.158
  349TCM     c1 2064   0.790   0.987   2.053
  349TCM    cl1 2065   0.628   0.941   1.990
  349TCM    cl2 2066   0.881   1.072   1.924
  349TCM     h1 2067   0.779   1.052   2.140
  349TCM    cl3 2068   0.881   0.839   2.099
  350TCM     c1 2069   2.320   4.351   2.998
  350TCM    cl1 2070   2.472   4.444   3.021
  350TCM    cl2 2071   2.348   4.224   2.874
  350TCM     h1 2072   2.290   4.305   3.092
  350TCM    cl3 2073   2.190   4.461   2.942
  351TCM     c1 2074   3.930   1.822   4.730
  351TCM    cl1 2075   3.872   1.865   4.894
  351TCM    cl2 2076   3.797   1.846   4.612
  351TCM     h1 2077   4.015   1.885   4.703
  351TCM    cl3 2078   3.981   1.650   4.727
  352TCM     c1 2079   0.315   0.624   4.975
  352TCM    cl1 2080   0.291   0.801   4.956
  352TCM    cl2 2081   0.275   0.543   4.820
  352TCM     h1 2082   0.419   0.604   5.001
  352TCM    cl3 2083   0.208   0.562   5.104
  353TCM     c1 2084   3.844   3.763   4.926
  353TCM    cl1 2085   3.844   3.861   5.077
  353TCM    cl2 2086   4.010   3.704   4.893
  353TCM     h1 2087   3.776   3.678   4.937
  353TCM    cl3 2088   3.789   3.866   4.790
  354TCM     c1 2089   1.958   2.297   2.571
  354TCM    cl1 2090   1.985   2.119   2.573
  354TCM    cl2 2091   1.817   2.332   2.466
  354TCM     h1 2092   1.939   2.333   2.672
  354TCM    cl3 2093   2.103   2.378   2.504
  355TCM     c1 2094   1.954   4.057   1.333
  355TCM    cl1 2095   1.869   4.174   1.226
  355TCM    cl2 2096   2.122   4.112   1.358
  355TCM     h1 2097   1.902   4.050   1.429
  355TCM    cl3 2098   1.956   3.895   1.254
  356TCM     c1 2099   4.010   3.599   1.839
  356TCM    cl1 2100   4.143   3.496   1.778
  356TCM    cl2 2101   4.071   3.701   1.973
  356TCM     h1 2102   3.972   3.662   1.759
  356TCM    cl3 2103   3.877   3.495   1.901
  357TCM     c1 2104   2.535   4.573   0.644
  357TCM    cl1 2105   2.456   4.508   0.496
  357TCM    cl2 2106   2.642   4.709   0.596
  357TCM     h1 2107   2.458   4.608   0.713
  357TCM    cl3 2108   2.632   4.444   0.722
  358TCM     c1 2109   2.929   2.051   4.691
  358TCM    cl1 2110   2.915   2.075   4.513
  358TCM    cl2 2111   3.097   2.086   4.743
  358TCM     h1 2112   2.860   2.118   4.742
  358TCM    cl3 2113   2.887   1.881   4.731
  359TCM     c1 2114   1.476   3.159   2.514
  359TCM    cl1 2115   1.635   3.076   2.516
  359TCM    cl2 2116   1.499   3.329   2.567
  359TCM     h1 2117   1.434   3.156   2.414
  359TCM    cl3 2118   1.366   3.076   2.629
  360TCM     c1 2119   0.661   4.095   4.726
  360TCM    cl1 2120   0.648   4.136   4.551
  360TCM    cl2 2121   0.821   4.148   4.786
  360TCM     h1 2122   0.581   4.145   4.781
  360TCM    cl3 2123   0.644   3.917   4.744
  361TCM     c1 2124   4.906   2.275   1.738
  361TCM    cl1 2125   4.957   2.294   1.909
  361TCM    cl2 2126   4.959   2.417   1.642
  361TCM     h1 2127   4.952   2.184   1.697
  361TCM    cl3 2128   4.727   2.261   1.732
  362TCM     c1 2129   4.282   0.768   4.164
  362TCM    cl1 2130   4.408   0.893   4.193
  362TCM    cl2 2131   4.296   0.640   4.288
  362TCM     h1 2132   4.183   0.815   4.170
  362TCM    cl3 2133   4.304   0.696   4.001
  363TCM     c1 2134   3.490   0.971   0.237
  363TCM    cl1 2135   3.522   0.902   0.399
  363TCM    cl2 2136   3.561   0.865   0.111
  363TCM     h1 2137   3.382   0.980   0.221
  363TCM    cl3 2138   3.566   1.134   0.227
  364TCM     c1 2139   1.576   1.518   4.063
  364TCM    cl1 2140   1.598   1.641   4.191
  364TCM    cl2 2141   1.716   1.521   3.951
  364TCM     h1 2142   1.567   1.419   4.109
  364TCM    cl3 2143   1.425   1.554   3.971
  365TCM     c1 2144   0.245   1.943   1.886
  365TCM    cl1 2145   0.209   1.767   1.883
  365TCM    cl2 2146   0.171   2.014   2.033
  365TCM     h1 2147   0.353   1.959   1.888
  365TCM    cl3 2148   0.177   2.022   1.739
  366TCM     c1 2149   1.454   0.367   3.382
  366TCM    cl1 2150   1.354   0.264   3.275
  366TCM    cl2 2151   1.543   0.266   3.500
  366TCM     h1 2152   1.525   0.423   3.321
  366TCM    cl3 2153   1.347   0.481   3.470
  367TCM     c1 2154   2.107   4.193   0.942
  367TCM    cl1 2155   2.005   4.055   0.891
  367TCM    cl2 2156   2.142   4.298   0.801
  367TCM     h1 2157   2.055   4.251   1.019
  367TCM    cl3 2158   2.261   4.130   1.009
  368TCM     c1 2159   3.225   1.664   4.421
  368TCM    cl1 2160   3.400   1.673   4.383
  368TCM    cl2 2161   3.187   1.782   4.551
  368TCM     h1 2162   3.166   1.688   4.332
  368TCM    cl3 2163   3.184   1.499   4.478
  369TCM     c1 2164   2.158   3.589   4.007
  369TCM    cl1 2165   2.118   3.641   3.840
  369TCM    cl2 2166   2.045   3.668   4.122
  369TCM     h1 2167   2.149   3.481   4.016
  369TCM    cl3 2168   2.326   3.639   4.046
  370TCM     c1 2169   3.057   0.703   4.673
  370TCM    cl1 2170   3.224   0.683   4.733
  370TCM    cl2 2171   3.049   0.653   4.501
  370TCM     h1 2172   2.989   0.642   4.732
  370TCM    cl3 2173   3.009   0.876   4.686
  371TCM     c1 2174   3.294   2.347   2.619
  371TCM    cl1 2175   3.214   2.503   2.581
  371TCM    cl2 2176   3.249   2.225   2.495
  371TCM     h1 2177   3.402   2.360   2.620
  371TCM    cl3 2178   3.238   2.292   2.780
  372TCM     c1 2179   4.688   4.100   0.779
  372TCM    cl1 2180   4.764   4.001   0.907
  372TCM    cl2 2181   4.731   4.273   0.803
  372TCM     h1 2182   4.725   4.067   0.681
  372TCM    cl3 2183   4.510   4.081   0.787
  373TCM     c1 2184   1.695   2.835   4.534
  373TCM    cl1 2185   1.696   2.730   4.388
  373TCM    cl2 2186   1.807   2.768   4.657
  373TCM     h1 2187   1.726   2.936   4.507
  373TCM    cl3 2188   1.528   2.839   4.601
  374TCM     c1 2189   2.340   3.990   4.233
  374TCM    cl1 2190   2.289   3.856   4.341
  374TCM    cl2 2191   2.241   3.988   4.084
  374TCM     h1 2192   2.325   4.086   4.285
  374TCM    cl3 2193   2.513   3.970   4.192
  375TCM     c1 2194   4.575   0.112   2.560
  375TCM    cl1 2195   4.567  -0.066   2.584
  375TCM    cl2 2196   4.688   0.148   2.426
  375TCM     h1 2197   4.476   0.150   2.536
  375TCM    cl3 2198   4.635   0.190   2.710
  376TCM     c1 2199   1.850   3.447   1.883
  376TCM    cl1 2200   1.885   3.486   1.711
  376TCM    cl2 2201   2.003   3.412   1.969
  376TCM     h1 2202   1.801   3.533   1.930
  376TCM    cl3 2203   1.742   3.305   1.891
  377TCM     c1 2204   3.477   0.620   0.756
  377TCM    cl1 2205   3.529   0.456   0.705
  377TCM    cl2 2206   3.428   0.617   0.929
  377TCM     h1 2207   3.560   0.689   0.744
  377TCM    cl3 2208   3.340   0.673   0.653
  378TCM     c1 2209   4.988   3.747   2.983
  378TCM    cl1 2210   4.887   3.829   2.859
  378TCM    cl2 2211   5.155   3.811   2.975
  378TCM     h1 2212   4.946   3.767   3.082
  378TCM    cl3 2213   4.990   3.571   2.952
  379TCM     c1 2214   2.748   2.375   4.855
  379TCM    cl1 2215   2.755   2.384   4.676
  379TCM    cl2 2216   2.913   2.345   4.919
  379TCM     h1 2217   2.709   2.468   4.896
  379TCM    cl3 2218   2.642   2.238   4.903
  380TCM     c1 2219   4.628   3.331   4.537
  380TCM    cl1 2220   4.489   3.311   4.425
  380TCM    cl2 2221   4.620   3.205   4.664
  380TCM     h1 2222   4.721   3.322   4.481
  380TCM    cl3 2223   4.620   3.493   4.614
  381TCM     c1 2224   2.716   0.348   3.802
  381TCM    cl1 2225   2.817   0.321   3.948
  381TCM    cl2 2226   2.671   0.521   3.796
  381TCM     h1 2227   2.773   0.321   3.713
  381TCM    cl3 2228   2.568   0.247   3.813
  382TCM     c1 2229   1.516   3.458   4.633
  382TCM    cl1 2230   1.377   3.463   4.745
  382TCM    cl2 2231   1.473   3.541   4.479
  382TCM     h1 2232   1.602   3.508   4.678
  382TCM    cl3 2233   1.558   3.287   4.598
  383TCM     c1 2234   0.645   2.589   0.658
  383TCM    cl1 2235   0.618   2.634   0.830
  383TCM    cl2 2236   0.698   2.733   0.565
  383TCM     h1 2237   0.722   2.511   0.653
  383TCM    cl3 2238   0.492   2.527   0.588
  384TCM     c1 2239   3.044   0.205   3.005
  384TCM    cl1 2240   3.208   0.244   2.946
  384TCM    cl2 2241   2.980   0.064   2.913
  384TCM     h1 2242   3.048   0.180   3.111
  384TCM    cl3 2243   2.935   0.346   2.980
  385TCM     c1 2244   2.564   1.510   3.137
  385TCM    cl1 2245   2.588   1.388   3.008
  385TCM    cl2 2246   2.463   1.441   3.267
  385TCM     h1 2247   2.661   1.540   3.178
  385TCM    cl3 2248   2.483   1.654   3.067
  386TCM     c1 2249   3.055   0.091   4.090
  386TCM    cl1 2250   3.079  -0.014   4.234
  386TCM    cl2 2251   3.009  -0.011   3.949
  386TCM     h1 2252   2.976   0.163   4.110
  386TCM    cl3 2253   3.208   0.176   4.053
  387TCM     c1 2254   2.964   3.381   4.899
  387TCM    cl1 2255   3.126   3.394   4.822
  387TCM    cl2 2256   2.979   3.413   5.075
  387TCM     h1 2257   2.896   3.455   4.854
  387TCM    cl3 2258   2.899   3.216   4.873
  388TCM     c1 2259   4.870   0.408   4.112
  388TCM    cl1 2260   4.885   0.408   3.933
  388TCM    cl2 2261   5.027   0.451   4.187
  388TCM     h1 2262   4.794   0.482   4.142
  388TCM    cl3 2263   4.820   0.246   4.168
  389TCM     c1 2264   0.992   1.656   0.777
  389TCM    cl1 2265   1.162   1.600   0.776
  389TCM    cl2 2266   0.969   1.776   0.908
  389TCM     h1 2267   0.968   1.703   0.681
  389TCM    cl3 2268   0.883   1.516   0.804
  390TCM     c1 2269   0.458   1.220   4.898
  390TCM    cl1 2270   0.501   1.387   4.946
  390TCM    cl2 2271   0.363   1.144   5.030
  390TCM     h1 2272   0.398   1.221   4.807
  390TCM    cl3 2273   0.607   1.124   4.871
  391TCM     c1 2274   4.606   2.662   1.812
  391TCM    cl1 2275   4.763   2.620   1.887
  391TCM    cl2 2276   4.617   2.632   1.635
  391TCM     h1 2277   4.527   2.600   1.855
  391TCM    cl3 2278   4.570   2.835   1.841
  392TCM     c1 2279   2.869   4.976   4.571
  392TCM    cl1 2280   2.720   5.074   4.587
  392TCM    cl2 2281   2.844   4.851   4.446
  392TCM     h1 2282   2.953   5.040   4.542
  392TCM    cl3 2283   2.906   4.897   4.728
  393TCM     c1 2284   2.375   4.765   1.584
  393TCM    cl1 2285   2.496   4.872   1.506
  393TCM    cl2 2286   2.460   4.625   1.658
  393TCM     h1 2287   2.321   4.820   1.661
  393TCM    cl3 2288   2.260   4.705   1.459
  394TCM     c1 2289   2.541   3.797   4.596
  394TCM    cl1 2290   2.720   3.780   4.593
  394TCM    cl2 2291   2.490   3.868   4.753
  394TCM     h1 2292   2.510   3.863   4.514
  394TCM    cl3 2293   2.465   3.637   4.574
  395TCM     c1 2294   3.939   3.952   2.648
  395TCM    cl1 2295   3.876   4.106   2.716
  395TCM    cl2 2296   3.970   3.973   2.472
  395TCM     h1 2297   4.032   3.925   2.698
  395TCM    cl3 2298   3.817   3.823   2.672
  396TCM     c1 2299   2.396   1.113   2.194
  396TCM    cl1 2300   2.517   1.245   2.187
  396TCM    cl2 2301   2.341   1.073   2.028
  396TCM     h1 2302   2.441   1.025   2.239
  396TCM    cl3 2303   2.256   1.166   2.293
  397TCM     c1 2304   4.985   2.127   0.379
  397TCM    cl1 2305   4.967   2.305   0.387
  397TCM    cl2 2306   4.949   2.057   0.540
  397TCM     h1 2307   4.915   2.087   0.306
  397TCM    cl3 2308   5.153   2.084   0.331
  398TCM     c1 2309   4.019   0.428   3.070
  398TCM    cl1 2310   3.899   0.500   3.183
  398TCM    cl2 2311   4.185   0.462   3.131
  398TCM     h1 2312   4.003   0.320   3.063
  398TCM    cl3 2313   3.999   0.503   2.908
  399TCM     c1 2314   4.774   2.086   4.920
  399TCM    cl1 2315   4.805   2.014   4.759
  399TCM    cl2 2316   4.894   2.026   5.039
  399TCM     h1 2317   4.781   2.195   4.914
  399TCM    cl3 2318   4.609   2.040   4.974
  400TCM     c1 2319   3.540   1.059   0.938
  400TCM    cl1 2320   3.424   1.191   0.899
  400TCM    cl2 2321   3.564   0.959   0.792
  400TCM     h1 2322   3.635   1.102   0.969
  400TCM    cl3 2323   3.473   0.959   1.071
  401TCM     c1 2324   2.480   4.246   4.518
  401TCM    cl1 2325   2.617   4.131   4.510
  401TCM    cl2 2326   2.333   4.157   4.568
  401TCM     h1 2327   2.502   4.325   4.590
  401TCM    cl3 2328   2.456   4.316   4.355
  402TCM     c1 2329   1.403   0.237   0.295
  402TCM    cl1 2330   1.463   0.072   0.258
  402TCM    cl2 2331   1.505   0.357   0.210
  402TCM     h1 2332   1.299   0.247   0.262
  402TCM    cl3 2333   1.412   0.265   0.472
  403TCM     c1 2334   1.365   3.043   4.340
  403TCM    cl1 2335   1.287   2.939   4.216
  403TCM    cl2 2336   1.287   3.205   4.341
  403TCM     h1 2337   1.354   2.998   4.439
  403TCM    cl3 2338   1.539   3.062   4.300
  404TCM     c1 2339   1.011   2.422   2.283
  404TCM    cl1 2340   1.183   2.396   2.327
  404TCM    cl2 2341   0.946   2.274   2.205
  404TCM     h1 2342   0.953   2.445   2.372
  404TCM    cl3 2343   0.999   2.559   2.167
  405TCM     c1 2344   1.091   1.123   0.525
  405TCM    cl1 2345   1.112   1.272   0.623
  405TCM    cl2 2346   1.038   0.988   0.631
  405TCM     h1 2347   1.016   1.140   0.448
  405TCM    cl3 2348   1.248   1.081   0.449
  406TCM     c1 2349   0.347   0.293   2.998
  406TCM    cl1 2350   0.210   0.380   3.074
  406TCM    cl2 2351   0.315   0.116   3.000
  406TCM     h1 2352   0.359   0.327   2.894
  406TCM    cl3 2353   0.498   0.326   3.090
  407TCM     c1 2354   2.552   3.911   0.198
  407TCM    cl1 2355   2.406   3.974   0.115
  407TCM    cl2 2356   2.658   3.827   0.080
  407TCM     h1 2357   2.606   3.994   0.243
  407TCM    cl3 2358   2.503   3.796   0.327
  408TCM     c1 2359   0.158   1.692   0.697
  408TCM    cl1 2360   0.256   1.748   0.836
  408TCM    cl2 2361   0.226   1.759   0.545
  408TCM     h1 2362   0.160   1.583   0.692
  408TCM    cl3 2363  -0.012   1.748   0.717
  409TCM     c1 2364   0.143   2.303   0.794
  409TCM    cl1 2365   0.226   2.416   0.905
  409TCM    cl2 2366   0.217   2.312   0.631
  409TCM     h1 2367   0.152   2.201   0.832
  409TCM    cl3 2368  -0.031   2.348   0.784
  410TCM     c1 2369   3.164   4.504   4.011
  410TCM    cl1 2370   3.142   4.665   4.088
  410TCM    cl2 2371   3.332   4.490   3.950
  410TCM     h1 2372   3.145   4.426   4.085
  410TCM    cl3 2373   3.049   4.487   3.874
  411TCM     c1 2374   0.303   3.012   3.397
  411TCM    cl1 2375   0.286   2.837   3.361
  411TCM    cl2 2376   0.347   3.100   3.248
  411TCM     h1 2377   0.208   3.051   3.436
  411TCM    cl3 2378   0.431   3.036   3.521
  412TCM     c1 2379   0.060   1.411   0.189
  412TCM    cl1 2380  -0.118   1.394   0.176
  412TCM    cl2 2381   0.130   1.427   0.025
  412TCM     h1 2382   0.085   1.499   0.249
  412TCM    cl3 2383   0.127   1.264   0.268
  413TCM     c1 2384   4.682   4.897   4.238
  413TCM    cl1 2385   4.745   4.756   4.329
  413TCM    cl2 2386   4.505   4.878   4.210
  413TCM     h1 2387   4.700   4.989   4.295
  413TCM    cl3 2388   4.765   4.907   4.079
  414TCM     c1 2389   3.657   0.921   2.147
  414TCM    cl1 2390   3.626   0.971   1.978
  414TCM    cl2 2391   3.612   0.748   2.165
  414TCM     h1 2392   3.762   0.935   2.171
  414TCM    cl3 2393   3.556   1.020   2.258
  415TCM     c1 2394   2.298   4.606   2.156
  415TCM    cl1 2395   2.292   4.505   2.305
  415TCM    cl2 2396   2.361   4.508   2.019
  415TCM     h1 2397   2.198   4.642   2.132
  415TCM    cl3 2398   2.407   4.746   2.185
  416TCM     c1 2399   0.451   4.128   3.187
  416TCM    cl1 2400   0.373   4.106   3.027
  416TCM    cl2 2401   0.476   4.303   3.216
  416TCM     h1 2402   0.387   4.086   3.265
  416TCM    cl3 2403   0.610   4.046   3.187
  417TCM     c1 2404   2.130   4.514   0.087
  417TCM    cl1 2405   2.201   4.589   0.234
  417TCM    cl2 2406   2.030   4.373   0.136
  417TCM     h1 2407   2.067   4.587   0.036
  417TCM    cl3 2408   2.262   4.460  -0.022
  418TCM     c1 2409   3.212   1.324   2.199
  418TCM    cl1 2410   3.206   1.175   2.299
  418TCM    cl2 2411   3.284   1.456   2.295
  418TCM     h1 2412   3.272   1.305   2.110
  418TCM    cl3 2413   3.045   1.370   2.150
  419TCM     c1 2414   3.288   4.034   0.665
  419TCM    cl1 2415   3.424   3.952   0.748
  419TCM    cl2 2416   3.185   4.117   0.786
  419TCM     h1 2417   3.328   4.108   0.594
  419TCM    cl3 2418   3.189   3.914   0.576
  420TCM     c1 2419   1.423   4.014   2.043
  420TCM    cl1 2420   1.474   4.149   1.937
  420TCM    cl2 2421   1.568   3.935   2.113
  420TCM     h1 2422   1.359   4.052   2.123
  420TCM    cl3 2423   1.332   3.894   1.945
  421TCM     c1 2424   4.851   2.624   2.934
  421TCM    cl1 2425   5.030   2.615   2.929
  421TCM    cl2 2426   4.783   2.500   2.824
  421TCM     h1 2427   4.816   2.606   3.036
  421TCM    cl3 2428   4.799   2.786   2.878
  422TCM     c1 2429   2.621   0.132   3.250
  422TCM    cl1 2430   2.798   0.108   3.253
  422TCM    cl2 2431   2.581   0.282   3.160
  422TCM     h1 2432   2.573   0.047   3.202
  422TCM    cl3 2433   2.561   0.147   3.419
  423TCM     c1 2434   1.079   4.193   0.152
  423TCM    cl1 2435   1.138   4.169  -0.016
  423TCM    cl2 2436   1.081   4.035   0.239
  423TCM     h1 2437   1.145   4.264   0.204
  423TCM    cl3 2438   0.912   4.257   0.149
  424TCM     c1 2439   2.993   2.805   0.715
  424TCM    cl1 2440   3.102   2.689   0.632
  424TCM    cl2 2441   3.051   2.831   0.883
  424TCM     h1 2442   2.992   2.900   0.661
  424TCM    cl3 2443   2.826   2.738   0.719
  425TCM     c1 2444   0.515   1.958   2.466
  425TCM    cl1 2445   0.350   1.974   2.398
  425TCM    cl2 2446   0.516   2.004   2.639
  425TCM     h1 2447   0.549   1.855   2.455
  425TCM    cl3 2448   0.626   2.068   2.377
  426TCM     c1 2449   2.574   0.668   4.826
  426TCM    cl1 2450   2.752   0.654   4.849
  426TCM    cl2 2451   2.542   0.745   4.667
  426TCM     h1 2452   2.529   0.568   4.828
  426TCM    cl3 2453   2.505   0.768   4.957
  427TCM     c1 2454   0.363   4.191   4.137
  427TCM    cl1 2455   0.220   4.103   4.076
  427TCM    cl2 2456   0.358   4.198   4.317
  427TCM     h1 2457   0.454   4.139   4.106
  427TCM    cl3 2458   0.362   4.358   4.072
  428TCM     c1 2459   4.814   3.953   1.261
  428TCM    cl1 2460   4.785   4.028   1.422
  428TCM    cl2 2461   4.803   3.775   1.276
  428TCM     h1 2462   4.738   3.989   1.191
  428TCM    cl3 2463   4.977   3.999   1.202
  429TCM     c1 2464   0.412   4.237   3.722
  429TCM    cl1 2465   0.373   4.206   3.550
  429TCM    cl2 2466   0.528   4.373   3.734
  429TCM     h1 2467   0.320   4.263   3.776
  429TCM    cl3 2468   0.484   4.090   3.796
  430TCM     c1 2469   0.018   4.970   3.303
  430TCM    cl1 2470   0.057   4.889   3.147
  430TCM    cl2 2471   0.089   5.134   3.305
  430TCM     h1 2472  -0.090   4.976   3.315
  430TCM    cl3 2473   0.088   4.874   3.437
  431TCM     c1 2474   3.759   2.604   1.840
  431TCM    cl1 2475   3.932   2.558   1.840
  431TCM    cl2 2476   3.693   2.591   2.007
  431TCM     h1 2477   3.749   2.707   1.804
  431TCM    cl3 2478   3.667   2.494   1.733
  432TCM     c1 2479   3.855   1.077   4.997
  432TCM    cl1 2480   3.952   1.214   5.061
  432TCM    cl2 2481   3.963   0.963   4.911
  432TCM     h1 2482   3.805   1.026   5.080
  432TCM    cl3 2483   3.731   1.140   4.883
  433TCM     c1 2484   1.020   1.806   4.322
  433TCM    cl1 2485   1.081   1.927   4.440
  433TCM    cl2 2486   0.947   1.668   4.410
  433TCM     h1 2487   0.945   1.853   4.258
  433TCM    cl3 2488   1.157   1.748   4.222
  434TCM     c1 2489   0.314   0.229   2.095
  434TCM    cl1 2490   0.158   0.285   2.027
  434TCM    cl2 2491   0.323   0.050   2.090
  434TCM     h1 2492   0.396   0.271   2.037
  434TCM    cl3 2493   0.326   0.285   2.265
  435TCM     c1 2494   3.751   0.128   1.065
  435TCM    cl1 2495   3.647   0.047   1.186
  435TCM    cl2 2496   3.675   0.282   1.014
  435TCM     h1 2497   3.849   0.148   1.109
  435TCM    cl3 2498   3.771   0.021   0.922
  436TCM     c1 2499   3.048   2.078   3.551
  436TCM    cl1 2500   3.174   2.050   3.676
  436TCM    cl2 2501   2.886   2.040   3.620
  436TCM     h1 2502   3.050   2.182   3.519
  436TCM    cl3 2503   3.078   1.970   3.411
  437TCM     c1 2504   3.907   2.849   3.296
  437TCM    cl1 2505   3.997   2.964   3.400
  437TCM    cl2 2506   3.970   2.683   3.321
  437TCM     h1 2507   3.801   2.852   3.321
  437TCM    cl3 2508   3.930   2.896   3.124
  438TCM     c1 2509   3.093   4.337   1.679
  438TCM    cl1 2510   3.028   4.456   1.796
  438TCM    cl2 2511   3.021   4.366   1.517
  438TCM     h1 2512   3.202   4.347   1.673
  438TCM    cl3 2513   3.051   4.171   1.733
  439TCM     c1 2514   0.417   1.146   4.160
  439TCM    cl1 2515   0.257   1.087   4.219
  439TCM    cl2 2516   0.440   1.098   3.989
  439TCM     h1 2517   0.421   1.255   4.169
  439TCM    cl3 2518   0.546   1.072   4.261
  440TCM     c1 2519   0.383   1.731   1.579
  440TCM    cl1 2520   0.508   1.824   1.666
  440TCM    cl2 2521   0.386   1.560   1.635
  440TCM     h1 2522   0.284   1.774   1.599
  440TCM    cl3 2523   0.415   1.736   1.402
  441TCM     c1 2524   4.923   2.555   1.082
  441TCM    cl1 2525   5.017   2.692   1.014
  441TCM    cl2 2526   4.755   2.563   1.020
  441TCM     h1 2527   4.969   2.461   1.051
  441TCM    cl3 2528   4.922   2.564   1.261
  442TCM     c1 2529   0.629   3.438   4.739
  442TCM    cl1 2530   0.585   3.335   4.879
  442TCM    cl2 2531   0.504   3.419   4.612
  442TCM     h1 2532   0.635   3.542   4.770
  442TCM    cl3 2533   0.788   3.385   4.675
  443TCM     c1 2534   3.256   1.229   1.529
  443TCM    cl1 2535   3.318   1.107   1.414
  443TCM    cl2 2536   3.383   1.270   1.650
  443TCM     h1 2537   3.227   1.319   1.475
  443TCM    cl3 2538   3.113   1.160   1.612
  444TCM     c1 2539   3.494   1.504   4.695
  444TCM    cl1 2540   3.492   1.668   4.769
  444TCM    cl2 2541   3.445   1.383   4.818
  444TCM     h1 2542   3.424   1.501   4.611
  444TCM    cl3 2543   3.659   1.467   4.636
  445TCM     c1 2544   0.589   3.820   4.356
  445TCM    cl1 2545   0.431   3.843   4.275
  445TCM    cl2 2546   0.715   3.916   4.270
  445TCM     h1 2547   0.582   3.853   4.460
  445TCM    cl3 2548   0.633   3.646   4.352
  446TCM     c1 2549   3.370   3.092   4.941
  446TCM    cl1 2550   3.347   3.105   4.764
  446TCM    cl2 2551   3.214   3.053   5.020
  446TCM     h1 2552   3.443   3.014   4.963
  446TCM    cl3 2553   3.430   3.249   5.005
  447TCM     c1 2554   0.555   2.293   1.373
  447TCM    cl1 2555   0.449   2.148   1.363
  447TCM    cl2 2556   0.631   2.323   1.212
  447TCM     h1 2557   0.496   2.380   1.402
  447TCM    cl3 2558   0.684   2.265   1.494
  448TCM     c1 2559   4.377   0.030   0.137
  448TCM    cl1 2560   4.287   0.044   0.292
  448TCM    cl2 2561   4.500   0.160   0.126
  448TCM     h1 2562   4.426  -0.067   0.132
  448TCM    cl3 2563   4.262   0.046   0.000
  449TCM     c1 2564   4.349   0.908   0.029
  449TCM    cl1 2565   4.304   1.072   0.087
  449TCM    cl2 2566   4.235   0.787   0.099
  449TCM     h1 2567   4.343   0.904  -0.080
  449TCM    cl3 2568   4.516   0.870   0.082
  450TCM     c1 2569   3.127   0.601   3.325
  450TCM    cl1 2570   3.131   0.700   3.175
  450TCM    cl2 2571   3.263   0.649   3.430
  450TCM     h1 2572   3.032   0.618   3.377
  450TCM    cl3 2573   3.142   0.427   3.284
  451TCM     c1 2574   4.196   1.285   4.764
  451TCM    cl1 2575   4.286   1.416   4.680
  451TCM    cl2 2576   4.279   1.128   4.735
  451TCM     h1 2577   4.193   1.306   4.871
  451TCM    cl3 2578   4.029   1.275   4.699
  452TCM     c1 2579   4.697   1.932   3.396
  452TCM    cl1 2580   4.657   1.861   3.236
  452TCM    cl2 2581   4.701   2.111   3.384
  452TCM     h1 2582   4.621   1.902   3.469
  452TCM    cl3 2583   4.857   1.871   3.449
  453TCM     c1 2584   4.871   0.063   3.762
  453TCM    cl1 2585   4.928   0.182   3.640
  453TCM    cl2 2586   4.983  -0.077   3.767
  453TCM     h1 2587   4.867   0.110   3.861
  453TCM    cl3 2588   4.708   0.006   3.715
  454TCM     c1 2589   3.129   0.500   3.747
  454TCM    cl1 2590   3.005   0.610   3.680
  454TCM    cl2 2591   3.090   0.331   3.702
  454TCM     h1 2592   3.228   0.527   3.708
  454TCM    cl3 2593   3.130   0.516   3.926
  455TCM     c1 2594   3.730   3.743   1.529
  455TCM    cl1 2595   3.825   3.831   1.404
  455TCM    cl2 2596   3.750   3.826   1.687
  455TCM     h1 2597   3.625   3.740   1.501
  455TCM    cl3 2598   3.794   3.576   1.543
  456TCM     c1 2599   0.460   4.924   1.178
  456TCM    cl1 2600   0.564   4.812   1.083
  456TCM    cl2 2601   0.292   4.859   1.183
  456TCM     h1 2602   0.499   4.933   1.280
  456TCM    cl3 2603   0.460   5.085   1.100
  457TCM     c1 2604   2.158   3.913   3.582
  457TCM    cl1 2605   2.272   3.963   3.712
  457TCM    cl2 2606   2.237   3.790   3.479
  457TCM     h1 2607   2.067   3.871   3.626
  457TCM    cl3 2608   2.116   4.056   3.482
  458TCM     c1 2609   4.355   3.850   1.259
  458TCM    cl1 2610   4.442   3.830   1.415
  458TCM    cl2 2611   4.469   3.911   1.135
  458TCM     h1 2612   4.314   3.753   1.228
  458TCM    cl3 2613   4.220   3.967   1.280
  459TCM     c1 2614   2.927   4.128   4.328
  459TCM    cl1 2615   2.975   4.087   4.496
  459TCM    cl2 2616   2.905   3.976   4.234
  459TCM     h1 2617   2.833   4.184   4.329
  459TCM    cl3 2618   3.055   4.228   4.253
  460TCM     c1 2619   1.447   1.973   4.566
  460TCM    cl1 2620   1.332   1.986   4.704
  460TCM    cl2 2621   1.429   1.813   4.487
  460TCM     h1 2622   1.427   2.052   4.494
  460TCM    cl3 2623   1.615   1.990   4.628
  461TCM     c1 2624   1.425   3.542   1.837
  461TCM    cl1 2625   1.511   3.517   1.682
  461TCM    cl2 2626   1.540   3.606   1.959
  461TCM     h1 2627   1.343   3.613   1.823
  461TCM    cl3 2628   1.359   3.386   1.896
  462TCM     c1 2629   1.795   4.695   1.418
  462TCM    cl1 2630   1.860   4.730   1.582
  462TCM    cl2 2631   1.930   4.696   1.299
  462TCM     h1 2632   1.748   4.596   1.418
  462TCM    cl3 2633   1.675   4.820   1.373
  463TCM     c1 2634   3.857   4.241   3.602
  463TCM    cl1 2635   3.790   4.367   3.493
  463TCM    cl2 2636   3.879   4.310   3.766
  463TCM     h1 2637   3.789   4.157   3.606
  463TCM    cl3 2638   4.017   4.187   3.539
  464TCM     c1 2639   0.440   0.888   3.594
  464TCM    cl1 2640   0.538   0.883   3.444
  464TCM    cl2 2641   0.389   0.722   3.638
  464TCM     h1 2642   0.499   0.931   3.675
  464TCM    cl3 2643   0.294   0.989   3.566
  465TCM     c1 2644   1.527   4.596   0.246
  465TCM    cl1 2645   1.699   4.566   0.205
  465TCM    cl2 2646   1.517   4.706   0.388
  465TCM     h1 2647   1.477   4.642   0.161
  465TCM    cl3 2648   1.447   4.440   0.286
  466TCM     c1 2649   3.019   0.227   0.061
  466TCM    cl1 2650   3.021   0.274   0.234
  466TCM    cl2 2651   2.911   0.085   0.039
  466TCM     h1 2652   2.983   0.310   0.001
  466TCM    cl3 2653   3.186   0.184   0.010
  467TCM     c1 2654   3.695   0.914   3.050
  467TCM    cl1 2655   3.834   1.006   2.985
  467TCM    cl2 2656   3.729   0.867   3.219
  467TCM     h1 2657   3.605   0.975   3.046
  467TCM    cl3 2658   3.671   0.766   2.951
  468TCM     c1 2659   0.040   4.429   3.674
  468TCM    cl1 2660   0.015   4.363   3.509
  468TCM    cl2 2661   0.194   4.521   3.678
  468TCM     h1 2662  -0.043   4.495   3.700
  468TCM    cl3 2663   0.048   4.293   3.790
  469TCM     c1 2664   4.070   1.544   0.163
  469TCM    cl1 2665   4.174   1.553   0.017
  469TCM    cl2 2666   4.008   1.708   0.203
  469TCM     h1 2667   3.985   1.477   0.144
  469TCM    cl3 2668   4.166   1.480   0.301
  470TCM     c1 2669   0.245   0.675   2.885
  470TCM    cl1 2670   0.414   0.673   2.946
  470TCM    cl2 2671   0.230   0.555   2.752
  470TCM     h1 2672   0.176   0.650   2.965
  470TCM    cl3 2673   0.207   0.838   2.821
  471TCM     c1 2674   0.543   1.709   2.087
  471TCM    cl1 2675   0.590   1.657   2.252
  471TCM    cl2 2676   0.671   1.665   1.970
  471TCM     h1 2677   0.449   1.662   2.059
  471TCM    cl3 2678   0.523   1.888   2.085
  472TCM     c1 2679   3.412   2.055   1.610
  472TCM    cl1 2680   3.341   1.922   1.514
  472TCM    cl2 2681   3.512   2.159   1.503
  472TCM     h1 2682   3.331   2.115   1.653
  472TCM    cl3 2683   3.514   1.987   1.741
  473TCM     c1 2684   2.608   0.807   4.231
  473TCM    cl1 2685   2.612   0.967   4.149
  473TCM    cl2 2686   2.447   0.783   4.306
  473TCM     h1 2687   2.626   0.728   4.157
  473TCM    cl3 2688   2.735   0.801   4.358
  474TCM     c1 2689   4.481   2.380   4.733
  474TCM    cl1 2690   4.659   2.381   4.749
  474TCM    cl2 2691   4.423   2.211   4.711
  474TCM     h1 2692   4.436   2.422   4.823
  474TCM    cl3 2693   4.434   2.478   4.590
  475TCM     c1 2694   3.854   0.699   2.639
  475TCM    cl1 2695   3.737   0.777   2.528
  475TCM    cl2 2696   3.962   0.825   2.708
  475TCM     h1 2697   3.800   0.649   2.720
  475TCM    cl3 2698   3.953   0.580   2.549
  476TCM     c1 2699   3.042   1.981   3.028
  476TCM    cl1 2700   3.154   1.842   3.045
  476TCM    cl2 2701   3.005   2.008   2.854
  476TCM     h1 2702   2.950   1.961   3.083
  476TCM    cl3 2703   3.121   2.128   3.094
  477TCM     c1 2704   3.611   1.655   1.425
  477TCM    cl1 2705   3.670   1.823   1.407
  477TCM    cl2 2706   3.549   1.630   1.591
  477TCM     h1 2707   3.531   1.637   1.353
  477TCM    cl3 2708   3.746   1.541   1.394
  478TCM     c1 2709   0.201   3.258   1.354
  478TCM    cl1 2710   0.153   3.119   1.458
  478TCM    cl2 2711   0.274   3.197   1.202
  478TCM     h1 2712   0.113   3.319   1.331
  478TCM    cl3 2713   0.322   3.358   1.441
  479TCM     c1 2714   2.360   3.393   4.309
  479TCM    cl1 2715   2.439   3.290   4.433
  479TCM    cl2 2716   2.213   3.468   4.379
  479TCM     h1 2717   2.429   3.471   4.277
  479TCM    cl3 2718   2.313   3.292   4.168
  480TCM     c1 2719   1.651   1.559   2.020
  480TCM    cl1 2720   1.733   1.504   2.170
  480TCM    cl2 2721   1.692   1.447   1.886
  480TCM     h1 2722   1.543   1.561   2.035
  480TCM    cl3 2723   1.710   1.724   1.979
  481TCM     c1 2724   4.686   2.449   0.174
  481TCM    cl1 2725   4.836   2.445   0.075
  481TCM    cl2 2726   4.650   2.283   0.234
  481TCM     h1 2727   4.700   2.516   0.259
  481TCM    cl3 2728   4.549   2.504   0.072
  482TCM     c1 2729   2.980   4.392   3.345
  482TCM    cl1 2730   2.815   4.322   3.347
  482TCM    cl2 2731   3.098   4.266   3.296
  482TCM     h1 2732   2.983   4.475   3.273
  482TCM    cl3 2733   3.021   4.454   3.508
  483TCM     c1 2734   4.994   3.998   0.186
  483TCM    cl1 2735   5.088   3.907   0.310
  483TCM    cl2 2736   4.944   4.157   0.252
  483TCM     h1 2737   5.056   4.013   0.098
  483TCM    cl3 2738   4.849   3.902   0.142
  484TCM     c1 2739   0.876   2.524   3.356
  484TCM    cl1 2740   0.805   2.433   3.494
  484TCM    cl2 2741   0.753   2.538   3.226
  484TCM     h1 2742   0.905   2.624   3.389
  484TCM    cl3 2743   1.020   2.437   3.295
  485TCM     c1 2744   3.236   4.459   4.479
  485TCM    cl1 2745   3.341   4.458   4.334
  485TCM    cl2 2746   3.123   4.598   4.470
  485TCM     h1 2747   3.179   4.366   4.485
  485TCM    cl3 2748   3.338   4.475   4.626
  486TCM     c1 2749   4.938   3.428   3.357
  486TCM    cl1 2750   5.041   3.328   3.250
  486TCM    cl2 2751   4.766   3.394   3.319
  486TCM     h1 2752   4.957   3.403   3.461
  486TCM    cl3 2753   4.974   3.602   3.329
  487TCM     c1 2754   2.152   4.844   3.025
  487TCM    cl1 2755   2.327   4.811   3.010
  487TCM    cl2 2756   2.082   4.738   3.152
  487TCM     h1 2757   2.137   4.948   3.053
  487TCM    cl3 2758   2.070   4.811   2.869
  488TCM     c1 2759   0.057   2.789   4.042
  488TCM    cl1 2760   0.121   2.653   4.141
  488TCM    cl2 2761   0.162   2.933   4.063
  488TCM     h1 2762   0.055   2.760   3.937
  488TCM    cl3 2763  -0.109   2.829   4.098
  489TCM     c1 2764   2.634   2.130   3.160
  489TCM    cl1 2765   2.480   2.126   3.253
  489TCM    cl2 2766   2.638   1.994   3.043
  489TCM     h1 2767   2.642   2.225   3.107
  489TCM    cl3 2768   2.772   2.114   3.273
  490TCM     c1 2769   1.829   0.618   3.745
  490TCM    cl1 2770   1.813   0.696   3.906
  490TCM    cl2 2771   1.853   0.745   3.621
  490TCM     h1 2772   1.915   0.551   3.745
  490TCM    cl3 2773   1.679   0.527   3.708
  491TCM     c1 2774   0.738   0.190   0.645
  491TCM    cl1 2775   0.574   0.168   0.713
  491TCM    cl2 2776   0.734   0.316   0.517
  491TCM     h1 2777   0.806   0.222   0.725
  491TCM    cl3 2778   0.795   0.035   0.575
  492TCM     c1 2779   4.008   1.067   3.372
  492TCM    cl1 2780   4.014   1.192   3.243
  492TCM    cl2 2781   3.904   1.124   3.507
  492TCM     h1 2782   3.967   0.974   3.331
  492TCM    cl3 2783   4.174   1.038   3.434
  493TCM     c1 2784   3.101   4.795   3.217
  493TCM    cl1 2785   3.180   4.955   3.232
  493TCM    cl2 2786   2.962   4.787   3.330
  493TCM     h1 2787   3.066   4.781   3.114
  493TCM    cl3 2788   3.217   4.665   3.259
  494TCM     c1 2789   2.078   2.532   3.052
  494TCM    cl1 2790   2.108   2.465   2.888
  494TCM    cl2 2791   1.933   2.637   3.047
  494TCM     h1 2792   2.063   2.451   3.123
  494TCM    cl3 2793   2.219   2.631   3.103
  495TCM     c1 2794   1.212   0.568   4.898
  495TCM    cl1 2795   1.376   0.536   4.833
  495TCM    cl2 2796   1.187   0.746   4.910
  495TCM     h1 2797   1.137   0.526   4.831
  495TCM    cl3 2798   1.197   0.494   5.061
  496TCM     c1 2799   2.022   4.274   4.196
  496TCM    cl1 2800   1.901   4.403   4.226
  496TCM    cl2 2801   2.045   4.179   4.346
  496TCM     h1 2802   1.986   4.208   4.116
  496TCM    cl3 2803   2.177   4.349   4.148
  497TCM     c1 2804   0.838   3.746   0.090
  497TCM    cl1 2805   0.854   3.667  -0.070
  497TCM    cl2 2806   0.718   3.656   0.188
  497TCM     h1 2807   0.935   3.747   0.141
  497TCM    cl3 2808   0.782   3.915   0.068
  498TCM     c1 2809   4.958   2.787   1.601
  498TCM    cl1 2810   4.877   2.864   1.461
  498TCM    cl2 2811   4.961   2.903   1.739
  498TCM     h1 2812   4.902   2.697   1.631
  498TCM    cl3 2813   5.126   2.741   1.557
  499TCM     c1 2814   3.338   1.058   3.444
  499TCM    cl1 2815   3.488   1.116   3.523
  499TCM    cl2 2816   3.379   0.980   3.287
  499TCM     h1 2817   3.288   0.986   3.509
  499TCM    cl3 2818   3.229   1.198   3.414
  500TCM     c1 2819   4.842   1.208   1.885
  500TCM    cl1 2820   4.944   1.355   1.868
  500TCM    cl2 2821   4.747   1.218   2.037
  500TCM     h1 2822   4.773   1.202   1.800
  500TCM    cl3 2823   4.946   1.063   1.887
  501TCM     c1 2824   1.305   4.813   1.246
  501TCM    cl1 2825   1.212   4.826   1.093
  501TCM    cl2 2826   1.380   4.650   1.257
  501TCM     h1 2827   1.384   4.889   1.248
  501TCM    cl3 2828   1.194   4.839   1.385
  502TCM     c1 2829   2.634   3.029   3.604
  502TCM    cl1 2830   2.672   2.853   3.607
  502TCM    cl2 2831   2.730   3.108   3.475
  502TCM     h1 2832   2.527   3.043   3.584
  502TCM    cl3 2833   2.675   3.101   3.763
  503TCM     c1 2834   4.828   2.998   1.021
  503TCM    cl1 2835   4.782   3.146   0.930
  503TCM    cl2 2836   4.685   2.935   1.111
  503TCM     h1 2837   4.863   2.922   0.952
  503TCM    cl3 2838   4.958   3.039   1.137
  504TCM     c1 2839   1.712   0.330   4.881
  504TCM    cl1 2840   1.678   0.287   4.711
  504TCM    cl2 2841   1.855   0.437   4.887
  504TCM     h1 2842   1.625   0.381   4.925
  504TCM    cl3 2843   1.747   0.180   4.974
  505TCM     c1 2844   0.709   1.897   3.031
  505TCM    cl1 2845   0.698   1.757   2.919
  505TCM    cl2 2846   0.686   1.841   3.200
  505TCM     h1 2847   0.808   1.944   3.021
  505TCM    cl3 2848   0.582   2.017   2.990
  506TCM     c1 2849   2.446   3.871   2.183
  506TCM    cl1 2850   2.589   3.765   2.165
  506TCM    cl2 2851   2.479   4.031   2.107
  506TCM     h1 2852   2.360   3.825   2.134
  506TCM    cl3 2853   2.411   3.894   2.357
  507TCM     c1 2854   1.258   0.468   2.675
  507TCM    cl1 2855   1.135   0.593   2.713
  507TCM    cl2 2856   1.258   0.344   2.805
  507TCM     h1 2857   1.234   0.421   2.579
  507TCM    cl3 2858   1.419   0.545   2.665
  508TCM     c1 2859   4.942   4.970   2.829
  508TCM    cl1 2860   4.784   4.916   2.895
  508TCM    cl2 2861   4.975   5.140   2.877
  508TCM     h1 2862   5.021   4.905   2.867
  508TCM    cl3 2863   4.938   4.960   2.650
  509TCM     c1 2864   2.329   3.814   3.048
  509TCM    cl1 2865   2.277   3.967   3.127
  509TCM    cl2 2866   2.317   3.831   2.870
  509TCM     h1 2867   2.432   3.792   3.075
  509TCM    cl3 2868   2.222   3.680   3.103
  510TCM     c1 2869   4.960   4.914   4.958
  510TCM    cl1 2870   4.819   4.954   5.062
  510TCM    cl2 2871   4.903   4.858   4.798
  510TCM     h1 2872   5.023   5.003   4.946
  510TCM    cl3 2873   5.056   4.784   5.036
  511TCM     c1 2874   1.360   3.887   4.958
  511TCM    cl1 2875   1.224   3.782   5.009
  511TCM    cl2 2876   1.490   3.787   4.885
  511TCM     h1 2877   1.325   3.960   4.885
  511TCM    cl3 2878   1.425   3.972   5.102
  512TCM     c1 2879   0.370   1.854   3.410
  512TCM    cl1 2880   0.329   1.929   3.252
  512TCM    cl2 2881   0.402   1.679   3.388
  512TCM     h1 2882   0.459   1.902   3.451
  512TCM    cl3 2883   0.233   1.876   3.523
  513TCM     c1 2884   4.484   0.458   4.732
  513TCM    cl1 2885   4.426   0.589   4.840
  513TCM    cl2 2886   4.520   0.526   4.570
  513TCM     h1 2887   4.574   0.413   4.774
  513TCM    cl3 2888   4.356   0.333   4.717
  514TCM     c1 2889   4.156   2.180   2.393
  514TCM    cl1 2890   4.044   2.053   2.452
  514TCM    cl2 2891   4.325   2.134   2.436
  514TCM     h1 2892   4.147   2.191   2.285
  514TCM    cl3 2893   4.115   2.334   2.475
  515TCM     c1 2894   3.278   4.626   1.445
  515TCM    cl1 2895   3.384   4.494   1.502
  515TCM    cl2 2896   3.376   4.746   1.353
  515TCM     h1 2897   3.200   4.586   1.380
  515TCM    cl3 2898   3.203   4.707   1.587
  516TCM     c1 2899   0.223   0.050   0.670
  516TCM    cl1 2900   0.218  -0.023   0.834
  516TCM    cl2 2901   0.060   0.114   0.628
  516TCM     h1 2902   0.296   0.131   0.667
  516TCM    cl3 2903   0.268  -0.077   0.551
  517TCM     c1 2904   3.860   4.982   0.145
  517TCM    cl1 2905   3.949   4.864   0.247
  517TCM    cl2 2906   3.893   4.949  -0.028
  517TCM     h1 2907   3.753   4.973   0.164
  517TCM    cl3 2908   3.913   5.149   0.186
  518TCM     c1 2909   0.711   0.136   2.302
  518TCM    cl1 2910   0.659   0.276   2.401
  518TCM    cl2 2911   0.667   0.163   2.130
  518TCM     h1 2912   0.819   0.124   2.310
  518TCM    cl3 2913   0.629  -0.012   2.360
  519TCM     c1 2914   2.518   0.039   4.200
  519TCM    cl1 2915   2.456  -0.036   4.049
  519TCM    cl2 2916   2.693   0.073   4.182
  519TCM     h1 2917   2.464   0.131   4.220
  519TCM    cl3 2918   2.495  -0.075   4.336
  520TCM     c1 2919   4.262   3.975   1.714
  520TCM    cl1 2920   4.125   3.886   1.641
  520TCM    cl2 2921   4.215   4.032   1.877
  520TCM     h1 2922   4.349   3.909   1.721
  520TCM    cl3 2923   4.304   4.117   1.612
  521TCM     c1 2924   3.044   3.828   4.748
  521TCM    cl1 2925   2.968   3.737   4.883
  521TCM    cl2 2926   3.115   3.713   4.630
  521TCM     h1 2927   2.968   3.889   4.698
  521TCM    cl3 2928   3.172   3.934   4.814
  522TCM     c1 2929   2.540   0.445   4.416
  522TCM    cl1 2930   2.695   0.453   4.507
  522TCM    cl2 2931   2.451   0.297   4.463
  522TCM     h1 2932   2.480   0.533   4.439
  522TCM    cl3 2933   2.574   0.440   4.240
  523TCM     c1 2934   3.460   3.399   1.622
  523TCM    cl1 2935   3.431   3.516   1.488
  523TCM    cl2 2936   3.522   3.488   1.765
  523TCM     h1 2937   3.366   3.349   1.648
  523TCM    cl3 2938   3.581   3.277   1.570
  524TCM     c1 2939   4.861   2.971   3.245
  524TCM    cl1 2940   5.005   2.953   3.140
  524TCM    cl2 2941   4.914   3.021   3.409
  524TCM     h1 2942   4.794   3.047   3.203
  524TCM    cl3 2943   4.776   2.814   3.256
  525TCM     c1 2944   1.469   3.316   2.938
  525TCM    cl1 2945   1.602   3.203   2.896
  525TCM    cl2 2946   1.519   3.419   3.076
  525TCM     h1 2947   1.445   3.379   2.852
  525TCM    cl3 2948   1.323   3.222   2.985
  526TCM     c1 2949   2.689   4.170   1.707
  526TCM    cl1 2950   2.744   4.125   1.542
  526TCM    cl2 2951   2.522   4.109   1.733
  526TCM     h1 2952   2.756   4.127   1.782
  526TCM    cl3 2953   2.689   4.349   1.722
  527TCM     c1 2954   0.177   1.349   2.856
  527TCM    cl1 2955   0.065   1.433   2.743
  527TCM    cl2 2956   0.339   1.333   2.779
  527TCM     h1 2957   0.186   1.407   2.948
  527TCM    cl3 2958   0.113   1.185   2.893
  528TCM     c1 2959   4.329   3.070   2.716
  528TCM    cl1 2960   4.243   3.039   2.562
  528TCM    cl2 2961   4.212   3.066   2.852
  528TCM     h1 2962   4.406   2.994   2.731
  528TCM    cl3 2963   4.406   3.232   2.709
  529TCM     c1 2964   2.480   4.734   2.578
  529TCM    cl1 2965   2.628   4.672   2.496
  529TCM    cl2 2966   2.525   4.870   2.686
  529TCM     h1 2967   2.409   4.768   2.503
  529TCM    cl3 2968   2.407   4.603   2.677
  530TCM     c1 2969   2.710   3.440   2.390
  530TCM    cl1 2970   2.861   3.536   2.404
  530TCM    cl2 2971   2.681   3.400   2.217
  530TCM     h1 2972   2.721   3.347   2.447
  530TCM    cl3 2973   2.572   3.535   2.454
  531TCM     c1 2974   1.833   3.291   4.326
  531TCM    cl1 2975   1.934   3.309   4.179
  531TCM    cl2 2976   1.851   3.437   4.430
  531TCM     h1 2977   1.728   3.280   4.297
  531TCM    cl3 2978   1.886   3.146   4.418
  532TCM     c1 2979   4.766   1.767   0.399
  532TCM    cl1 2980   4.926   1.741   0.320
  532TCM    cl2 2981   4.667   1.618   0.384
  532TCM     h1 2982   4.781   1.791   0.504
  532TCM    cl3 2983   4.682   1.902   0.316
  533TCM     c1 2984   1.890   2.929   2.129
  533TCM    cl1 2985   1.965   3.056   2.027
  533TCM    cl2 2986   1.880   2.776   2.036
  533TCM     h1 2987   1.951   2.914   2.218
  533TCM    cl3 2988   1.725   2.979   2.176
  534TCM     c1 2989   2.138   0.645   4.758
  534TCM    cl1 2990   2.133   0.692   4.931
  534TCM    cl2 2991   2.264   0.519   4.736
  534TCM     h1 2992   2.041   0.605   4.728
  534TCM    cl3 2993   2.179   0.788   4.658
  535TCM     c1 2994   0.269   0.091   4.131
  535TCM    cl1 2995   0.248   0.181   4.284
  535TCM    cl2 2996   0.419   0.144   4.049
  535TCM     h1 2997   0.275  -0.016   4.152
  535TCM    cl3 2998   0.128   0.123   4.024
  536TCM     c1 2999   1.576   4.355   1.649
  536TCM    cl1 3000   1.529   4.511   1.573
  536TCM    cl2 3001   1.708   4.384   1.768
  536TCM     h1 3002   1.490   4.312   1.699
  536TCM    cl3 3003   1.635   4.243   1.522
  537TCM     c1 3004   4.771   0.811   4.101
  537TCM    cl1 3005   4.730   0.721   4.250
  537TCM    cl2 3006   4.668   0.755   3.966
  537TCM     h1 3007   4.755   0.918   4.117
  537TCM    cl3 3008   4.942   0.781   4.058
  538TCM     c1 3009   1.877   0.162   3.825
  538TCM    cl1 3010   1.998   0.106   3.944
  538TCM    cl2 3011   1.954   0.278   3.712
  538TCM     h1 3012   1.837   0.077   3.769
  538TCM    cl3 3013   1.744   0.245   3.912
  539TCM     c1 3014   2.617   4.413   1.348
  539TCM    cl1 3015   2.567   4.578   1.296
  539TCM    cl2 3016   2.695   4.331   1.209
  539TCM     h1 3017   2.688   4.421   1.431
  539TCM    cl3 3018   2.472   4.322   1.400
  540TCM     c1 3019   1.416   0.676   3.924
  540TCM    cl1 3020   1.497   0.580   4.053
  540TCM    cl2 3021   1.479   0.844   3.927
  540TCM     h1 3022   1.437   0.631   3.826
  540TCM    cl3 3023   1.240   0.678   3.954
  541TCM     c1 3024   2.531   2.490   2.829
  541TCM    cl1 3025   2.442   2.484   2.674
  541TCM    cl2 3026   2.464   2.367   2.942
  541TCM     h1 3027   2.637   2.470   2.811
  541TCM    cl3 3028   2.514   2.653   2.902
  542TCM     c1 3029   1.911   3.019   3.224
  542TCM    cl1 3030   1.867   2.999   3.051
  542TCM    cl2 3031   1.908   3.194   3.266
  542TCM     h1 3032   1.839   2.965   3.286
  542TCM    cl3 3033   2.076   2.954   3.250
  543TCM     c1 3034   3.595   4.220   3.005
  543TCM    cl1 3035   3.462   4.251   3.121
  543TCM    cl2 3036   3.580   4.332   2.866
  543TCM     h1 3037   3.691   4.236   3.055
  543TCM    cl3 3038   3.584   4.051   2.947
  544TCM     c1 3039   2.566   0.049   0.438
  544TCM    cl1 3040   2.736   0.022   0.385
  544TCM    cl2 3041   2.495   0.182   0.342
  544TCM     h1 3042   2.508  -0.042   0.422
  544TCM    cl3 3043   2.563   0.091   0.612
  545TCM     c1 3044   1.619   3.561   4.059
  545TCM    cl1 3045   1.684   3.660   4.193
  545TCM    cl2 3046   1.556   3.406   4.124
  545TCM     h1 3047   1.538   3.615   4.009
  545TCM    cl3 3048   1.749   3.527   3.941
  546TCM     c1 3049   1.845   2.219   1.333
  546TCM    cl1 3050   1.707   2.111   1.373
  546TCM    cl2 3051   1.951   2.235   1.477
  546TCM     h1 3052   1.901   2.177   1.250
  546TCM    cl3 3053   1.782   2.381   1.287
  547TCM     c1 3054   2.772   4.901   3.611
  547TCM    cl1 3055   2.876   4.770   3.675
  547TCM    cl2 3056   2.851   5.060   3.638
  547TCM     h1 3057   2.758   4.886   3.504
  547TCM    cl3 3058   2.613   4.897   3.694
  548TCM     c1 3059   2.007   1.104   1.927
  548TCM    cl1 3060   1.988   1.240   2.043
  548TCM    cl2 3061   1.872   1.108   1.809
  548TCM     h1 3062   2.102   1.115   1.873
  548TCM    cl3 3063   2.005   0.948   2.015
  549TCM     c1 3064   1.309   2.069   2.048
  549TCM    cl1 3065   1.387   1.919   1.988
  549TCM    cl2 3066   1.280   2.053   2.224
  549TCM     h1 3067   1.373   2.155   2.029
  549TCM    cl3 3068   1.151   2.092   1.965
  550TCM     c1 3069   3.603   2.254   4.401
  550TCM    cl1 3070   3.636   2.392   4.509
  550TCM    cl2 3071   3.750   2.152   4.388
  550TCM     h1 3072   3.521   2.194   4.442
  550TCM    cl3 3073   3.557   2.314   4.239
  551TCM     c1 3074   0.680   0.468   1.958
  551TCM    cl1 3075   0.533   0.429   1.864
  551TCM    cl2 3076   0.633   0.537   2.117
  551TCM     h1 3077   0.739   0.377   1.974
  551TCM    cl3 3078   0.779   0.587   1.867
  552TCM     c1 3079   0.048   2.754   3.621
  552TCM    cl1 3080   0.152   2.877   3.700
  552TCM    cl2 3081  -0.108   2.742   3.709
  552TCM     h1 3082   0.030   2.783   3.517
  552TCM    cl3 3083   0.132   2.595   3.625
  553TCM     c1 3084   4.370   4.776   0.668
  553TCM    cl1 3085   4.253   4.799   0.802
  553TCM    cl2 3086   4.455   4.931   0.635
  553TCM     h1 3087   4.443   4.700   0.697
  553TCM    cl3 3088   4.282   4.725   0.521
  554TCM     c1 3089   0.169   4.075   0.714
  554TCM    cl1 3090   0.122   3.946   0.829
  554TCM    cl2 3091   0.029   4.115   0.610
  554TCM     h1 3092   0.200   4.164   0.770
  554TCM    cl3 3093   0.307   4.017   0.614
  555TCM     c1 3094   0.991   2.146   4.711
  555TCM    cl1 3095   0.843   2.128   4.612
  555TCM    cl2 3096   0.944   2.205   4.874
  555TCM     h1 3097   1.042   2.050   4.720
  555TCM    cl3 3098   1.101   2.265   4.634
  556TCM     c1 3099   0.365   3.971   1.093
  556TCM    cl1 3100   0.470   3.874   0.984
  556TCM    cl2 3101   0.360   4.141   1.033
  556TCM     h1 3102   0.264   3.929   1.094
  556TCM    cl3 3103   0.433   3.969   1.259
  557TCM     c1 3104   1.390   3.797   0.417
  557TCM    cl1 3105   1.357   3.649   0.513
  557TCM    cl2 3106   1.568   3.817   0.400
  557TCM     h1 3107   1.344   3.788   0.318
  557TCM    cl3 3108   1.322   3.939   0.502
  558TCM     c1 3109   3.079   1.743   2.370
  558TCM    cl1 3110   3.109   1.768   2.194
  558TCM    cl2 3111   2.940   1.632   2.391
  558TCM     h1 3112   3.168   1.700   2.416
  558TCM    cl3 3113   3.041   1.901   2.447
  559TCM     c1 3114   1.793   2.734   2.538
  559TCM    cl1 3115   1.845   2.645   2.684
  559TCM    cl2 3116   1.629   2.680   2.491
  559TCM     h1 3117   1.792   2.841   2.559
  559TCM    cl3 3118   1.907   2.700   2.403
  560TCM     c1 3119   2.988   0.041   2.120
  560TCM    cl1 3120   2.924   0.167   2.010
  560TCM    cl2 3121   2.853  -0.058   2.184
  560TCM     h1 3122   3.057  -0.024   2.064
  560TCM    cl3 3123   3.075   0.119   2.256
  561TCM     c1 3124   0.745   2.467   4.356
  561TCM    cl1 3125   0.771   2.643   4.379
  561TCM    cl2 3126   0.904   2.384   4.352
  561TCM     h1 3127   0.685   2.428   4.438
  561TCM    cl3 3128   0.660   2.439   4.200
  562TCM     c1 3129   4.391   3.807   4.858
  562TCM    cl1 3130   4.441   3.641   4.901
  562TCM    cl2 3131   4.441   3.842   4.689
  562TCM     h1 3132   4.282   3.816   4.866
  562TCM    cl3 3133   4.470   3.923   4.969
  563TCM     c1 3134   4.718   1.902   3.832
  563TCM    cl1 3135   4.895   1.873   3.828
  563TCM    cl2 3136   4.634   1.772   3.740
  563TCM     h1 3137   4.683   1.901   3.936
  563TCM    cl3 3138   4.681   2.060   3.757
  564TCM     c1 3139   4.146   2.154   2.803
  564TCM    cl1 3140   4.164   2.329   2.840
  564TCM    cl2 3141   3.972   2.109   2.810
  564TCM     h1 3142   4.185   2.133   2.703
  564TCM    cl3 3143   4.236   2.058   2.925
  565TCM     c1 3144   1.173   2.626   0.062
  565TCM    cl1 3145   1.118   2.796   0.058
  565TCM    cl2 3146   1.036   2.518   0.019
  565TCM     h1 3147   1.255   2.612  -0.010
  565TCM    cl3 3148   1.230   2.583   0.227
  566TCM     c1 3149   3.476   1.939   2.879
  566TCM    cl1 3150   3.362   1.961   2.743
  566TCM    cl2 3151   3.495   2.094   2.969
  566TCM     h1 3152   3.438   1.862   2.947
  566TCM    cl3 3153   3.635   1.888   2.814
  567TCM     c1 3154   2.630   4.865   0.962
  567TCM    cl1 3155   2.620   4.931   1.129
  567TCM    cl2 3156   2.465   4.827   0.903
  567TCM     h1 3157   2.676   4.940   0.896
  567TCM    cl3 3158   2.729   4.716   0.964
  568TCM     c1 3159   1.617   3.762   0.861
  568TCM    cl1 3160   1.771   3.763   0.954
  568TCM    cl2 3161   1.616   3.622   0.750
  568TCM     h1 3162   1.533   3.754   0.931
  568TCM    cl3 3163   1.603   3.913   0.766
  569TCM     c1 3164   4.815   2.932   4.836
  569TCM    cl1 3165   4.735   3.036   4.958
  569TCM    cl2 3166   4.779   2.760   4.872
  569TCM     h1 3167   4.779   2.958   4.736
  569TCM    cl3 3168   4.992   2.958   4.845
  570TCM     c1 3169   2.735   4.679   2.950
  570TCM    cl1 3170   2.795   4.591   3.094
  570TCM    cl2 3171   2.860   4.673   2.820
  570TCM     h1 3172   2.643   4.633   2.914
  570TCM    cl3 3173   2.705   4.850   2.996
  571TCM     c1 3174   4.529   3.831   3.542
  571TCM    cl1 3175   4.365   3.763   3.567
  571TCM    cl2 3176   4.527   3.944   3.402
  571TCM     h1 3177   4.561   3.884   3.632
  571TCM    cl3 3178   4.644   3.697   3.509
  572TCM     c1 3179   1.358   0.637   3.016
  572TCM    cl1 3180   1.500   0.528   3.038
  572TCM    cl2 3181   1.403   0.804   3.063
  572TCM     h1 3182   1.327   0.635   2.912
  572TCM    cl3 3183   1.224   0.579   3.121
  573TCM     c1 3184   3.259   2.415   4.556
  573TCM    cl1 3185   3.095   2.481   4.584
  573TCM    cl2 3186   3.247   2.270   4.451
  573TCM     h1 3187   3.321   2.491   4.508
  573TCM    cl3 3188   3.332   2.369   4.714
  574TCM     c1 3189   2.283   4.066   0.478
  574TCM    cl1 3190   2.114   4.036   0.531
  574TCM    cl2 3191   2.386   4.095   0.622
  574TCM     h1 3192   2.320   3.979   0.423
  574TCM    cl3 3193   2.286   4.210   0.372
  575TCM     c1 3194   1.896   2.692   3.569
  575TCM    cl1 3195   1.990   2.641   3.424
  575TCM    cl2 3196   1.748   2.593   3.582
  575TCM     h1 3197   1.957   2.678   3.659
  575TCM    cl3 3198   1.852   2.866   3.553
  576TCM     c1 3199   2.090   1.414   4.012
  576TCM    cl1 3200   2.263   1.390   4.054
  576TCM    cl2 3201   1.987   1.310   4.116
  576TCM     h1 3202   2.063   1.519   4.027
  576TCM    cl3 3203   2.064   1.369   3.840
  577TCM     c1 3204   0.974   0.942   2.576
  577TCM    cl1 3205   1.142   0.916   2.519
  577TCM    cl2 3206   0.865   0.951   2.434
  577TCM     h1 3207   0.944   0.860   2.641
  577TCM    cl3 3208   0.964   1.097   2.667
  578TCM     c1 3209   2.737   4.208   4.910
  578TCM    cl1 3210   2.763   4.171   5.084
  578TCM    cl2 3211   2.562   4.229   4.878
  578TCM     h1 3212   2.791   4.299   4.884
  578TCM    cl3 3213   2.799   4.070   4.814
  579TCM     c1 3214   2.139   4.405   1.616
  579TCM    cl1 3215   2.117   4.526   1.747
  579TCM    cl2 3216   1.984   4.385   1.528
  579TCM     h1 3217   2.217   4.439   1.546
  579TCM    cl3 3218   2.189   4.249   1.688
  580TCM     c1 3219   0.535   2.274   0.011
  580TCM    cl1 3220   0.541   2.171   0.158
  580TCM    cl2 3221   0.569   2.174  -0.133
  580TCM     h1 3222   0.435   2.319   0.003
  580TCM    cl3 3223   0.659   2.402   0.022
  581TCM     c1 3224   1.528   1.141   2.054
  581TCM    cl1 3225   1.391   1.047   1.987
  581TCM    cl2 3226   1.645   1.030   2.133
  581TCM     h1 3227   1.578   1.195   1.974
  581TCM    cl3 3228   1.466   1.258   2.176
  582TCM     c1 3229   0.228   3.383   3.630
  582TCM    cl1 3230   0.128   3.528   3.664
  582TCM    cl2 3231   0.317   3.406   3.476
  582TCM     h1 3232   0.299   3.368   3.712
  582TCM    cl3 3233   0.121   3.240   3.616
  583TCM     c1 3234   0.010   2.612   4.502
  583TCM    cl1 3235  -0.099   2.747   4.457
  583TCM    cl2 3236  -0.079   2.457   4.487
  583TCM     h1 3237   0.097   2.610   4.436
  583TCM    cl3 3238   0.064   2.634   4.671
  584TCM     c1 3239   0.368   0.022   3.627
  584TCM    cl1 3240   0.511  -0.023   3.726
  584TCM    cl2 3241   0.422   0.062   3.460
  584TCM     h1 3242   0.297  -0.061   3.624
  584TCM    cl3 3243   0.289   0.167   3.698
  585TCM     c1 3244   3.055   3.946   1.411
  585TCM    cl1 3245   3.195   4.059   1.406
  585TCM    cl2 3246   3.115   3.777   1.398
  585TCM     h1 3247   3.001   3.959   1.505
  585TCM    cl3 3248   2.945   3.980   1.273
  586TCM     c1 3249   4.612   4.296   3.613
  586TCM    cl1 3250   4.682   4.438   3.699
  586TCM    cl2 3251   4.677   4.146   3.686
  586TCM     h1 3252   4.503   4.298   3.622
  586TCM    cl3 3253   4.659   4.303   3.440
  587TCM     c1 3254   0.969   3.521   0.418
  587TCM    cl1 3255   1.058   3.405   0.521
  587TCM    cl2 3256   1.083   3.602   0.305
  587TCM     h1 3257   0.893   3.468   0.360
  587TCM    cl3 3258   0.889   3.645   0.521
  588TCM     c1 3259   0.147   2.182   4.783
  588TCM    cl1 3260   0.221   2.137   4.940
  588TCM    cl2 3261   0.273   2.246   4.672
  588TCM     h1 3262   0.099   2.095   4.738
  588TCM    cl3 3263   0.025   2.310   4.811
  589TCM     c1 3264   0.991   0.076   2.593
  589TCM    cl1 3265   0.833   0.078   2.679
  589TCM    cl2 3266   1.024   0.239   2.526
  589TCM     h1 3267   1.070   0.048   2.663
  589TCM    cl3 3268   0.985  -0.043   2.459
  590TCM     c1 3269   0.883   1.255   4.064
  590TCM    cl1 3270   0.931   1.318   4.225
  590TCM    cl2 3271   0.735   1.340   4.009
  590TCM     h1 3272   0.964   1.273   3.992
  590TCM    cl3 3273   0.849   1.080   4.075
  591TCM     c1 3274   3.807   2.636   4.177
  591TCM    cl1 3275   3.751   2.572   4.019
  591TCM    cl2 3276   3.897   2.507   4.265
  591TCM     h1 3277   3.873   2.721   4.161
  591TCM    cl3 3278   3.666   2.687   4.275
  592TCM     c1 3279   1.853   3.511   0.029
  592TCM    cl1 3280   1.740   3.441  -0.091
  592TCM    cl2 3281   1.802   3.678   0.070
  592TCM     h1 3282   1.853   3.449   0.120
  592TCM    cl3 3283   2.019   3.514  -0.040
  593TCM     c1 3284   1.134   0.327   0.804
  593TCM    cl1 3285   1.099   0.237   0.653
  593TCM    cl2 3286   0.982   0.402   0.864
  593TCM     h1 3287   1.172   0.257   0.880
  593TCM    cl3 3288   1.256   0.454   0.773
  594TCM     c1 3289   0.489   3.633   0.635
  594TCM    cl1 3290   0.474   3.678   0.462
  594TCM    cl2 3291   0.531   3.458   0.647
  594TCM     h1 3292   0.568   3.692   0.682
  594TCM    cl3 3293   0.333   3.661   0.719
  595TCM     c1 3294   3.053   1.402   3.175
  595TCM    cl1 3295   3.119   1.541   3.268
  595TCM    cl2 3296   3.052   1.441   3.000
  595TCM     h1 3297   3.114   1.314   3.193
  595TCM    cl3 3298   2.885   1.370   3.229
  596TCM     c1 3299   2.655   4.658   0.216
  596TCM    cl1 3300   2.516   4.771   0.220
  596TCM    cl2 3301   2.790   4.732   0.123
  596TCM     h1 3302   2.688   4.638   0.318
  596TCM    cl3 3303   2.605   4.504   0.138
  597TCM     c1 3304   3.926   3.271   3.163
  597TCM    cl1 3305   4.100   3.274   3.208
  597TCM    cl2 3306   3.910   3.236   2.988
  597TCM     h1 3307   3.876   3.192   3.220
  597TCM    cl3 3308   3.850   3.429   3.200
  598TCM     c1 3309   2.851   3.885   0.755
  598TCM    cl1 3310   2.701   3.891   0.656
  598TCM    cl2 3311   2.920   3.720   0.748
  598TCM     h1 3312   2.924   3.957   0.716
  598TCM    cl3 3313   2.812   3.927   0.925
  599TCM     c1 3314   4.475   4.355   1.150
  599TCM    cl1 3315   4.506   4.502   1.052
  599TCM    cl2 3316   4.624   4.256   1.160
  599TCM     h1 3317   4.444   4.384   1.251
  599TCM    cl3 3318   4.344   4.260   1.072
  600TCM     c1 3319   4.526   2.879   0.199
  600TCM    cl1 3320   4.397   2.774   0.268
  600TCM    cl2 3321   4.686   2.805   0.231
  600TCM     h1 3322   4.511   2.889   0.092
  600TCM    cl3 3323   4.519   3.041   0.277
  601TCM     c1 3324   2.810   1.056   2.078
  601TCM    cl1 3325   2.925   0.967   2.183
  601TCM    cl2 3326   2.682   0.942   2.024
  601TCM     h1 3327   2.765   1.138   2.134
  601TCM    cl3 3328   2.896   1.120   1.934
  602TCM     c1 3329   3.122   4.340   2.848
  602TCM    cl1 3330   3.125   4.453   2.987
  602TCM    cl2 3331   3.174   4.177   2.904
  602TCM     h1 3332   3.021   4.334   2.807
  602TCM    cl3 3333   3.235   4.398   2.721
  603TCM     c1 3334   3.483   3.555   3.560
  603TCM    cl1 3335   3.648   3.609   3.606
  603TCM    cl2 3336   3.425   3.436   3.681
  603TCM     h1 3337   3.415   3.641   3.558
  603TCM    cl3 3338   3.489   3.477   3.399
  604TCM     c1 3339   4.020   0.396   4.947
  604TCM    cl1 3340   4.174   0.394   5.039
  604TCM    cl2 3341   4.021   0.266   4.823
  604TCM     h1 3342   3.936   0.380   5.015
  604TCM    cl3 3343   4.001   0.555   4.866
  605TCM     c1 3344   2.991   3.363   3.613
  605TCM    cl1 3345   3.038   3.208   3.689
  605TCM    cl2 3346   3.109   3.405   3.485
  605TCM     h1 3347   2.891   3.354   3.569
  605TCM    cl3 3348   2.989   3.493   3.738
  606TCM     c1 3349   0.416   2.543   1.694
  606TCM    cl1 3350   0.539   2.518   1.822
  606TCM    cl2 3351   0.341   2.386   1.650
  606TCM     h1 3352   0.339   2.612   1.730
  606TCM    cl3 3353   0.496   2.614   1.550
  607TCM     c1 3354   0.045   4.142   2.737
  607TCM    cl1 3355   0.039   4.290   2.635
  607TCM    cl2 3356   0.039   4.190   2.910
  607TCM     h1 3357  -0.040   4.078   2.713
  607TCM    cl3 3358   0.198   4.055   2.702
  608TCM     c1 3359   2.176   3.516   1.277
  608TCM    cl1 3360   2.207   3.363   1.188
  608TCM    cl2 3361   2.295   3.533   1.410
  608TCM     h1 3362   2.186   3.600   1.208
  608TCM    cl3 3363   2.010   3.513   1.346
  609TCM     c1 3364   4.779   1.271   2.495
  609TCM    cl1 3365   4.816   1.392   2.368
  609TCM    cl2 3366   4.926   1.175   2.532
  609TCM     h1 3367   4.745   1.323   2.586
  609TCM    cl3 3368   4.650   1.161   2.437
  610TCM     c1 3369   4.085   3.044   3.767
  610TCM    cl1 3370   3.973   2.924   3.840
  610TCM    cl2 3371   4.249   3.022   3.835
  610TCM     h1 3372   4.088   3.030   3.659
  610TCM    cl3 3373   4.027   3.210   3.804
  611TCM     c1 3374   1.500   3.197   3.375
  611TCM    cl1 3375   1.550   3.087   3.242
  611TCM    cl2 3376   1.610   3.173   3.515
  611TCM     h1 3377   1.506   3.300   3.341
  611TCM    cl3 3378   1.332   3.158   3.423
  612TCM     c1 3379   2.358   3.448   2.739
  612TCM    cl1 3380   2.390   3.279   2.691
  612TCM    cl2 3381   2.472   3.495   2.870
  612TCM     h1 3382   2.372   3.515   2.653
  612TCM    cl3 3383   2.189   3.462   2.798
  613TCM     c1 3384   1.482   3.400   0.272
  613TCM    cl1 3385   1.324   3.315   0.272
  613TCM    cl2 3386   1.471   3.543   0.163
  613TCM     h1 3387   1.506   3.433   0.374
  613TCM    cl3 3388   1.610   3.289   0.213
  614TCM     c1 3389   4.812   0.766   2.710
  614TCM    cl1 3390   4.876   0.615   2.784
  614TCM    cl2 3391   4.893   0.795   2.553
  614TCM     h1 3392   4.705   0.756   2.695
  614TCM    cl3 3393   4.846   0.904   2.819
  615TCM     c1 3394   4.964   2.107   1.158
  615TCM    cl1 3395   4.993   2.036   0.996
  615TCM    cl2 3396   4.808   2.196   1.157
  615TCM     h1 3397   4.959   2.027   1.233
  615TCM    cl3 3398   5.096   2.221   1.199
  616TCM     c1 3399   2.987   3.824   0.239
  616TCM    cl1 3400   3.046   3.681   0.330
  616TCM    cl2 3401   3.126   3.923   0.181
  616TCM     h1 3402   2.927   3.791   0.154
  616TCM    cl3 3403   2.886   3.925   0.348
  617TCM     c1 3404   2.483   4.084   3.432
  617TCM    cl1 3405   2.585   4.138   3.570
  617TCM    cl2 3406   2.563   3.947   3.350
  617TCM     h1 3407   2.386   4.053   3.469
  617TCM    cl3 3408   2.463   4.220   3.316
  618TCM     c1 3409   1.979   4.288   2.005
  618TCM    cl1 3410   2.131   4.207   2.056
  618TCM    cl2 3411   1.975   4.454   2.073
  618TCM     h1 3412   1.974   4.293   1.896
  618TCM    cl3 3413   1.838   4.195   2.067
  619TCM     c1 3414   1.319   1.516   0.445
  619TCM    cl1 3415   1.463   1.470   0.543
  619TCM    cl2 3416   1.320   1.426   0.290
  619TCM     h1 3417   1.229   1.491   0.501
  619TCM    cl3 3418   1.323   1.692   0.412
  620TCM     c1 3419   0.408   2.772   4.400
  620TCM    cl1 3420   0.476   2.798   4.236
  620TCM    cl2 3421   0.380   2.596   4.425
  620TCM     h1 3422   0.478   2.809   4.475
  620TCM    cl3 3423   0.253   2.860   4.414
  621TCM     c1 3424   0.446   1.438   4.445
  621TCM    cl1 3425   0.575   1.452   4.321
  621TCM    cl2 3426   0.475   1.292   4.545
  621TCM     h1 3427   0.447   1.527   4.509
  621TCM    cl3 3428   0.287   1.423   4.364
  622TCM     c1 3429   0.109   2.772   0.499
  622TCM    cl1 3430   0.146   2.659   0.634
  622TCM    cl2 3431   0.012   2.686   0.375
  622TCM     h1 3432   0.051   2.856   0.538
  622TCM    cl3 3433   0.262   2.832   0.427
  623TCM     c1 3434   1.992   4.191   4.742
  623TCM    cl1 3435   2.104   4.127   4.867
  623TCM    cl2 3436   1.936   4.355   4.789
  623TCM     h1 3437   2.044   4.196   4.646
  623TCM    cl3 3438   1.850   4.082   4.728
  624TCM     c1 3439   2.373   3.182   3.215
  624TCM    cl1 3440   2.377   3.214   3.391
  624TCM    cl2 3441   2.539   3.196   3.148
  624TCM     h1 3442   2.335   3.081   3.197
  624TCM    cl3 3443   2.267   3.302   3.134
  625TCM     c1 3444   2.827   4.260   0.435
  625TCM    cl1 3445   2.889   4.211   0.596
  625TCM    cl2 3446   2.845   4.437   0.417
  625TCM     h1 3447   2.886   4.210   0.357
  625TCM    cl3 3448   2.655   4.214   0.419
  626TCM     c1 3449   3.219   4.402   0.424
  626TCM    cl1 3450   3.286   4.497   0.287
  626TCM    cl2 3451   3.345   4.383   0.551
  626TCM     h1 3452   3.133   4.454   0.466
  626TCM    cl3 3453   3.170   4.240   0.365
  627TCM     c1 3454   2.277   3.811   0.824
  627TCM    cl1 3455   2.439   3.808   0.901
  627TCM    cl2 3456   2.159   3.724   0.927
  627TCM     h1 3457   2.245   3.915   0.811
  627TCM    cl3 3458   2.287   3.731   0.663
  628TCM     c1 3459   3.977   3.653   3.452
  628TCM    cl1 3460   4.100   3.659   3.322
  628TCM    cl2 3461   3.955   3.818   3.519
  628TCM     h1 3462   3.883   3.617   3.412
  628TCM    cl3 3463   4.034   3.543   3.582
  629TCM     c1 3464   0.138   4.670   4.066
  629TCM    cl1 3465  -0.007   4.617   3.975
  629TCM    cl2 3466   0.089   4.789   4.191
  629TCM     h1 3467   0.184   4.583   4.115
  629TCM    cl3 3468   0.256   4.747   3.955
  630TCM     c1 3469   4.031   0.090   3.434
  630TCM    cl1 3470   4.072  -0.078   3.481
  630TCM    cl2 3471   3.855   0.105   3.402
  630TCM     h1 3472   4.059   0.158   3.515
  630TCM    cl3 3473   4.122   0.134   3.285
  631TCM     c1 3474   2.333   2.767   3.420
  631TCM    cl1 3475   2.457   2.843   3.314
  631TCM    cl2 3476   2.286   2.883   3.550
  631TCM     h1 3477   2.245   2.742   3.360
  631TCM    cl3 3478   2.400   2.619   3.494
  632TCM     c1 3479   4.886   4.593   2.496
  632TCM    cl1 3480   4.794   4.709   2.394
  632TCM    cl2 3481   4.806   4.579   2.656
  632TCM     h1 3482   4.888   4.495   2.447
  632TCM    cl3 3483   5.054   4.653   2.518
  633TCM     c1 3484   2.377   0.614   2.129
  633TCM    cl1 3485   2.224   0.527   2.095
  633TCM    cl2 3486   2.342   0.760   2.227
  633TCM     h1 3487   2.445   0.549   2.184
  633TCM    cl3 3488   2.453   0.664   1.974
  634TCM     c1 3489   0.156   2.291   2.784
  634TCM    cl1 3490  -0.000   2.211   2.821
  634TCM    cl2 3491   0.227   2.217   2.638
  634TCM     h1 3492   0.138   2.398   2.766
  634TCM    cl3 3493   0.268   2.272   2.923
  635TCM     c1 3494   1.115   3.931   0.902
  635TCM    cl1 3495   1.026   3.904   0.748
  635TCM    cl2 3496   1.252   3.815   0.912
  635TCM     h1 3497   1.153   4.034   0.905
  635TCM    cl3 3498   1.004   3.904   1.040
  636TCM     c1 3499   0.760   2.652   4.791
  636TCM    cl1 3500   0.854   2.804   4.780
  636TCM    cl2 3501   0.852   2.519   4.713
  636TCM     h1 3502   0.741   2.628   4.896
  636TCM    cl3 3503   0.605   2.672   4.703
  637TCM     c1 3504   0.606   0.755   0.640
  637TCM    cl1 3505   0.739   0.641   0.676
  637TCM    cl2 3506   0.502   0.775   0.785
  637TCM     h1 3507   0.647   0.852   0.611
  637TCM    cl3 3508   0.507   0.690   0.505
  638TCM     c1 3509   0.060   2.185   3.210
  638TCM    cl1 3510   0.068   2.175   3.389
  638TCM    cl2 3511  -0.028   2.335   3.164
  638TCM     h1 3512   0.161   2.188   3.169
  638TCM    cl3 3513  -0.027   2.043   3.144
  639TCM     c1 3514   2.403   0.813   3.164
  639TCM    cl1 3515   2.508   0.813   3.018
  639TCM    cl2 3516   2.481   0.912   3.293
  639TCM     h1 3517   2.306   0.856   3.140
  639TCM    cl3 3518   2.382   0.645   3.223
  640TCM     c1 3519   0.124   1.058   2.252
  640TCM    cl1 3520   0.090   1.226   2.198
  640TCM    cl2 3521   0.257   0.992   2.150
  640TCM     h1 3522   0.155   1.058   2.357
  640TCM    cl3 3523  -0.022   0.957   2.231
  641TCM     c1 3524   3.891   0.437   4.446
  641TCM    cl1 3525   4.059   0.456   4.506
  641TCM    cl2 3526   3.779   0.414   4.584
  641TCM     h1 3527   3.862   0.527   4.390
  641TCM    cl3 3528   3.882   0.294   4.338
  642TCM     c1 3529   4.826   0.694   4.730
  642TCM    cl1 3530   4.803   0.559   4.846
  642TCM    cl2 3531   4.992   0.758   4.750
  642TCM     h1 3532   4.812   0.659   4.628
  642TCM    cl3 3533   4.707   0.824   4.765
  643TCM     c1 3534   0.144   3.487   4.528
  643TCM    cl1 3535  -0.031   3.485   4.487
  643TCM    cl2 3536   0.169   3.594   4.669
  643TCM     h1 3537   0.177   3.386   4.552
  643TCM    cl3 3538   0.237   3.549   4.388
  644TCM     c1 3539   1.771   1.147   3.829
  644TCM    cl1 3540   1.663   1.164   3.972
  644TCM    cl2 3541   1.680   1.073   3.694
  644TCM     h1 3542   1.808   1.245   3.799
  644TCM    cl3 3543   1.910   1.041   3.871
   5.00000   5.00000   5.00000
