;
;   File mom_octamer_system_openff_hmr.top  was generated
;   By user: tlf3 (1000)
;   On host:647TRCJM3 
;   At date:Tue. January  2 18:11:17 2026 
;
;   This is a standalone topology file
;
;   Created by:
;   ParmEd:       hmr_topology, VERSION4.3.0 
;   Executable:   hmr_topology
;   Library dir:  /home/tlf3/miniforge3/envs/terphenyl/share/gromacs/top
;   Command line:
;     hmr_topology -t mom_octamer_system_openff.top -o mom_octamer_system_openff_hmr.top --hmr_ratio 3
;

[ defaults ]
; nbfunc        comb-rule       gen-pairs       fudgeLJ fudgeQQ
1               2               yes             0.5          0.833333    

[ atomtypes ]
; name    at.num    mass    charge ptype  sigma      epsilon
em_helix_mom_octamer_0        6  12.010780  0.00000000  A     0.33996695      0.4577296
em_helix_mom_octamer_1        8  15.999430  0.00000000  A     0.30251065     0.70485815
em_helix_mom_octamer_2        6  12.010780  0.00000000  A     0.34806469     0.36350306
em_helix_mom_octamer_3        6  12.010780  0.00000000  A     0.34806469     0.36350306
em_helix_mom_octamer_4        6  12.010780  0.00000000  A     0.34806469     0.36350306
em_helix_mom_octamer_5        6  12.010780  0.00000000  A     0.34806469     0.36350306
em_helix_mom_octamer_6        6  12.010780  0.00000000  A     0.34806469     0.36350306
em_helix_mom_octamer_7        6  12.010780  0.00000000  A     0.34806469     0.36350306
em_helix_mom_octamer_8        6  12.010780  0.00000000  A     0.34806469     0.36350306
em_helix_mom_octamer_9        6  12.010780  0.00000000  A     0.34806469     0.36350306
em_helix_mom_octamer_10        8  15.999430  0.00000000  A     0.30398122     0.87950233
em_helix_mom_octamer_11        6  12.010780  0.00000000  A     0.34806469     0.36350306
em_helix_mom_octamer_12        6  12.010780  0.00000000  A     0.34806469     0.36350306
em_helix_mom_octamer_13        6  12.010780  0.00000000  A     0.34806469     0.36350306
em_helix_mom_octamer_14        6  12.010780  0.00000000  A     0.34806469     0.36350306
em_helix_mom_octamer_15        6  12.010780  0.00000000  A     0.34806469     0.36350306
em_helix_mom_octamer_16        6  12.010780  0.00000000  A     0.34806469     0.36350306
em_helix_mom_octamer_17        6  12.010780  0.00000000  A     0.34806469     0.36350306
em_helix_mom_octamer_18        6  12.010780  0.00000000  A     0.33996695      0.4577296
em_helix_mom_octamer_19        6  12.010780  0.00000000  A     0.33996695      0.4577296
em_helix_mom_octamer_20        7  14.006720  0.00000000  A      0.3206876      0.7016213
em_helix_mom_octamer_21        6  12.010780  0.00000000  A     0.34806469     0.36350306
em_helix_mom_octamer_22        6  12.010780  0.00000000  A     0.34806469     0.36350306
em_helix_mom_octamer_23        6  12.010780  0.00000000  A     0.34806469     0.36350306
em_helix_mom_octamer_24        6  12.010780  0.00000000  A     0.34806469     0.36350306
em_helix_mom_octamer_25        1   1.007947  0.00000000  A     0.25832257    0.068656285
em_helix_mom_octamer_26        1   1.007947  0.00000000  A     0.25832257    0.068656285
em_helix_mom_octamer_27        1   1.007947  0.00000000  A     0.25832257    0.068656285
em_helix_mom_octamer_28        1   1.007947  0.00000000  A     0.25725815     0.06531786
em_helix_mom_octamer_29        1   1.007947  0.00000000  A     0.25725815     0.06531786
em_helix_mom_octamer_30        1   1.007947  0.00000000  A     0.25725815     0.06531786
em_helix_mom_octamer_31        1   1.007947  0.00000000  A     0.25725815     0.06531786
em_helix_mom_octamer_32        1   1.007947  0.00000000  A     0.25725815     0.06531786
em_helix_mom_octamer_33        1   1.007947  0.00000000  A     0.25725815     0.06531786
em_helix_mom_octamer_34        1   1.007947  0.00000000  A     0.25725815     0.06531786
em_helix_mom_octamer_35        1   1.007947  0.00000000  A     0.25832257    0.068656285
em_helix_mom_octamer_36        1   1.007947  0.00000000  A     0.26445434    0.066021356
em_helix_mom_octamer_37        1   1.007947  0.00000000  A     0.26445434    0.066021356
em_helix_mom_octamer_38        1   1.007947  0.00000000  A     0.26445434    0.066021356
em_helix_mom_octamer_39        1   1.007947  0.00000000  A     0.11034277    0.058955969
em_helix_mom_octamer_40        1   1.007947  0.00000000  A     0.25725815     0.06531786
em_helix_mom_octamer_41        1   1.007947  0.00000000  A     0.25725815     0.06531786
em_helix_mom_octamer_42        1   1.007947  0.00000000  A     0.25725815     0.06531786
em_helix_mom_octamer_43        1   1.007947  0.00000000  A     0.25725815     0.06531786
em_helix_mom_octamer_44        6  12.010780  0.00000000  A     0.33996695      0.4577296
em_helix_mom_octamer_45        8  15.999430  0.00000000  A     0.30251065     0.70485815
em_helix_mom_octamer_46        6  12.010780  0.00000000  A     0.34806469     0.36350306
em_helix_mom_octamer_47        6  12.010780  0.00000000  A     0.34806469     0.36350306
em_helix_mom_octamer_48        6  12.010780  0.00000000  A     0.34806469     0.36350306
em_helix_mom_octamer_49        6  12.010780  0.00000000  A     0.34806469     0.36350306
em_helix_mom_octamer_50        6  12.010780  0.00000000  A     0.34806469     0.36350306
em_helix_mom_octamer_51        6  12.010780  0.00000000  A     0.34806469     0.36350306
em_helix_mom_octamer_52        6  12.010780  0.00000000  A     0.34806469     0.36350306
em_helix_mom_octamer_53        6  12.010780  0.00000000  A     0.34806469     0.36350306
em_helix_mom_octamer_54        8  15.999430  0.00000000  A     0.30398122     0.87950233
em_helix_mom_octamer_55        6  12.010780  0.00000000  A     0.34806469     0.36350306
em_helix_mom_octamer_56        6  12.010780  0.00000000  A     0.34806469     0.36350306
em_helix_mom_octamer_57        6  12.010780  0.00000000  A     0.34806469     0.36350306
em_helix_mom_octamer_58        6  12.010780  0.00000000  A     0.34806469     0.36350306
em_helix_mom_octamer_59        6  12.010780  0.00000000  A     0.34806469     0.36350306
em_helix_mom_octamer_60        6  12.010780  0.00000000  A     0.34806469     0.36350306
em_helix_mom_octamer_61        6  12.010780  0.00000000  A     0.34806469     0.36350306
em_helix_mom_octamer_62        6  12.010780  0.00000000  A     0.33996695      0.4577296
em_helix_mom_octamer_63        6  12.010780  0.00000000  A     0.33996695      0.4577296
em_helix_mom_octamer_64        7  14.006720  0.00000000  A      0.3206876      0.7016213
em_helix_mom_octamer_65        6  12.010780  0.00000000  A     0.34806469     0.36350306
em_helix_mom_octamer_66        6  12.010780  0.00000000  A     0.34806469     0.36350306
em_helix_mom_octamer_67        6  12.010780  0.00000000  A     0.34806469     0.36350306
em_helix_mom_octamer_68        6  12.010780  0.00000000  A     0.34806469     0.36350306
em_helix_mom_octamer_69        1   1.007947  0.00000000  A     0.25832257    0.068656285
em_helix_mom_octamer_70        1   1.007947  0.00000000  A     0.25832257    0.068656285
em_helix_mom_octamer_71        1   1.007947  0.00000000  A     0.25832257    0.068656285
em_helix_mom_octamer_72        1   1.007947  0.00000000  A     0.25725815     0.06531786
em_helix_mom_octamer_73        1   1.007947  0.00000000  A     0.25725815     0.06531786
em_helix_mom_octamer_74        1   1.007947  0.00000000  A     0.25725815     0.06531786
em_helix_mom_octamer_75        1   1.007947  0.00000000  A     0.25725815     0.06531786
em_helix_mom_octamer_76        1   1.007947  0.00000000  A     0.25725815     0.06531786
em_helix_mom_octamer_77        1   1.007947  0.00000000  A     0.25725815     0.06531786
em_helix_mom_octamer_78        1   1.007947  0.00000000  A     0.25725815     0.06531786
em_helix_mom_octamer_79        1   1.007947  0.00000000  A     0.25832257    0.068656285
em_helix_mom_octamer_80        1   1.007947  0.00000000  A     0.26445434    0.066021356
em_helix_mom_octamer_81        1   1.007947  0.00000000  A     0.26445434    0.066021356
em_helix_mom_octamer_82        1   1.007947  0.00000000  A     0.26445434    0.066021356
em_helix_mom_octamer_83        1   1.007947  0.00000000  A     0.11034277    0.058955969
em_helix_mom_octamer_84        1   1.007947  0.00000000  A     0.25725815     0.06531786
em_helix_mom_octamer_85        1   1.007947  0.00000000  A     0.25725815     0.06531786
em_helix_mom_octamer_86        1   1.007947  0.00000000  A     0.25725815     0.06531786
em_helix_mom_octamer_87        1   1.007947  0.00000000  A     0.25725815     0.06531786
em_helix_mom_octamer_88        6  12.010780  0.00000000  A     0.33996695      0.4577296
em_helix_mom_octamer_89        8  15.999430  0.00000000  A     0.30251065     0.70485815
em_helix_mom_octamer_90        6  12.010780  0.00000000  A     0.34806469     0.36350306
em_helix_mom_octamer_91        6  12.010780  0.00000000  A     0.34806469     0.36350306
em_helix_mom_octamer_92        6  12.010780  0.00000000  A     0.34806469     0.36350306
em_helix_mom_octamer_93        6  12.010780  0.00000000  A     0.34806469     0.36350306
em_helix_mom_octamer_94        6  12.010780  0.00000000  A     0.34806469     0.36350306
em_helix_mom_octamer_95        6  12.010780  0.00000000  A     0.34806469     0.36350306
em_helix_mom_octamer_96        6  12.010780  0.00000000  A     0.34806469     0.36350306
em_helix_mom_octamer_97        6  12.010780  0.00000000  A     0.34806469     0.36350306
em_helix_mom_octamer_98        8  15.999430  0.00000000  A     0.30398122     0.87950233
em_helix_mom_octamer_99        6  12.010780  0.00000000  A     0.34806469     0.36350306
em_helix_mom_octamer_100        6  12.010780  0.00000000  A     0.34806469     0.36350306
em_helix_mom_octamer_101        6  12.010780  0.00000000  A     0.34806469     0.36350306
em_helix_mom_octamer_102        6  12.010780  0.00000000  A     0.34806469     0.36350306
em_helix_mom_octamer_103        6  12.010780  0.00000000  A     0.34806469     0.36350306
em_helix_mom_octamer_104        6  12.010780  0.00000000  A     0.34806469     0.36350306
em_helix_mom_octamer_105        6  12.010780  0.00000000  A     0.34806469     0.36350306
em_helix_mom_octamer_106        6  12.010780  0.00000000  A     0.33996695      0.4577296
em_helix_mom_octamer_107        6  12.010780  0.00000000  A     0.33996695      0.4577296
em_helix_mom_octamer_108        7  14.006720  0.00000000  A      0.3206876      0.7016213
em_helix_mom_octamer_109        6  12.010780  0.00000000  A     0.34806469     0.36350306
em_helix_mom_octamer_110        6  12.010780  0.00000000  A     0.34806469     0.36350306
em_helix_mom_octamer_111        6  12.010780  0.00000000  A     0.34806469     0.36350306
em_helix_mom_octamer_112        6  12.010780  0.00000000  A     0.34806469     0.36350306
em_helix_mom_octamer_113        1   1.007947  0.00000000  A     0.25832257    0.068656285
em_helix_mom_octamer_114        1   1.007947  0.00000000  A     0.25832257    0.068656285
em_helix_mom_octamer_115        1   1.007947  0.00000000  A     0.25832257    0.068656285
em_helix_mom_octamer_116        1   1.007947  0.00000000  A     0.25725815     0.06531786
em_helix_mom_octamer_117        1   1.007947  0.00000000  A     0.25725815     0.06531786
em_helix_mom_octamer_118        1   1.007947  0.00000000  A     0.25725815     0.06531786
em_helix_mom_octamer_119        1   1.007947  0.00000000  A     0.25725815     0.06531786
em_helix_mom_octamer_120        1   1.007947  0.00000000  A     0.25725815     0.06531786
em_helix_mom_octamer_121        1   1.007947  0.00000000  A     0.25725815     0.06531786
em_helix_mom_octamer_122        1   1.007947  0.00000000  A     0.25725815     0.06531786
em_helix_mom_octamer_123        1   1.007947  0.00000000  A     0.25832257    0.068656285
em_helix_mom_octamer_124        1   1.007947  0.00000000  A     0.26445434    0.066021356
em_helix_mom_octamer_125        1   1.007947  0.00000000  A     0.26445434    0.066021356
em_helix_mom_octamer_126        1   1.007947  0.00000000  A     0.26445434    0.066021356
em_helix_mom_octamer_127        1   1.007947  0.00000000  A     0.11034277    0.058955969
em_helix_mom_octamer_128        1   1.007947  0.00000000  A     0.25725815     0.06531786
em_helix_mom_octamer_129        1   1.007947  0.00000000  A     0.25725815     0.06531786
em_helix_mom_octamer_130        1   1.007947  0.00000000  A     0.25725815     0.06531786
em_helix_mom_octamer_131        1   1.007947  0.00000000  A     0.25725815     0.06531786
em_helix_mom_octamer_132        6  12.010780  0.00000000  A     0.33996695      0.4577296
em_helix_mom_octamer_133        8  15.999430  0.00000000  A     0.30251065     0.70485815
em_helix_mom_octamer_134        6  12.010780  0.00000000  A     0.34806469     0.36350306
em_helix_mom_octamer_135        6  12.010780  0.00000000  A     0.34806469     0.36350306
em_helix_mom_octamer_136        6  12.010780  0.00000000  A     0.34806469     0.36350306
em_helix_mom_octamer_137        6  12.010780  0.00000000  A     0.34806469     0.36350306
em_helix_mom_octamer_138        6  12.010780  0.00000000  A     0.34806469     0.36350306
em_helix_mom_octamer_139        6  12.010780  0.00000000  A     0.34806469     0.36350306
em_helix_mom_octamer_140        6  12.010780  0.00000000  A     0.34806469     0.36350306
em_helix_mom_octamer_141        6  12.010780  0.00000000  A     0.34806469     0.36350306
em_helix_mom_octamer_142        8  15.999430  0.00000000  A     0.30398122     0.87950233
em_helix_mom_octamer_143        6  12.010780  0.00000000  A     0.34806469     0.36350306
em_helix_mom_octamer_144        6  12.010780  0.00000000  A     0.34806469     0.36350306
em_helix_mom_octamer_145        6  12.010780  0.00000000  A     0.34806469     0.36350306
em_helix_mom_octamer_146        6  12.010780  0.00000000  A     0.34806469     0.36350306
em_helix_mom_octamer_147        6  12.010780  0.00000000  A     0.34806469     0.36350306
em_helix_mom_octamer_148        6  12.010780  0.00000000  A     0.34806469     0.36350306
em_helix_mom_octamer_149        6  12.010780  0.00000000  A     0.34806469     0.36350306
em_helix_mom_octamer_150        6  12.010780  0.00000000  A     0.33996695      0.4577296
em_helix_mom_octamer_151        6  12.010780  0.00000000  A     0.33996695      0.4577296
em_helix_mom_octamer_152        7  14.006720  0.00000000  A      0.3206876      0.7016213
em_helix_mom_octamer_153        6  12.010780  0.00000000  A     0.34806469     0.36350306
em_helix_mom_octamer_154        6  12.010780  0.00000000  A     0.34806469     0.36350306
em_helix_mom_octamer_155        6  12.010780  0.00000000  A     0.34806469     0.36350306
em_helix_mom_octamer_156        6  12.010780  0.00000000  A     0.34806469     0.36350306
em_helix_mom_octamer_157        1   1.007947  0.00000000  A     0.25832257    0.068656285
em_helix_mom_octamer_158        1   1.007947  0.00000000  A     0.25832257    0.068656285
em_helix_mom_octamer_159        1   1.007947  0.00000000  A     0.25832257    0.068656285
em_helix_mom_octamer_160        1   1.007947  0.00000000  A     0.25725815     0.06531786
em_helix_mom_octamer_161        1   1.007947  0.00000000  A     0.25725815     0.06531786
em_helix_mom_octamer_162        1   1.007947  0.00000000  A     0.25725815     0.06531786
em_helix_mom_octamer_163        1   1.007947  0.00000000  A     0.25725815     0.06531786
em_helix_mom_octamer_164        1   1.007947  0.00000000  A     0.25725815     0.06531786
em_helix_mom_octamer_165        1   1.007947  0.00000000  A     0.25725815     0.06531786
em_helix_mom_octamer_166        1   1.007947  0.00000000  A     0.25725815     0.06531786
em_helix_mom_octamer_167        1   1.007947  0.00000000  A     0.25832257    0.068656285
em_helix_mom_octamer_168        1   1.007947  0.00000000  A     0.26445434    0.066021356
em_helix_mom_octamer_169        1   1.007947  0.00000000  A     0.26445434    0.066021356
em_helix_mom_octamer_170        1   1.007947  0.00000000  A     0.26445434    0.066021356
em_helix_mom_octamer_171        1   1.007947  0.00000000  A     0.11034277    0.058955969
em_helix_mom_octamer_172        1   1.007947  0.00000000  A     0.25725815     0.06531786
em_helix_mom_octamer_173        1   1.007947  0.00000000  A     0.25725815     0.06531786
em_helix_mom_octamer_174        1   1.007947  0.00000000  A     0.25725815     0.06531786
em_helix_mom_octamer_175        1   1.007947  0.00000000  A     0.25725815     0.06531786
em_helix_mom_octamer_176        6  12.010780  0.00000000  A     0.33996695      0.4577296
em_helix_mom_octamer_177        8  15.999430  0.00000000  A     0.30251065     0.70485815
em_helix_mom_octamer_178        6  12.010780  0.00000000  A     0.34806469     0.36350306
em_helix_mom_octamer_179        6  12.010780  0.00000000  A     0.34806469     0.36350306
em_helix_mom_octamer_180        6  12.010780  0.00000000  A     0.34806469     0.36350306
em_helix_mom_octamer_181        6  12.010780  0.00000000  A     0.34806469     0.36350306
em_helix_mom_octamer_182        6  12.010780  0.00000000  A     0.34806469     0.36350306
em_helix_mom_octamer_183        6  12.010780  0.00000000  A     0.34806469     0.36350306
em_helix_mom_octamer_184        6  12.010780  0.00000000  A     0.34806469     0.36350306
em_helix_mom_octamer_185        6  12.010780  0.00000000  A     0.34806469     0.36350306
em_helix_mom_octamer_186        8  15.999430  0.00000000  A     0.30398122     0.87950233
em_helix_mom_octamer_187        6  12.010780  0.00000000  A     0.34806469     0.36350306
em_helix_mom_octamer_188        6  12.010780  0.00000000  A     0.34806469     0.36350306
em_helix_mom_octamer_189        6  12.010780  0.00000000  A     0.34806469     0.36350306
em_helix_mom_octamer_190        6  12.010780  0.00000000  A     0.34806469     0.36350306
em_helix_mom_octamer_191        6  12.010780  0.00000000  A     0.34806469     0.36350306
em_helix_mom_octamer_192        6  12.010780  0.00000000  A     0.34806469     0.36350306
em_helix_mom_octamer_193        6  12.010780  0.00000000  A     0.34806469     0.36350306
em_helix_mom_octamer_194        6  12.010780  0.00000000  A     0.33996695      0.4577296
em_helix_mom_octamer_195        6  12.010780  0.00000000  A     0.33996695      0.4577296
em_helix_mom_octamer_196        7  14.006720  0.00000000  A      0.3206876      0.7016213
em_helix_mom_octamer_197        6  12.010780  0.00000000  A     0.34806469     0.36350306
em_helix_mom_octamer_198        6  12.010780  0.00000000  A     0.34806469     0.36350306
em_helix_mom_octamer_199        6  12.010780  0.00000000  A     0.34806469     0.36350306
em_helix_mom_octamer_200        6  12.010780  0.00000000  A     0.34806469     0.36350306
em_helix_mom_octamer_201        1   1.007947  0.00000000  A     0.25832257    0.068656285
em_helix_mom_octamer_202        1   1.007947  0.00000000  A     0.25832257    0.068656285
em_helix_mom_octamer_203        1   1.007947  0.00000000  A     0.25832257    0.068656285
em_helix_mom_octamer_204        1   1.007947  0.00000000  A     0.25725815     0.06531786
em_helix_mom_octamer_205        1   1.007947  0.00000000  A     0.25725815     0.06531786
em_helix_mom_octamer_206        1   1.007947  0.00000000  A     0.25725815     0.06531786
em_helix_mom_octamer_207        1   1.007947  0.00000000  A     0.25725815     0.06531786
em_helix_mom_octamer_208        1   1.007947  0.00000000  A     0.25725815     0.06531786
em_helix_mom_octamer_209        1   1.007947  0.00000000  A     0.25725815     0.06531786
em_helix_mom_octamer_210        1   1.007947  0.00000000  A     0.25725815     0.06531786
em_helix_mom_octamer_211        1   1.007947  0.00000000  A     0.25832257    0.068656285
em_helix_mom_octamer_212        1   1.007947  0.00000000  A     0.26445434    0.066021356
em_helix_mom_octamer_213        1   1.007947  0.00000000  A     0.26445434    0.066021356
em_helix_mom_octamer_214        1   1.007947  0.00000000  A     0.26445434    0.066021356
em_helix_mom_octamer_215        1   1.007947  0.00000000  A     0.11034277    0.058955969
em_helix_mom_octamer_216        1   1.007947  0.00000000  A     0.25725815     0.06531786
em_helix_mom_octamer_217        1   1.007947  0.00000000  A     0.25725815     0.06531786
em_helix_mom_octamer_218        1   1.007947  0.00000000  A     0.25725815     0.06531786
em_helix_mom_octamer_219        1   1.007947  0.00000000  A     0.25725815     0.06531786
em_helix_mom_octamer_220        6  12.010780  0.00000000  A     0.33996695      0.4577296
em_helix_mom_octamer_221        8  15.999430  0.00000000  A     0.30251065     0.70485815
em_helix_mom_octamer_222        6  12.010780  0.00000000  A     0.34806469     0.36350306
em_helix_mom_octamer_223        6  12.010780  0.00000000  A     0.34806469     0.36350306
em_helix_mom_octamer_224        6  12.010780  0.00000000  A     0.34806469     0.36350306
em_helix_mom_octamer_225        6  12.010780  0.00000000  A     0.34806469     0.36350306
em_helix_mom_octamer_226        6  12.010780  0.00000000  A     0.34806469     0.36350306
em_helix_mom_octamer_227        6  12.010780  0.00000000  A     0.34806469     0.36350306
em_helix_mom_octamer_228        6  12.010780  0.00000000  A     0.34806469     0.36350306
em_helix_mom_octamer_229        6  12.010780  0.00000000  A     0.34806469     0.36350306
em_helix_mom_octamer_230        8  15.999430  0.00000000  A     0.30398122     0.87950233
em_helix_mom_octamer_231        6  12.010780  0.00000000  A     0.34806469     0.36350306
em_helix_mom_octamer_232        6  12.010780  0.00000000  A     0.34806469     0.36350306
em_helix_mom_octamer_233        6  12.010780  0.00000000  A     0.34806469     0.36350306
em_helix_mom_octamer_234        6  12.010780  0.00000000  A     0.34806469     0.36350306
em_helix_mom_octamer_235        6  12.010780  0.00000000  A     0.34806469     0.36350306
em_helix_mom_octamer_236        6  12.010780  0.00000000  A     0.34806469     0.36350306
em_helix_mom_octamer_237        6  12.010780  0.00000000  A     0.34806469     0.36350306
em_helix_mom_octamer_238        6  12.010780  0.00000000  A     0.33996695      0.4577296
em_helix_mom_octamer_239        6  12.010780  0.00000000  A     0.33996695      0.4577296
em_helix_mom_octamer_240        7  14.006720  0.00000000  A      0.3206876      0.7016213
em_helix_mom_octamer_241        6  12.010780  0.00000000  A     0.34806469     0.36350306
em_helix_mom_octamer_242        6  12.010780  0.00000000  A     0.34806469     0.36350306
em_helix_mom_octamer_243        6  12.010780  0.00000000  A     0.34806469     0.36350306
em_helix_mom_octamer_244        6  12.010780  0.00000000  A     0.34806469     0.36350306
em_helix_mom_octamer_245        1   1.007947  0.00000000  A     0.25832257    0.068656285
em_helix_mom_octamer_246        1   1.007947  0.00000000  A     0.25832257    0.068656285
em_helix_mom_octamer_247        1   1.007947  0.00000000  A     0.25832257    0.068656285
em_helix_mom_octamer_248        1   1.007947  0.00000000  A     0.25725815     0.06531786
em_helix_mom_octamer_249        1   1.007947  0.00000000  A     0.25725815     0.06531786
em_helix_mom_octamer_250        1   1.007947  0.00000000  A     0.25725815     0.06531786
em_helix_mom_octamer_251        1   1.007947  0.00000000  A     0.25725815     0.06531786
em_helix_mom_octamer_252        1   1.007947  0.00000000  A     0.25725815     0.06531786
em_helix_mom_octamer_253        1   1.007947  0.00000000  A     0.25725815     0.06531786
em_helix_mom_octamer_254        1   1.007947  0.00000000  A     0.25725815     0.06531786
em_helix_mom_octamer_255        1   1.007947  0.00000000  A     0.25832257    0.068656285
em_helix_mom_octamer_256        1   1.007947  0.00000000  A     0.26445434    0.066021356
em_helix_mom_octamer_257        1   1.007947  0.00000000  A     0.26445434    0.066021356
em_helix_mom_octamer_258        1   1.007947  0.00000000  A     0.26445434    0.066021356
em_helix_mom_octamer_259        1   1.007947  0.00000000  A     0.11034277    0.058955969
em_helix_mom_octamer_260        1   1.007947  0.00000000  A     0.25725815     0.06531786
em_helix_mom_octamer_261        1   1.007947  0.00000000  A     0.25725815     0.06531786
em_helix_mom_octamer_262        1   1.007947  0.00000000  A     0.25725815     0.06531786
em_helix_mom_octamer_263        1   1.007947  0.00000000  A     0.25725815     0.06531786
em_helix_mom_octamer_264        6  12.010780  0.00000000  A     0.33996695      0.4577296
em_helix_mom_octamer_265        8  15.999430  0.00000000  A     0.30251065     0.70485815
em_helix_mom_octamer_266        6  12.010780  0.00000000  A     0.34806469     0.36350306
em_helix_mom_octamer_267        6  12.010780  0.00000000  A     0.34806469     0.36350306
em_helix_mom_octamer_268        6  12.010780  0.00000000  A     0.34806469     0.36350306
em_helix_mom_octamer_269        6  12.010780  0.00000000  A     0.34806469     0.36350306
em_helix_mom_octamer_270        6  12.010780  0.00000000  A     0.34806469     0.36350306
em_helix_mom_octamer_271        6  12.010780  0.00000000  A     0.34806469     0.36350306
em_helix_mom_octamer_272        6  12.010780  0.00000000  A     0.34806469     0.36350306
em_helix_mom_octamer_273        6  12.010780  0.00000000  A     0.34806469     0.36350306
em_helix_mom_octamer_274        8  15.999430  0.00000000  A     0.30398122     0.87950233
em_helix_mom_octamer_275        6  12.010780  0.00000000  A     0.34806469     0.36350306
em_helix_mom_octamer_276        6  12.010780  0.00000000  A     0.34806469     0.36350306
em_helix_mom_octamer_277        6  12.010780  0.00000000  A     0.34806469     0.36350306
em_helix_mom_octamer_278        6  12.010780  0.00000000  A     0.34806469     0.36350306
em_helix_mom_octamer_279        6  12.010780  0.00000000  A     0.34806469     0.36350306
em_helix_mom_octamer_280        6  12.010780  0.00000000  A     0.34806469     0.36350306
em_helix_mom_octamer_281        6  12.010780  0.00000000  A     0.34806469     0.36350306
em_helix_mom_octamer_282        6  12.010780  0.00000000  A     0.33996695      0.4577296
em_helix_mom_octamer_283        6  12.010780  0.00000000  A     0.33996695      0.4577296
em_helix_mom_octamer_284        7  14.006720  0.00000000  A      0.3206876      0.7016213
em_helix_mom_octamer_285        6  12.010780  0.00000000  A     0.34806469     0.36350306
em_helix_mom_octamer_286        6  12.010780  0.00000000  A     0.34806469     0.36350306
em_helix_mom_octamer_287        6  12.010780  0.00000000  A     0.34806469     0.36350306
em_helix_mom_octamer_288        6  12.010780  0.00000000  A     0.34806469     0.36350306
em_helix_mom_octamer_289        1   1.007947  0.00000000  A     0.25832257    0.068656285
em_helix_mom_octamer_290        1   1.007947  0.00000000  A     0.25832257    0.068656285
em_helix_mom_octamer_291        1   1.007947  0.00000000  A     0.25832257    0.068656285
em_helix_mom_octamer_292        1   1.007947  0.00000000  A     0.25725815     0.06531786
em_helix_mom_octamer_293        1   1.007947  0.00000000  A     0.25725815     0.06531786
em_helix_mom_octamer_294        1   1.007947  0.00000000  A     0.25725815     0.06531786
em_helix_mom_octamer_295        1   1.007947  0.00000000  A     0.25725815     0.06531786
em_helix_mom_octamer_296        1   1.007947  0.00000000  A     0.25725815     0.06531786
em_helix_mom_octamer_297        1   1.007947  0.00000000  A     0.25725815     0.06531786
em_helix_mom_octamer_298        1   1.007947  0.00000000  A     0.25725815     0.06531786
em_helix_mom_octamer_299        1   1.007947  0.00000000  A     0.25832257    0.068656285
em_helix_mom_octamer_300        1   1.007947  0.00000000  A     0.26445434    0.066021356
em_helix_mom_octamer_301        1   1.007947  0.00000000  A     0.26445434    0.066021356
em_helix_mom_octamer_302        1   1.007947  0.00000000  A     0.26445434    0.066021356
em_helix_mom_octamer_303        1   1.007947  0.00000000  A     0.11034277    0.058955969
em_helix_mom_octamer_304        1   1.007947  0.00000000  A     0.25725815     0.06531786
em_helix_mom_octamer_305        1   1.007947  0.00000000  A     0.25725815     0.06531786
em_helix_mom_octamer_306        1   1.007947  0.00000000  A     0.25725815     0.06531786
em_helix_mom_octamer_307        1   1.007947  0.00000000  A     0.25725815     0.06531786
em_helix_mom_octamer_308        6  12.010780  0.00000000  A     0.33996695      0.4577296
em_helix_mom_octamer_309        8  15.999430  0.00000000  A     0.30251065     0.70485815
em_helix_mom_octamer_310        6  12.010780  0.00000000  A     0.34806469     0.36350306
em_helix_mom_octamer_311        6  12.010780  0.00000000  A     0.34806469     0.36350306
em_helix_mom_octamer_312        6  12.010780  0.00000000  A     0.34806469     0.36350306
em_helix_mom_octamer_313        6  12.010780  0.00000000  A     0.34806469     0.36350306
em_helix_mom_octamer_314        6  12.010780  0.00000000  A     0.34806469     0.36350306
em_helix_mom_octamer_315        6  12.010780  0.00000000  A     0.34806469     0.36350306
em_helix_mom_octamer_316        6  12.010780  0.00000000  A     0.34806469     0.36350306
em_helix_mom_octamer_317        6  12.010780  0.00000000  A     0.34806469     0.36350306
em_helix_mom_octamer_318        8  15.999430  0.00000000  A     0.30398122     0.87950233
em_helix_mom_octamer_319        6  12.010780  0.00000000  A     0.34806469     0.36350306
em_helix_mom_octamer_320        6  12.010780  0.00000000  A     0.34806469     0.36350306
em_helix_mom_octamer_321        6  12.010780  0.00000000  A     0.34806469     0.36350306
em_helix_mom_octamer_322        6  12.010780  0.00000000  A     0.34806469     0.36350306
em_helix_mom_octamer_323        6  12.010780  0.00000000  A     0.34806469     0.36350306
em_helix_mom_octamer_324        6  12.010780  0.00000000  A     0.34806469     0.36350306
em_helix_mom_octamer_325        6  12.010780  0.00000000  A     0.34806469     0.36350306
em_helix_mom_octamer_326        6  12.010780  0.00000000  A     0.33996695      0.4577296
em_helix_mom_octamer_327        6  12.010780  0.00000000  A     0.33996695      0.4577296
em_helix_mom_octamer_328        7  14.006720  0.00000000  A      0.3206876      0.7016213
em_helix_mom_octamer_329        6  12.010780  0.00000000  A     0.34806469     0.36350306
em_helix_mom_octamer_330        6  12.010780  0.00000000  A     0.34806469     0.36350306
em_helix_mom_octamer_331        6  12.010780  0.00000000  A     0.34806469     0.36350306
em_helix_mom_octamer_332        6  12.010780  0.00000000  A     0.34806469     0.36350306
em_helix_mom_octamer_333        1   1.007947  0.00000000  A     0.25832257    0.068656285
em_helix_mom_octamer_334        1   1.007947  0.00000000  A     0.25832257    0.068656285
em_helix_mom_octamer_335        1   1.007947  0.00000000  A     0.25832257    0.068656285
em_helix_mom_octamer_336        1   1.007947  0.00000000  A     0.25725815     0.06531786
em_helix_mom_octamer_337        1   1.007947  0.00000000  A     0.25725815     0.06531786
em_helix_mom_octamer_338        1   1.007947  0.00000000  A     0.25725815     0.06531786
em_helix_mom_octamer_339        1   1.007947  0.00000000  A     0.25725815     0.06531786
em_helix_mom_octamer_340        1   1.007947  0.00000000  A     0.25725815     0.06531786
em_helix_mom_octamer_341        1   1.007947  0.00000000  A     0.25725815     0.06531786
em_helix_mom_octamer_342        1   1.007947  0.00000000  A     0.25725815     0.06531786
em_helix_mom_octamer_343        1   1.007947  0.00000000  A     0.25832257    0.068656285
em_helix_mom_octamer_344        1   1.007947  0.00000000  A     0.26445434    0.066021356
em_helix_mom_octamer_345        1   1.007947  0.00000000  A     0.26445434    0.066021356
em_helix_mom_octamer_346        1   1.007947  0.00000000  A     0.26445434    0.066021356
em_helix_mom_octamer_347        1   1.007947  0.00000000  A     0.11034277    0.058955969
em_helix_mom_octamer_348        1   1.007947  0.00000000  A     0.25725815     0.06531786
em_helix_mom_octamer_349        1   1.007947  0.00000000  A     0.25725815     0.06531786
em_helix_mom_octamer_350        1   1.007947  0.00000000  A     0.25725815     0.06531786
em_helix_mom_octamer_351        1   1.007947  0.00000000  A     0.25725815     0.06531786
em_helix_mom_octamer_352        6  12.010780  0.00000000  A     0.33996695      0.4577296
em_helix_mom_octamer_353        8  15.999430  0.00000000  A     0.30251065     0.70485815
em_helix_mom_octamer_354        1   1.007947  0.00000000  A     0.25832257    0.068656285
em_helix_mom_octamer_355        1   1.007947  0.00000000  A     0.25832257    0.068656285
em_helix_mom_octamer_356        1   1.007947  0.00000000  A     0.25832257    0.068656285
em_helix_mom_octamer_357        6  12.010780  0.00000000  A     0.33996695      0.4577296
em_helix_mom_octamer_358        6  12.010780  0.00000000  A     0.33996695      0.4577296
em_helix_mom_octamer_359        6  12.010780  0.00000000  A     0.33996695      0.4577296
em_helix_mom_octamer_360        6  12.010780  0.00000000  A     0.33996695      0.4577296
em_helix_mom_octamer_361        8  15.999430  0.00000000  A     0.30251065     0.70485815
em_helix_mom_octamer_362        6  12.010780  0.00000000  A     0.34806469     0.36350306
em_helix_mom_octamer_363        8  15.999430  0.00000000  A     0.30398122     0.87950233
em_helix_mom_octamer_364        1   1.007947  0.00000000  A     0.26445434    0.066021356
em_helix_mom_octamer_365        1   1.007947  0.00000000  A     0.26445434    0.066021356
em_helix_mom_octamer_366        1   1.007947  0.00000000  A     0.26445434    0.066021356
em_helix_mom_octamer_367        1   1.007947  0.00000000  A     0.26445434    0.066021356
em_helix_mom_octamer_368        1   1.007947  0.00000000  A     0.26445434    0.066021356
em_helix_mom_octamer_369        1   1.007947  0.00000000  A     0.26445434    0.066021356
em_helix_mom_octamer_370        1   1.007947  0.00000000  A     0.26445434    0.066021356
em_helix_mom_octamer_371        1   1.007947  0.00000000  A     0.26445434    0.066021356
em_helix_mom_octamer_372        1   1.007947  0.00000000  A     0.26445434    0.066021356
TCM_0          6  12.010780  0.00000000  A     0.33996695      0.4577296
TCM_1         17  35.453200  0.00000000  A     0.34709414        1.10876
TCM_2         17  35.453200  0.00000000  A     0.34709414        1.10876
TCM_3          1   1.007947  0.00000000  A     0.21149936      0.0656888
TCM_4         17  35.453200  0.00000000  A     0.34709414        1.10876


[ moleculetype ]
; Name            nrexcl
system1          3

[ atoms ]
;   nr       type  resnr residue  atom   cgnr    charge       mass  typeB    chargeB      massB
; residue    1 MOM rtp MOM q 0.1
    1 em_helix_mom_octamer_0      1    MOM     C1      1 0.10795000   5.963098   ; qtot 0.107950
    2 em_helix_mom_octamer_1      1    MOM     O2      2 -0.31941000  15.999430   ; qtot -0.211460
    3 em_helix_mom_octamer_2      1    MOM     C3      3 0.12038000  12.010780   ; qtot -0.091080
    4 em_helix_mom_octamer_3      1    MOM     C4      4 -0.20193000   9.994886   ; qtot -0.293010
    5 em_helix_mom_octamer_4      1    MOM     C5      5 -0.08406000   9.994886   ; qtot -0.377070
    6 em_helix_mom_octamer_5      1    MOM     C6      6 -0.06492000  12.010780   ; qtot -0.441990
    7 em_helix_mom_octamer_6      1    MOM     C7      7 -0.05030000  12.010780   ; qtot -0.492290
    8 em_helix_mom_octamer_7      1    MOM     C8      8 -0.06102000   9.994886   ; qtot -0.553310
    9 em_helix_mom_octamer_8      1    MOM     C9      9 -0.13028000  12.010780   ; qtot -0.683590
   10 em_helix_mom_octamer_9      1    MOM    C10     10 0.64630002  12.010780   ; qtot -0.037290
   11 em_helix_mom_octamer_10      1    MOM    O11     11 -0.53320003  15.999430   ; qtot -0.570490
   12 em_helix_mom_octamer_11      1    MOM    C12     12 -0.07611000   9.994886   ; qtot -0.646600
   13 em_helix_mom_octamer_12      1    MOM    C13     13 -0.14072999   9.994886   ; qtot -0.787330
   14 em_helix_mom_octamer_13      1    MOM    C14     14 -0.08493000   9.994886   ; qtot -0.872260
   15 em_helix_mom_octamer_14      1    MOM    C15     15 0.00736000  12.010780   ; qtot -0.864900
   16 em_helix_mom_octamer_15      1    MOM    C16     16 -0.04197000  12.010780   ; qtot -0.906870
   17 em_helix_mom_octamer_16      1    MOM    C17     17 -0.09536000   9.994886   ; qtot -1.002230
   18 em_helix_mom_octamer_17      1    MOM    C18     18 -0.10474000  12.010780   ; qtot -1.106970
   19 em_helix_mom_octamer_18      1    MOM    C19     19 0.14826000   9.994886   ; qtot -0.958710
   20 em_helix_mom_octamer_19      1    MOM    C20     20 -0.10809000   5.963098   ; qtot -1.066800
   21 em_helix_mom_octamer_20      1    MOM    N21     21 -0.56809002  11.990826   ; qtot -1.634890
   22 em_helix_mom_octamer_21      1    MOM    C22     22 -0.12071000   9.994886   ; qtot -1.755600
   23 em_helix_mom_octamer_22      1    MOM    C23     23 -0.12928000   9.994886   ; qtot -1.884880
   24 em_helix_mom_octamer_23      1    MOM    C24     24 -0.10684000   9.994886   ; qtot -1.991720
   25 em_helix_mom_octamer_24      1    MOM    C25     25 -0.14509000   9.994886   ; qtot -2.136810
   26 em_helix_mom_octamer_25      1    MOM    H26     26 0.04441000   3.023841   ; qtot -2.092400
   27 em_helix_mom_octamer_26      1    MOM    H27     27 0.04441000   3.023841   ; qtot -2.047990
   28 em_helix_mom_octamer_27      1    MOM    H28     28 0.04441000   3.023841   ; qtot -2.003580
   29 em_helix_mom_octamer_28      1    MOM    H29     29 0.14106999   3.023841   ; qtot -1.862510
   30 em_helix_mom_octamer_29      1    MOM    H30     30 0.14126000   3.023841   ; qtot -1.721250
   31 em_helix_mom_octamer_30      1    MOM    H31     31 0.15832999   3.023841   ; qtot -1.562920
   32 em_helix_mom_octamer_31      1    MOM    H32     32 0.14862999   3.023841   ; qtot -1.414290
   33 em_helix_mom_octamer_32      1    MOM    H33     33 0.14587000   3.023841   ; qtot -1.268420
   34 em_helix_mom_octamer_33      1    MOM    H34     34 0.14020000   3.023841   ; qtot -1.128220
   35 em_helix_mom_octamer_34      1    MOM    H35     35 0.14524999   3.023841   ; qtot -0.982970
   36 em_helix_mom_octamer_35      1    MOM    H36     36 0.09565000   3.023841   ; qtot -0.887320
   37 em_helix_mom_octamer_36      1    MOM    H37     37 0.04418000   3.023841   ; qtot -0.843140
   38 em_helix_mom_octamer_37      1    MOM    H38     38 0.04418000   3.023841   ; qtot -0.798960
   39 em_helix_mom_octamer_38      1    MOM    H39     39 0.04418000   3.023841   ; qtot -0.754780
   40 em_helix_mom_octamer_39      1    MOM    H40     40 0.30691001   3.023841   ; qtot -0.447870
   41 em_helix_mom_octamer_40      1    MOM    H41     41 0.12514000   3.023841   ; qtot -0.322730
   42 em_helix_mom_octamer_41      1    MOM    H42     42 0.13236000   3.023841   ; qtot -0.190370
   43 em_helix_mom_octamer_42      1    MOM    H43     43 0.13683000   3.023841   ; qtot -0.053540
   44 em_helix_mom_octamer_43      1    MOM    H44     44 0.15638000   3.023841   ; qtot 0.102840
; residue    2 MOM rtp MOM q 0.0
   45 em_helix_mom_octamer_44      2    MOM    C45     45 0.10951000   5.963098   ; qtot 0.212350
   46 em_helix_mom_octamer_45      2    MOM    O46     46 -0.32649001  15.999430   ; qtot -0.114140
   47 em_helix_mom_octamer_46      2    MOM    C47     47 0.12205000  12.010780   ; qtot 0.007910
   48 em_helix_mom_octamer_47      2    MOM    C48     48 -0.15144999   9.994886   ; qtot -0.143540
   49 em_helix_mom_octamer_48      2    MOM    C49     49 -0.08315000   9.994886   ; qtot -0.226690
   50 em_helix_mom_octamer_49      2    MOM    C50     50 -0.06499000  12.010780   ; qtot -0.291680
   51 em_helix_mom_octamer_50      2    MOM    C51     51 -0.04406000  12.010780   ; qtot -0.335740
   52 em_helix_mom_octamer_51      2    MOM    C52     52 -0.08763000   9.994886   ; qtot -0.423370
   53 em_helix_mom_octamer_52      2    MOM    C53     53 -0.13857000  12.010780   ; qtot -0.561940
   54 em_helix_mom_octamer_53      2    MOM    C54     54 0.68009001  12.010780   ; qtot 0.118150
   55 em_helix_mom_octamer_54      2    MOM    O55     55 -0.60670000  15.999430   ; qtot -0.488550
   56 em_helix_mom_octamer_55      2    MOM    C56     56 -0.07581000   9.994886   ; qtot -0.564360
   57 em_helix_mom_octamer_56      2    MOM    C57     57 -0.14393000   9.994886   ; qtot -0.708290
   58 em_helix_mom_octamer_57      2    MOM    C58     58 -0.09431000   9.994886   ; qtot -0.802600
   59 em_helix_mom_octamer_58      2    MOM    C59     59 0.00435000  12.010780   ; qtot -0.798250
   60 em_helix_mom_octamer_59      2    MOM    C60     60 -0.04115000  12.010780   ; qtot -0.839400
   61 em_helix_mom_octamer_60      2    MOM    C61     61 -0.11267000   9.994886   ; qtot -0.952070
   62 em_helix_mom_octamer_61      2    MOM    C62     62 -0.09776000  12.010780   ; qtot -1.049830
   63 em_helix_mom_octamer_62      2    MOM    C63     63 0.15357000   9.994886   ; qtot -0.896260
   64 em_helix_mom_octamer_63      2    MOM    C64     64 -0.11368000   5.963098   ; qtot -1.009940
   65 em_helix_mom_octamer_64      2    MOM    N65     65 -0.57007998  11.990826   ; qtot -1.580020
   66 em_helix_mom_octamer_65      2    MOM    C66     66 -0.10861000   9.994886   ; qtot -1.688630
   67 em_helix_mom_octamer_66      2    MOM    C67     67 -0.12978999   9.994886   ; qtot -1.818420
   68 em_helix_mom_octamer_67      2    MOM    C68     68 -0.10919000   9.994886   ; qtot -1.927610
   69 em_helix_mom_octamer_68      2    MOM    C69     69 -0.20155001   9.994886   ; qtot -2.129160
   70 em_helix_mom_octamer_69      2    MOM    H70     70 0.04596000   3.023841   ; qtot -2.083200
   71 em_helix_mom_octamer_70      2    MOM    H71     71 0.04596000   3.023841   ; qtot -2.037240
   72 em_helix_mom_octamer_71      2    MOM    H72     72 0.04596000   3.023841   ; qtot -1.991280
   73 em_helix_mom_octamer_72      2    MOM    H73     73 0.15389000   3.023841   ; qtot -1.837390
   74 em_helix_mom_octamer_73      2    MOM    H74     74 0.14719000   3.023841   ; qtot -1.690200
   75 em_helix_mom_octamer_74      2    MOM    H75     75 0.13926999   3.023841   ; qtot -1.550930
   76 em_helix_mom_octamer_75      2    MOM    H76     76 0.15748000   3.023841   ; qtot -1.393450
   77 em_helix_mom_octamer_76      2    MOM    H77     77 0.13792001   3.023841   ; qtot -1.255530
   78 em_helix_mom_octamer_77      2    MOM    H78     78 0.13767000   3.023841   ; qtot -1.117860
   79 em_helix_mom_octamer_78      2    MOM    H79     79 0.13223000   3.023841   ; qtot -0.985630
   80 em_helix_mom_octamer_79      2    MOM    H80     80 0.08664000   3.023841   ; qtot -0.898990
   81 em_helix_mom_octamer_80      2    MOM    H81     81 0.04495000   3.023841   ; qtot -0.854040
   82 em_helix_mom_octamer_81      2    MOM    H82     82 0.04495000   3.023841   ; qtot -0.809090
   83 em_helix_mom_octamer_82      2    MOM    H83     83 0.04495000   3.023841   ; qtot -0.764140
   84 em_helix_mom_octamer_83      2    MOM    H84     84 0.31047001   3.023841   ; qtot -0.453670
   85 em_helix_mom_octamer_84      2    MOM    H85     85 0.13965000   3.023841   ; qtot -0.314020
   86 em_helix_mom_octamer_85      2    MOM    H86     86 0.13594000   3.023841   ; qtot -0.178080
   87 em_helix_mom_octamer_86      2    MOM    H87     87 0.13778999   3.023841   ; qtot -0.040290
   88 em_helix_mom_octamer_87      2    MOM    H88     88 0.14458001   3.023841   ; qtot 0.104290
; residue    3 MOM rtp MOM q 0.0
   89 em_helix_mom_octamer_88      3    MOM    C89     89 0.11102000   5.963098   ; qtot 0.215310
   90 em_helix_mom_octamer_89      3    MOM    O90     90 -0.32339999  15.999430   ; qtot -0.108090
   91 em_helix_mom_octamer_90      3    MOM    C91     91 0.12829000  12.010780   ; qtot 0.020200
   92 em_helix_mom_octamer_91      3    MOM    C92     92 -0.15618999   9.994886   ; qtot -0.135990
   93 em_helix_mom_octamer_92      3    MOM    C93     93 -0.08956000   9.994886   ; qtot -0.225550
   94 em_helix_mom_octamer_93      3    MOM    C94     94 -0.06920000  12.010780   ; qtot -0.294750
   95 em_helix_mom_octamer_94      3    MOM    C95     95 -0.04214000  12.010780   ; qtot -0.336890
   96 em_helix_mom_octamer_95      3    MOM    C96     96 -0.09085000   9.994886   ; qtot -0.427740
   97 em_helix_mom_octamer_96      3    MOM    C97     97 -0.14387000  12.010780   ; qtot -0.571610
   98 em_helix_mom_octamer_97      3    MOM    C98     98 0.67475998  12.010780   ; qtot 0.103150
   99 em_helix_mom_octamer_98      3    MOM    O99     99 -0.60655999  15.999430   ; qtot -0.503410
  100 em_helix_mom_octamer_99      3    MOM   C100    100 -0.07543000   9.994886   ; qtot -0.578840
  101 em_helix_mom_octamer_100      3    MOM   C101    101 -0.14234000   9.994886   ; qtot -0.721180
  102 em_helix_mom_octamer_101      3    MOM   C102    102 -0.09640000   9.994886   ; qtot -0.817580
  103 em_helix_mom_octamer_102      3    MOM   C103    103 0.01909000  12.010780   ; qtot -0.798490
  104 em_helix_mom_octamer_103      3    MOM   C104    104 -0.03679000  12.010780   ; qtot -0.835280
  105 em_helix_mom_octamer_104      3    MOM   C105    105 -0.12056000   9.994886   ; qtot -0.955840
  106 em_helix_mom_octamer_105      3    MOM   C106    106 -0.10778000  12.010780   ; qtot -1.063620
  107 em_helix_mom_octamer_106      3    MOM   C107    107 0.15327001   9.994886   ; qtot -0.910350
  108 em_helix_mom_octamer_107      3    MOM   C108    108 -0.11249000   5.963098   ; qtot -1.022840
  109 em_helix_mom_octamer_108      3    MOM   N109    109 -0.56567001  11.990826   ; qtot -1.588510
  110 em_helix_mom_octamer_109      3    MOM   C110    110 -0.11217000   9.994886   ; qtot -1.700680
  111 em_helix_mom_octamer_110      3    MOM   C111    111 -0.13123000   9.994886   ; qtot -1.831910
  112 em_helix_mom_octamer_111      3    MOM   C112    112 -0.09054000   9.994886   ; qtot -1.922450
  113 em_helix_mom_octamer_112      3    MOM   C113    113 -0.18415999   9.994886   ; qtot -2.106610
  114 em_helix_mom_octamer_113      3    MOM   H114    114 0.04332000   3.023841   ; qtot -2.063290
  115 em_helix_mom_octamer_114      3    MOM   H115    115 0.04332000   3.023841   ; qtot -2.019970
  116 em_helix_mom_octamer_115      3    MOM   H116    116 0.04332000   3.023841   ; qtot -1.976650
  117 em_helix_mom_octamer_116      3    MOM   H117    117 0.15323000   3.023841   ; qtot -1.823420
  118 em_helix_mom_octamer_117      3    MOM   H118    118 0.14080000   3.023841   ; qtot -1.682620
  119 em_helix_mom_octamer_118      3    MOM   H119    119 0.14090000   3.023841   ; qtot -1.541720
  120 em_helix_mom_octamer_119      3    MOM   H120    120 0.15642001   3.023841   ; qtot -1.385300
  121 em_helix_mom_octamer_120      3    MOM   H121    121 0.13887000   3.023841   ; qtot -1.246430
  122 em_helix_mom_octamer_121      3    MOM   H122    122 0.14183000   3.023841   ; qtot -1.104600
  123 em_helix_mom_octamer_122      3    MOM   H123    123 0.12951000   3.023841   ; qtot -0.975090
  124 em_helix_mom_octamer_123      3    MOM   H124    124 0.08280000   3.023841   ; qtot -0.892290
  125 em_helix_mom_octamer_124      3    MOM   H125    125 0.04508000   3.023841   ; qtot -0.847210
  126 em_helix_mom_octamer_125      3    MOM   H126    126 0.04508000   3.023841   ; qtot -0.802130
  127 em_helix_mom_octamer_126      3    MOM   H127    127 0.04508000   3.023841   ; qtot -0.757050
  128 em_helix_mom_octamer_127      3    MOM   H128    128 0.30996999   3.023841   ; qtot -0.447080
  129 em_helix_mom_octamer_128      3    MOM   H129    129 0.13659000   3.023841   ; qtot -0.310490
  130 em_helix_mom_octamer_129      3    MOM   H130    130 0.13752000   3.023841   ; qtot -0.172970
  131 em_helix_mom_octamer_130      3    MOM   H131    131 0.14704999   3.023841   ; qtot -0.025920
  132 em_helix_mom_octamer_131      3    MOM   H132    132 0.13890000   3.023841   ; qtot 0.112980
; residue    4 MOM rtp MOM q -0.0
  133 em_helix_mom_octamer_132      4    MOM   C133    133 0.11203000   5.963098   ; qtot 0.225010
  134 em_helix_mom_octamer_133      4    MOM   O134    134 -0.32385001  15.999430   ; qtot -0.098840
  135 em_helix_mom_octamer_134      4    MOM   C135    135 0.12389000  12.010780   ; qtot 0.025050
  136 em_helix_mom_octamer_135      4    MOM   C136    136 -0.15256999   9.994886   ; qtot -0.127520
  137 em_helix_mom_octamer_136      4    MOM   C137    137 -0.08251000   9.994886   ; qtot -0.210030
  138 em_helix_mom_octamer_137      4    MOM   C138    138 -0.06531000  12.010780   ; qtot -0.275340
  139 em_helix_mom_octamer_138      4    MOM   C139    139 -0.04483000  12.010780   ; qtot -0.320170
  140 em_helix_mom_octamer_139      4    MOM   C140    140 -0.08929000   9.994886   ; qtot -0.409460
  141 em_helix_mom_octamer_140      4    MOM   C141    141 -0.13923000  12.010780   ; qtot -0.548690
  142 em_helix_mom_octamer_141      4    MOM   C142    142 0.67600000  12.010780   ; qtot 0.127310
  143 em_helix_mom_octamer_142      4    MOM   O143    143 -0.61254001  15.999430   ; qtot -0.485230
  144 em_helix_mom_octamer_143      4    MOM   C144    144 -0.07402000   9.994886   ; qtot -0.559250
  145 em_helix_mom_octamer_144      4    MOM   C145    145 -0.14127000   9.994886   ; qtot -0.700520
  146 em_helix_mom_octamer_145      4    MOM   C146    146 -0.09190000   9.994886   ; qtot -0.792420
  147 em_helix_mom_octamer_146      4    MOM   C147    147 0.00103000  12.010780   ; qtot -0.791390
  148 em_helix_mom_octamer_147      4    MOM   C148    148 -0.04053000  12.010780   ; qtot -0.831920
  149 em_helix_mom_octamer_148      4    MOM   C149    149 -0.10673000   9.994886   ; qtot -0.938650
  150 em_helix_mom_octamer_149      4    MOM   C150    150 -0.09297000  12.010780   ; qtot -1.031620
  151 em_helix_mom_octamer_150      4    MOM   C151    151 0.15067001   9.994886   ; qtot -0.880950
  152 em_helix_mom_octamer_151      4    MOM   C152    152 -0.11569000   5.963098   ; qtot -0.996640
  153 em_helix_mom_octamer_152      4    MOM   N153    153 -0.56832999  11.990826   ; qtot -1.564970
  154 em_helix_mom_octamer_153      4    MOM   C154    154 -0.12121000   9.994886   ; qtot -1.686180
  155 em_helix_mom_octamer_154      4    MOM   C155    155 -0.12712000   9.994886   ; qtot -1.813300
  156 em_helix_mom_octamer_155      4    MOM   C156    156 -0.10947000   9.994886   ; qtot -1.922770
  157 em_helix_mom_octamer_156      4    MOM   C157    157 -0.20288000   9.994886   ; qtot -2.125650
  158 em_helix_mom_octamer_157      4    MOM   H158    158 0.04487000   3.023841   ; qtot -2.080780
  159 em_helix_mom_octamer_158      4    MOM   H159    159 0.04487000   3.023841   ; qtot -2.035910
  160 em_helix_mom_octamer_159      4    MOM   H160    160 0.04487000   3.023841   ; qtot -1.991040
  161 em_helix_mom_octamer_160      4    MOM   H161    161 0.15476000   3.023841   ; qtot -1.836280
  162 em_helix_mom_octamer_161      4    MOM   H162    162 0.14815000   3.023841   ; qtot -1.688130
  163 em_helix_mom_octamer_162      4    MOM   H163    163 0.13576999   3.023841   ; qtot -1.552360
  164 em_helix_mom_octamer_163      4    MOM   H164    164 0.15719999   3.023841   ; qtot -1.395160
  165 em_helix_mom_octamer_164      4    MOM   H165    165 0.13905001   3.023841   ; qtot -1.256110
  166 em_helix_mom_octamer_165      4    MOM   H166    166 0.13823000   3.023841   ; qtot -1.117880
  167 em_helix_mom_octamer_166      4    MOM   H167    167 0.13156000   3.023841   ; qtot -0.986320
  168 em_helix_mom_octamer_167      4    MOM   H168    168 0.07722000   3.023841   ; qtot -0.909100
  169 em_helix_mom_octamer_168      4    MOM   H169    169 0.04890000   3.023841   ; qtot -0.860200
  170 em_helix_mom_octamer_169      4    MOM   H170    170 0.04890000   3.023841   ; qtot -0.811300
  171 em_helix_mom_octamer_170      4    MOM   H171    171 0.04890000   3.023841   ; qtot -0.762400
  172 em_helix_mom_octamer_171      4    MOM   H172    172 0.30957001   3.023841   ; qtot -0.452830
  173 em_helix_mom_octamer_172      4    MOM   H173    173 0.13246000   3.023841   ; qtot -0.320370
  174 em_helix_mom_octamer_173      4    MOM   H174    174 0.13675000   3.023841   ; qtot -0.183620
  175 em_helix_mom_octamer_174      4    MOM   H175    175 0.13888000   3.023841   ; qtot -0.044740
  176 em_helix_mom_octamer_175      4    MOM   H176    176 0.14312001   3.023841   ; qtot 0.098380
; residue    5 MOM rtp MOM q -0.0
  177 em_helix_mom_octamer_176      5    MOM   C177    177 0.11224000   5.963098   ; qtot 0.210620
  178 em_helix_mom_octamer_177      5    MOM   O178    178 -0.32471001  15.999430   ; qtot -0.114090
  179 em_helix_mom_octamer_178      5    MOM   C179    179 0.12429000  12.010780   ; qtot 0.010200
  180 em_helix_mom_octamer_179      5    MOM   C180    180 -0.20682999   9.994886   ; qtot -0.196630
  181 em_helix_mom_octamer_180      5    MOM   C181    181 -0.08791000   9.994886   ; qtot -0.284540
  182 em_helix_mom_octamer_181      5    MOM   C182    182 -0.06532000  12.010780   ; qtot -0.349860
  183 em_helix_mom_octamer_182      5    MOM   C183    183 -0.04749000  12.010780   ; qtot -0.397350
  184 em_helix_mom_octamer_183      5    MOM   C184    184 -0.09458000   9.994886   ; qtot -0.491930
  185 em_helix_mom_octamer_184      5    MOM   C185    185 -0.14736000  12.010780   ; qtot -0.639290
  186 em_helix_mom_octamer_185      5    MOM   C186    186 0.67047000  12.010780   ; qtot 0.031180
  187 em_helix_mom_octamer_186      5    MOM   O187    187 -0.60604000  15.999430   ; qtot -0.574860
  188 em_helix_mom_octamer_187      5    MOM   C188    188 -0.06925000   9.994886   ; qtot -0.644110
  189 em_helix_mom_octamer_188      5    MOM   C189    189 -0.13231000   9.994886   ; qtot -0.776420
  190 em_helix_mom_octamer_189      5    MOM   C190    190 -0.08582000   9.994886   ; qtot -0.862240
  191 em_helix_mom_octamer_190      5    MOM   C191    191 0.00730000  12.010780   ; qtot -0.854940
  192 em_helix_mom_octamer_191      5    MOM   C192    192 -0.04184000  12.010780   ; qtot -0.896780
  193 em_helix_mom_octamer_192      5    MOM   C193    193 -0.10467000   9.994886   ; qtot -1.001450
  194 em_helix_mom_octamer_193      5    MOM   C194    194 -0.09911000  12.010780   ; qtot -1.100560
  195 em_helix_mom_octamer_194      5    MOM   C195    195 0.14572001   9.994886   ; qtot -0.954840
  196 em_helix_mom_octamer_195      5    MOM   C196    196 -0.10110000   5.963098   ; qtot -1.055940
  197 em_helix_mom_octamer_196      5    MOM   N197    197 -0.56515002  11.990826   ; qtot -1.621090
  198 em_helix_mom_octamer_197      5    MOM   C198    198 -0.11074000   9.994886   ; qtot -1.731830
  199 em_helix_mom_octamer_198      5    MOM   C199    199 -0.13070001   9.994886   ; qtot -1.862530
  200 em_helix_mom_octamer_199      5    MOM   C200    200 -0.11550000   9.994886   ; qtot -1.978030
  201 em_helix_mom_octamer_200      5    MOM   C201    201 -0.14745000   9.994886   ; qtot -2.125480
  202 em_helix_mom_octamer_201      5    MOM   H202    202 0.04559000   3.023841   ; qtot -2.079890
  203 em_helix_mom_octamer_202      5    MOM   H203    203 0.04559000   3.023841   ; qtot -2.034300
  204 em_helix_mom_octamer_203      5    MOM   H204    204 0.04559000   3.023841   ; qtot -1.988710
  205 em_helix_mom_octamer_204      5    MOM   H205    205 0.13959000   3.023841   ; qtot -1.849120
  206 em_helix_mom_octamer_205      5    MOM   H206    206 0.13835000   3.023841   ; qtot -1.710770
  207 em_helix_mom_octamer_206      5    MOM   H207    207 0.13642000   3.023841   ; qtot -1.574350
  208 em_helix_mom_octamer_207      5    MOM   H208    208 0.15470000   3.023841   ; qtot -1.419650
  209 em_helix_mom_octamer_208      5    MOM   H209    209 0.14267001   3.023841   ; qtot -1.276980
  210 em_helix_mom_octamer_209      5    MOM   H210    210 0.14532000   3.023841   ; qtot -1.131660
  211 em_helix_mom_octamer_210      5    MOM   H211    211 0.13224000   3.023841   ; qtot -0.999420
  212 em_helix_mom_octamer_211      5    MOM   H212    212 0.09139000   3.023841   ; qtot -0.908030
  213 em_helix_mom_octamer_212      5    MOM   H213    213 0.04481000   3.023841   ; qtot -0.863220
  214 em_helix_mom_octamer_213      5    MOM   H214    214 0.04481000   3.023841   ; qtot -0.818410
  215 em_helix_mom_octamer_214      5    MOM   H215    215 0.04481000   3.023841   ; qtot -0.773600
  216 em_helix_mom_octamer_215      5    MOM   H216    216 0.30397999   3.023841   ; qtot -0.469620
  217 em_helix_mom_octamer_216      5    MOM   H217    217 0.13710000   3.023841   ; qtot -0.332520
  218 em_helix_mom_octamer_217      5    MOM   H218    218 0.13160001   3.023841   ; qtot -0.200920
  219 em_helix_mom_octamer_218      5    MOM   H219    219 0.13089000   3.023841   ; qtot -0.070030
  220 em_helix_mom_octamer_219      5    MOM   H220    220 0.15740000   3.023841   ; qtot 0.087370
; residue    6 MOM rtp MOM q 0.0
  221 em_helix_mom_octamer_220      6    MOM   C221    221 0.11200000   5.963098   ; qtot 0.199370
  222 em_helix_mom_octamer_221      6    MOM   O222    222 -0.32661000  15.999430   ; qtot -0.127240
  223 em_helix_mom_octamer_222      6    MOM   C223    223 0.12384000  12.010780   ; qtot -0.003400
  224 em_helix_mom_octamer_223      6    MOM   C224    224 -0.20406000   9.994886   ; qtot -0.207460
  225 em_helix_mom_octamer_224      6    MOM   C225    225 -0.08251000   9.994886   ; qtot -0.289970
  226 em_helix_mom_octamer_225      6    MOM   C226    226 -0.06835000  12.010780   ; qtot -0.358320
  227 em_helix_mom_octamer_226      6    MOM   C227    227 -0.04522000  12.010780   ; qtot -0.403540
  228 em_helix_mom_octamer_227      6    MOM   C228    228 -0.09187000   9.994886   ; qtot -0.495410
  229 em_helix_mom_octamer_228      6    MOM   C229    229 -0.14717001  12.010780   ; qtot -0.642580
  230 em_helix_mom_octamer_229      6    MOM   C230    230 0.67615002  12.010780   ; qtot 0.033570
  231 em_helix_mom_octamer_230      6    MOM   O231    231 -0.59913999  15.999430   ; qtot -0.565570
  232 em_helix_mom_octamer_231      6    MOM   C232    232 -0.07946000   9.994886   ; qtot -0.645030
  233 em_helix_mom_octamer_232      6    MOM   C233    233 -0.13435000   9.994886   ; qtot -0.779380
  234 em_helix_mom_octamer_233      6    MOM   C234    234 -0.07658000   9.994886   ; qtot -0.855960
  235 em_helix_mom_octamer_234      6    MOM   C235    235 0.00504000  12.010780   ; qtot -0.850920
  236 em_helix_mom_octamer_235      6    MOM   C236    236 -0.04238000  12.010780   ; qtot -0.893300
  237 em_helix_mom_octamer_236      6    MOM   C237    237 -0.09203000   9.994886   ; qtot -0.985330
  238 em_helix_mom_octamer_237      6    MOM   C238    238 -0.10803000  12.010780   ; qtot -1.093360
  239 em_helix_mom_octamer_238      6    MOM   C239    239 0.15187000   9.994886   ; qtot -0.941490
  240 em_helix_mom_octamer_239      6    MOM   C240    240 -0.10420000   5.963098   ; qtot -1.045690
  241 em_helix_mom_octamer_240      6    MOM   N241    241 -0.56215000  11.990826   ; qtot -1.607840
  242 em_helix_mom_octamer_241      6    MOM   C242    242 -0.11873000   9.994886   ; qtot -1.726570
  243 em_helix_mom_octamer_242      6    MOM   C243    243 -0.13613001   9.994886   ; qtot -1.862700
  244 em_helix_mom_octamer_243      6    MOM   C244    244 -0.11494000   9.994886   ; qtot -1.977640
  245 em_helix_mom_octamer_244      6    MOM   C245    245 -0.14695001   9.994886   ; qtot -2.124590
  246 em_helix_mom_octamer_245      6    MOM   H246    246 0.04529000   3.023841   ; qtot -2.079300
  247 em_helix_mom_octamer_246      6    MOM   H247    247 0.04529000   3.023841   ; qtot -2.034010
  248 em_helix_mom_octamer_247      6    MOM   H248    248 0.04529000   3.023841   ; qtot -1.988720
  249 em_helix_mom_octamer_248      6    MOM   H249    249 0.14077000   3.023841   ; qtot -1.847950
  250 em_helix_mom_octamer_249      6    MOM   H250    250 0.14588000   3.023841   ; qtot -1.702070
  251 em_helix_mom_octamer_250      6    MOM   H251    251 0.13722999   3.023841   ; qtot -1.564840
  252 em_helix_mom_octamer_251      6    MOM   H252    252 0.15116000   3.023841   ; qtot -1.413680
  253 em_helix_mom_octamer_252      6    MOM   H253    253 0.13744000   3.023841   ; qtot -1.276240
  254 em_helix_mom_octamer_253      6    MOM   H254    254 0.14673001   3.023841   ; qtot -1.129510
  255 em_helix_mom_octamer_254      6    MOM   H255    255 0.14679000   3.023841   ; qtot -0.982720
  256 em_helix_mom_octamer_255      6    MOM   H256    256 0.09004000   3.023841   ; qtot -0.892680
  257 em_helix_mom_octamer_256      6    MOM   H257    257 0.04548000   3.023841   ; qtot -0.847200
  258 em_helix_mom_octamer_257      6    MOM   H258    258 0.04548000   3.023841   ; qtot -0.801720
  259 em_helix_mom_octamer_258      6    MOM   H259    259 0.04548000   3.023841   ; qtot -0.756240
  260 em_helix_mom_octamer_259      6    MOM   H260    260 0.30609000   3.023841   ; qtot -0.450150
  261 em_helix_mom_octamer_260      6    MOM   H261    261 0.12725000   3.023841   ; qtot -0.322900
  262 em_helix_mom_octamer_261      6    MOM   H262    262 0.13397001   3.023841   ; qtot -0.188930
  263 em_helix_mom_octamer_262      6    MOM   H263    263 0.13170999   3.023841   ; qtot -0.057220
  264 em_helix_mom_octamer_263      6    MOM   H264    264 0.15539999   3.023841   ; qtot 0.098180
; residue    7 MOM rtp MOM q -0.0
  265 em_helix_mom_octamer_264      7    MOM   C265    265 0.11361000   5.963098   ; qtot 0.211790
  266 em_helix_mom_octamer_265      7    MOM   O266    266 -0.32471001  15.999430   ; qtot -0.112920
  267 em_helix_mom_octamer_266      7    MOM   C267    267 0.12676001  12.010780   ; qtot 0.013840
  268 em_helix_mom_octamer_267      7    MOM   C268    268 -0.19484000   9.994886   ; qtot -0.181000
  269 em_helix_mom_octamer_268      7    MOM   C269    269 -0.08057000   9.994886   ; qtot -0.261570
  270 em_helix_mom_octamer_269      7    MOM   C270    270 -0.06532000  12.010780   ; qtot -0.326890
  271 em_helix_mom_octamer_270      7    MOM   C271    271 -0.04424000  12.010780   ; qtot -0.371130
  272 em_helix_mom_octamer_271      7    MOM   C272    272 -0.08589000   9.994886   ; qtot -0.457020
  273 em_helix_mom_octamer_272      7    MOM   C273    273 -0.13653000  12.010780   ; qtot -0.593550
  274 em_helix_mom_octamer_273      7    MOM   C274    274 0.68668997  12.010780   ; qtot 0.093140
  275 em_helix_mom_octamer_274      7    MOM   O275    275 -0.60947001  15.999430   ; qtot -0.516330
  276 em_helix_mom_octamer_275      7    MOM   C276    276 -0.08282000   9.994886   ; qtot -0.599150
  277 em_helix_mom_octamer_276      7    MOM   C277    277 -0.14794999   9.994886   ; qtot -0.747100
  278 em_helix_mom_octamer_277      7    MOM   C278    278 -0.08611000   9.994886   ; qtot -0.833210
  279 em_helix_mom_octamer_278      7    MOM   C279    279 0.00471000  12.010780   ; qtot -0.828500
  280 em_helix_mom_octamer_279      7    MOM   C280    280 -0.04307000  12.010780   ; qtot -0.871570
  281 em_helix_mom_octamer_280      7    MOM   C281    281 -0.09073000   9.994886   ; qtot -0.962300
  282 em_helix_mom_octamer_281      7    MOM   C282    282 -0.10979000  12.010780   ; qtot -1.072090
  283 em_helix_mom_octamer_282      7    MOM   C283    283 0.14954001   9.994886   ; qtot -0.922550
  284 em_helix_mom_octamer_283      7    MOM   C284    284 -0.10244000   5.963098   ; qtot -1.024990
  285 em_helix_mom_octamer_284      7    MOM   N285    285 -0.56528997  11.990826   ; qtot -1.590280
  286 em_helix_mom_octamer_285      7    MOM   C286    286 -0.11737000   9.994886   ; qtot -1.707650
  287 em_helix_mom_octamer_286      7    MOM   C287    287 -0.13328999   9.994886   ; qtot -1.840940
  288 em_helix_mom_octamer_287      7    MOM   C288    288 -0.10783000   9.994886   ; qtot -1.948770
  289 em_helix_mom_octamer_288      7    MOM   C289    289 -0.14632000   9.994886   ; qtot -2.095090
  290 em_helix_mom_octamer_289      7    MOM   H290    290 0.04266000   3.023841   ; qtot -2.052430
  291 em_helix_mom_octamer_290      7    MOM   H291    291 0.04266000   3.023841   ; qtot -2.009770
  292 em_helix_mom_octamer_291      7    MOM   H292    292 0.04266000   3.023841   ; qtot -1.967110
  293 em_helix_mom_octamer_292      7    MOM   H293    293 0.13375001   3.023841   ; qtot -1.833360
  294 em_helix_mom_octamer_293      7    MOM   H294    294 0.13928001   3.023841   ; qtot -1.694080
  295 em_helix_mom_octamer_294      7    MOM   H295    295 0.14286000   3.023841   ; qtot -1.551220
  296 em_helix_mom_octamer_295      7    MOM   H296    296 0.14967000   3.023841   ; qtot -1.401550
  297 em_helix_mom_octamer_296      7    MOM   H297    297 0.13365000   3.023841   ; qtot -1.267900
  298 em_helix_mom_octamer_297      7    MOM   H298    298 0.14535999   3.023841   ; qtot -1.122540
  299 em_helix_mom_octamer_298      7    MOM   H299    299 0.14435001   3.023841   ; qtot -0.978190
  300 em_helix_mom_octamer_299      7    MOM   H300    300 0.08526000   3.023841   ; qtot -0.892930
  301 em_helix_mom_octamer_300      7    MOM   H301    301 0.04451000   3.023841   ; qtot -0.848420
  302 em_helix_mom_octamer_301      7    MOM   H302    302 0.04451000   3.023841   ; qtot -0.803910
  303 em_helix_mom_octamer_302      7    MOM   H303    303 0.04451000   3.023841   ; qtot -0.759400
  304 em_helix_mom_octamer_303      7    MOM   H304    304 0.30414999   3.023841   ; qtot -0.455250
  305 em_helix_mom_octamer_304      7    MOM   H305    305 0.12646000   3.023841   ; qtot -0.328790
  306 em_helix_mom_octamer_305      7    MOM   H306    306 0.13264000   3.023841   ; qtot -0.196150
  307 em_helix_mom_octamer_306      7    MOM   H307    307 0.13540000   3.023841   ; qtot -0.060750
  308 em_helix_mom_octamer_307      7    MOM   H308    308 0.15548000   3.023841   ; qtot 0.094730
; residue    8 MOM rtp MOM q 0.1
  309 em_helix_mom_octamer_308      8    MOM   C309    309 0.11213000   5.963098   ; qtot 0.206860
  310 em_helix_mom_octamer_309      8    MOM   O310    310 -0.32570001  15.999430   ; qtot -0.118840
  311 em_helix_mom_octamer_310      8    MOM   C311    311 0.12592000  12.010780   ; qtot 0.007080
  312 em_helix_mom_octamer_311      8    MOM   C312    312 -0.20557000   9.994886   ; qtot -0.198490
  313 em_helix_mom_octamer_312      8    MOM   C313    313 -0.08544000   9.994886   ; qtot -0.283930
  314 em_helix_mom_octamer_313      8    MOM   C314    314 -0.07074000  12.010780   ; qtot -0.354670
  315 em_helix_mom_octamer_314      8    MOM   C315    315 -0.04436000  12.010780   ; qtot -0.399030
  316 em_helix_mom_octamer_315      8    MOM   C316    316 -0.09075000   9.994886   ; qtot -0.489780
  317 em_helix_mom_octamer_316      8    MOM   C317    317 -0.13496999  12.010780   ; qtot -0.624750
  318 em_helix_mom_octamer_317      8    MOM   C318    318 0.68105000  12.010780   ; qtot 0.056300
  319 em_helix_mom_octamer_318      8    MOM   O319    319 -0.60802001  15.999430   ; qtot -0.551720
  320 em_helix_mom_octamer_319      8    MOM   C320    320 -0.06538000   9.994886   ; qtot -0.617100
  321 em_helix_mom_octamer_320      8    MOM   C321    321 -0.13837001   9.994886   ; qtot -0.755470
  322 em_helix_mom_octamer_321      8    MOM   C322    322 -0.09088000   9.994886   ; qtot -0.846350
  323 em_helix_mom_octamer_322      8    MOM   C323    323 0.00532000  12.010780   ; qtot -0.841030
  324 em_helix_mom_octamer_323      8    MOM   C324    324 -0.04321000  12.010780   ; qtot -0.884240
  325 em_helix_mom_octamer_324      8    MOM   C325    325 -0.10600000   9.994886   ; qtot -0.990240
  326 em_helix_mom_octamer_325      8    MOM   C326    326 -0.09755000  12.010780   ; qtot -1.087790
  327 em_helix_mom_octamer_326      8    MOM   C327    327 0.16301000   9.994886   ; qtot -0.924780
  328 em_helix_mom_octamer_327      8    MOM   C328    328 -0.11588000   5.963098   ; qtot -1.040660
  329 em_helix_mom_octamer_328      8    MOM   N329    329 -0.55923003  11.990826   ; qtot -1.599890
  330 em_helix_mom_octamer_329      8    MOM   C330    330 -0.10299000   9.994886   ; qtot -1.702880
  331 em_helix_mom_octamer_330      8    MOM   C331    331 -0.12432000   9.994886   ; qtot -1.827200
  332 em_helix_mom_octamer_331      8    MOM   C332    332 -0.10289000   9.994886   ; qtot -1.930090
  333 em_helix_mom_octamer_332      8    MOM   C333    333 -0.14584000   9.994886   ; qtot -2.075930
  334 em_helix_mom_octamer_333      8    MOM   H334    334 0.04611000   3.023841   ; qtot -2.029820
  335 em_helix_mom_octamer_334      8    MOM   H335    335 0.04611000   3.023841   ; qtot -1.983710
  336 em_helix_mom_octamer_335      8    MOM   H336    336 0.04611000   3.023841   ; qtot -1.937600
  337 em_helix_mom_octamer_336      8    MOM   H337    337 0.14046000   3.023841   ; qtot -1.797140
  338 em_helix_mom_octamer_337      8    MOM   H338    338 0.13920000   3.023841   ; qtot -1.657940
  339 em_helix_mom_octamer_338      8    MOM   H339    339 0.13291000   3.023841   ; qtot -1.525030
  340 em_helix_mom_octamer_339      8    MOM   H340    340 0.15375000   3.023841   ; qtot -1.371280
  341 em_helix_mom_octamer_340      8    MOM   H341    341 0.13713001   3.023841   ; qtot -1.234150
  342 em_helix_mom_octamer_341      8    MOM   H342    342 0.13776000   3.023841   ; qtot -1.096390
  343 em_helix_mom_octamer_342      8    MOM   H343    343 0.13556001   3.023841   ; qtot -0.960830
  344 em_helix_mom_octamer_343      8    MOM   H344    344 0.08247000   3.023841   ; qtot -0.878360
  345 em_helix_mom_octamer_344      8    MOM   H345    345 0.04848000   3.023841   ; qtot -0.829880
  346 em_helix_mom_octamer_345      8    MOM   H346    346 0.04848000   3.023841   ; qtot -0.781400
  347 em_helix_mom_octamer_346      8    MOM   H347    347 0.04848000   3.023841   ; qtot -0.732920
  348 em_helix_mom_octamer_347      8    MOM   H348    348 0.33182999   3.023841   ; qtot -0.401090
  349 em_helix_mom_octamer_348      8    MOM   H349    349 0.13294999   3.023841   ; qtot -0.268140
  350 em_helix_mom_octamer_349      8    MOM   H350    350 0.13623001   3.023841   ; qtot -0.131910
  351 em_helix_mom_octamer_350      8    MOM   H351    351 0.13586000   3.023841   ; qtot 0.003950
  352 em_helix_mom_octamer_351      8    MOM   H352    352 0.15775999   3.023841   ; qtot 0.161710
; residue    9 CAP rtp CAP q -0.2
  353 em_helix_mom_octamer_352      9    CAP   C353    353 0.12574001   5.963098   ; qtot 0.287450
  354 em_helix_mom_octamer_353      9    CAP   O354    354 -0.43937001  15.999430   ; qtot -0.151920
  355 em_helix_mom_octamer_354      9    CAP   H355    355 0.05039000   3.023841   ; qtot -0.101530
  356 em_helix_mom_octamer_355      9    CAP   H356    356 0.05039000   3.023841   ; qtot -0.051140
  357 em_helix_mom_octamer_356      9    CAP   H357    357 0.05039000   3.023841   ; qtot -0.000750
; residue   10 CAP rtp CAP q 0.0
  358 em_helix_mom_octamer_357     10    CAP   C358    358 -0.11363000   5.963098   ; qtot -0.114380
  359 em_helix_mom_octamer_358     10    CAP   C359    359 0.18827000  12.010780   ; qtot 0.073890
  360 em_helix_mom_octamer_359     10    CAP   C360    360 -0.11363000   5.963098   ; qtot -0.039740
  361 em_helix_mom_octamer_360     10    CAP   C361    361 -0.11363000   5.963098   ; qtot -0.153370
  362 em_helix_mom_octamer_361     10    CAP   O362    362 -0.45141000  15.999430   ; qtot -0.604780
  363 em_helix_mom_octamer_362     10    CAP   C363    363 0.75018001  12.010780   ; qtot 0.145400
  364 em_helix_mom_octamer_363     10    CAP   O364    364 -0.60521001  15.999430   ; qtot -0.459810
  365 em_helix_mom_octamer_364     10    CAP   H365    365 0.05109000   3.023841   ; qtot -0.408720
  366 em_helix_mom_octamer_365     10    CAP   H366    366 0.05109000   3.023841   ; qtot -0.357630
  367 em_helix_mom_octamer_366     10    CAP   H367    367 0.05109000   3.023841   ; qtot -0.306540
  368 em_helix_mom_octamer_367     10    CAP   H368    368 0.05109000   3.023841   ; qtot -0.255450
  369 em_helix_mom_octamer_368     10    CAP   H369    369 0.05109000   3.023841   ; qtot -0.204360
  370 em_helix_mom_octamer_369     10    CAP   H370    370 0.05109000   3.023841   ; qtot -0.153270
  371 em_helix_mom_octamer_370     10    CAP   H371    371 0.05109000   3.023841   ; qtot -0.102180
  372 em_helix_mom_octamer_371     10    CAP   H372    372 0.05109000   3.023841   ; qtot -0.051090
  373 em_helix_mom_octamer_372     10    CAP   H373    373 0.05109000   3.023841   ; qtot -0.000000

[ bonds ]
;    ai     aj funct         c0         c1         c2         c3
      1      2     1   0.14259 306888.771877
      1     26     1   0.10929 317186.185379
      1     27     1   0.10929 317186.185379
      1     28     1   0.10929 317186.185379
      2      3     1   0.13629 356218.264001
      3      4     1   0.13872 301905.092579
      3     25     1   0.13872 301905.092579
      4      5     1   0.13872 301905.092579
      4     29     1   0.10854 332422.631675
      5      6     1   0.13872 301905.092579
      5     30     1   0.10854 332422.631675
      6      7     1   0.14546 233580.248618
      6     15     1   0.13872 301905.092579
      7      8     1   0.13872 301905.092579
      7     14     1   0.13872 301905.092579
      8      9     1   0.13872 301905.092579
      8     31     1   0.10854 332422.631675
      9     10     1   0.14546 233580.248618
      9     12     1   0.13872 301905.092579
     10     11     1   0.12252 487602.327766
     10    354     1   0.13457 252005.673257
     12     13     1   0.13872 301905.092579
     12     32     1   0.10854 332422.631675
     13     14     1   0.13872 301905.092579
     13     33     1   0.10854 332422.631675
     14     34     1   0.10854 332422.631675
     15     16     1   0.14546 233580.248618
     15     25     1   0.13872 301905.092579
     16     17     1   0.13872 301905.092579
     16     24     1   0.13872 301905.092579
     17     18     1   0.13872 301905.092579
     17     35     1   0.10854 332422.631675
     18     19     1   0.14986 242452.869388
     18     22     1   0.13872 301905.092579
     19     20     1   0.15219 221435.259290
     19     21     1   0.14501 294600.927776
     19     36     1   0.10929 317186.185379
     20     37     1   0.10929 317186.185379
     20     38     1   0.10929 317186.185379
     20     39     1   0.10929 317186.185379
     21     40     1   0.10195 422704.914414
     21     54     1   0.13819 412347.817359
     22     23     1   0.13872 301905.092579
     22     41     1   0.10854 332422.631675
     23     24     1   0.13872 301905.092579
     23     42     1   0.10854 332422.631675
     24     43     1   0.10854 332422.631675
     25     44     1   0.10854 332422.631675
     45     46     1   0.14259 306888.771877
     45     70     1   0.10929 317186.185379
     45     71     1   0.10929 317186.185379
     45     72     1   0.10929 317186.185379
     46     47     1   0.13629 356218.264001
     47     48     1   0.13872 301905.092579
     47     69     1   0.13872 301905.092579
     48     49     1   0.13872 301905.092579
     48     73     1   0.10854 332422.631675
     49     50     1   0.13872 301905.092579
     49     74     1   0.10854 332422.631675
     50     51     1   0.14546 233580.248618
     50     59     1   0.13872 301905.092579
     51     52     1   0.13872 301905.092579
     51     58     1   0.13872 301905.092579
     52     53     1   0.13872 301905.092579
     52     75     1   0.10854 332422.631675
     53     54     1   0.14546 233580.248618
     53     56     1   0.13872 301905.092579
     54     55     1   0.12252 487602.327766
     56     57     1   0.13872 301905.092579
     56     76     1   0.10854 332422.631675
     57     58     1   0.13872 301905.092579
     57     77     1   0.10854 332422.631675
     58     78     1   0.10854 332422.631675
     59     60     1   0.14546 233580.248618
     59     69     1   0.13872 301905.092579
     60     61     1   0.13872 301905.092579
     60     68     1   0.13872 301905.092579
     61     62     1   0.13872 301905.092579
     61     79     1   0.10854 332422.631675
     62     63     1   0.14986 242452.869388
     62     66     1   0.13872 301905.092579
     63     64     1   0.15219 221435.259290
     63     65     1   0.14501 294600.927776
     63     80     1   0.10929 317186.185379
     64     81     1   0.10929 317186.185379
     64     82     1   0.10929 317186.185379
     64     83     1   0.10929 317186.185379
     65     84     1   0.10195 422704.914414
     65     98     1   0.13819 412347.817359
     66     67     1   0.13872 301905.092579
     66     85     1   0.10854 332422.631675
     67     68     1   0.13872 301905.092579
     67     86     1   0.10854 332422.631675
     68     87     1   0.10854 332422.631675
     69     88     1   0.10854 332422.631675
     89     90     1   0.14259 306888.771877
     89    114     1   0.10929 317186.185379
     89    115     1   0.10929 317186.185379
     89    116     1   0.10929 317186.185379
     90     91     1   0.13629 356218.264001
     91     92     1   0.13872 301905.092579
     91    113     1   0.13872 301905.092579
     92     93     1   0.13872 301905.092579
     92    117     1   0.10854 332422.631675
     93     94     1   0.13872 301905.092579
     93    118     1   0.10854 332422.631675
     94     95     1   0.14546 233580.248618
     94    103     1   0.13872 301905.092579
     95     96     1   0.13872 301905.092579
     95    102     1   0.13872 301905.092579
     96     97     1   0.13872 301905.092579
     96    119     1   0.10854 332422.631675
     97     98     1   0.14546 233580.248618
     97    100     1   0.13872 301905.092579
     98     99     1   0.12252 487602.327766
    100    101     1   0.13872 301905.092579
    100    120     1   0.10854 332422.631675
    101    102     1   0.13872 301905.092579
    101    121     1   0.10854 332422.631675
    102    122     1   0.10854 332422.631675
    103    104     1   0.14546 233580.248618
    103    113     1   0.13872 301905.092579
    104    105     1   0.13872 301905.092579
    104    112     1   0.13872 301905.092579
    105    106     1   0.13872 301905.092579
    105    123     1   0.10854 332422.631675
    106    107     1   0.14986 242452.869388
    106    110     1   0.13872 301905.092579
    107    108     1   0.15219 221435.259290
    107    109     1   0.14501 294600.927776
    107    124     1   0.10929 317186.185379
    108    125     1   0.10929 317186.185379
    108    126     1   0.10929 317186.185379
    108    127     1   0.10929 317186.185379
    109    128     1   0.10195 422704.914414
    109    142     1   0.13819 412347.817359
    110    111     1   0.13872 301905.092579
    110    129     1   0.10854 332422.631675
    111    112     1   0.13872 301905.092579
    111    130     1   0.10854 332422.631675
    112    131     1   0.10854 332422.631675
    113    132     1   0.10854 332422.631675
    133    134     1   0.14259 306888.771877
    133    158     1   0.10929 317186.185379
    133    159     1   0.10929 317186.185379
    133    160     1   0.10929 317186.185379
    134    135     1   0.13629 356218.264001
    135    136     1   0.13872 301905.092579
    135    157     1   0.13872 301905.092579
    136    137     1   0.13872 301905.092579
    136    161     1   0.10854 332422.631675
    137    138     1   0.13872 301905.092579
    137    162     1   0.10854 332422.631675
    138    139     1   0.14546 233580.248618
    138    147     1   0.13872 301905.092579
    139    140     1   0.13872 301905.092579
    139    146     1   0.13872 301905.092579
    140    141     1   0.13872 301905.092579
    140    163     1   0.10854 332422.631675
    141    142     1   0.14546 233580.248618
    141    144     1   0.13872 301905.092579
    142    143     1   0.12252 487602.327766
    144    145     1   0.13872 301905.092579
    144    164     1   0.10854 332422.631675
    145    146     1   0.13872 301905.092579
    145    165     1   0.10854 332422.631675
    146    166     1   0.10854 332422.631675
    147    148     1   0.14546 233580.248618
    147    157     1   0.13872 301905.092579
    148    149     1   0.13872 301905.092579
    148    156     1   0.13872 301905.092579
    149    150     1   0.13872 301905.092579
    149    167     1   0.10854 332422.631675
    150    151     1   0.14986 242452.869388
    150    154     1   0.13872 301905.092579
    151    152     1   0.15219 221435.259290
    151    153     1   0.14501 294600.927776
    151    168     1   0.10929 317186.185379
    152    169     1   0.10929 317186.185379
    152    170     1   0.10929 317186.185379
    152    171     1   0.10929 317186.185379
    153    172     1   0.10195 422704.914414
    153    186     1   0.13819 412347.817359
    154    155     1   0.13872 301905.092579
    154    173     1   0.10854 332422.631675
    155    156     1   0.13872 301905.092579
    155    174     1   0.10854 332422.631675
    156    175     1   0.10854 332422.631675
    157    176     1   0.10854 332422.631675
    177    178     1   0.14259 306888.771877
    177    202     1   0.10929 317186.185379
    177    203     1   0.10929 317186.185379
    177    204     1   0.10929 317186.185379
    178    179     1   0.13629 356218.264001
    179    180     1   0.13872 301905.092579
    179    201     1   0.13872 301905.092579
    180    181     1   0.13872 301905.092579
    180    205     1   0.10854 332422.631675
    181    182     1   0.13872 301905.092579
    181    206     1   0.10854 332422.631675
    182    183     1   0.14546 233580.248618
    182    191     1   0.13872 301905.092579
    183    184     1   0.13872 301905.092579
    183    190     1   0.13872 301905.092579
    184    185     1   0.13872 301905.092579
    184    207     1   0.10854 332422.631675
    185    186     1   0.14546 233580.248618
    185    188     1   0.13872 301905.092579
    186    187     1   0.12252 487602.327766
    188    189     1   0.13872 301905.092579
    188    208     1   0.10854 332422.631675
    189    190     1   0.13872 301905.092579
    189    209     1   0.10854 332422.631675
    190    210     1   0.10854 332422.631675
    191    192     1   0.14546 233580.248618
    191    201     1   0.13872 301905.092579
    192    193     1   0.13872 301905.092579
    192    200     1   0.13872 301905.092579
    193    194     1   0.13872 301905.092579
    193    211     1   0.10854 332422.631675
    194    195     1   0.14986 242452.869388
    194    198     1   0.13872 301905.092579
    195    196     1   0.15219 221435.259290
    195    197     1   0.14501 294600.927776
    195    212     1   0.10929 317186.185379
    196    213     1   0.10929 317186.185379
    196    214     1   0.10929 317186.185379
    196    215     1   0.10929 317186.185379
    197    216     1   0.10195 422704.914414
    197    230     1   0.13819 412347.817359
    198    199     1   0.13872 301905.092579
    198    217     1   0.10854 332422.631675
    199    200     1   0.13872 301905.092579
    199    218     1   0.10854 332422.631675
    200    219     1   0.10854 332422.631675
    201    220     1   0.10854 332422.631675
    221    222     1   0.14259 306888.771877
    221    246     1   0.10929 317186.185379
    221    247     1   0.10929 317186.185379
    221    248     1   0.10929 317186.185379
    222    223     1   0.13629 356218.264001
    223    224     1   0.13872 301905.092579
    223    245     1   0.13872 301905.092579
    224    225     1   0.13872 301905.092579
    224    249     1   0.10854 332422.631675
    225    226     1   0.13872 301905.092579
    225    250     1   0.10854 332422.631675
    226    227     1   0.14546 233580.248618
    226    235     1   0.13872 301905.092579
    227    228     1   0.13872 301905.092579
    227    234     1   0.13872 301905.092579
    228    229     1   0.13872 301905.092579
    228    251     1   0.10854 332422.631675
    229    230     1   0.14546 233580.248618
    229    232     1   0.13872 301905.092579
    230    231     1   0.12252 487602.327766
    232    233     1   0.13872 301905.092579
    232    252     1   0.10854 332422.631675
    233    234     1   0.13872 301905.092579
    233    253     1   0.10854 332422.631675
    234    254     1   0.10854 332422.631675
    235    236     1   0.14546 233580.248618
    235    245     1   0.13872 301905.092579
    236    237     1   0.13872 301905.092579
    236    244     1   0.13872 301905.092579
    237    238     1   0.13872 301905.092579
    237    255     1   0.10854 332422.631675
    238    239     1   0.14986 242452.869388
    238    242     1   0.13872 301905.092579
    239    240     1   0.15219 221435.259290
    239    241     1   0.14501 294600.927776
    239    256     1   0.10929 317186.185379
    240    257     1   0.10929 317186.185379
    240    258     1   0.10929 317186.185379
    240    259     1   0.10929 317186.185379
    241    260     1   0.10195 422704.914414
    241    274     1   0.13819 412347.817359
    242    243     1   0.13872 301905.092579
    242    261     1   0.10854 332422.631675
    243    244     1   0.13872 301905.092579
    243    262     1   0.10854 332422.631675
    244    263     1   0.10854 332422.631675
    245    264     1   0.10854 332422.631675
    265    266     1   0.14259 306888.771877
    265    290     1   0.10929 317186.185379
    265    291     1   0.10929 317186.185379
    265    292     1   0.10929 317186.185379
    266    267     1   0.13629 356218.264001
    267    268     1   0.13872 301905.092579
    267    289     1   0.13872 301905.092579
    268    269     1   0.13872 301905.092579
    268    293     1   0.10854 332422.631675
    269    270     1   0.13872 301905.092579
    269    294     1   0.10854 332422.631675
    270    271     1   0.14546 233580.248618
    270    279     1   0.13872 301905.092579
    271    272     1   0.13872 301905.092579
    271    278     1   0.13872 301905.092579
    272    273     1   0.13872 301905.092579
    272    295     1   0.10854 332422.631675
    273    274     1   0.14546 233580.248618
    273    276     1   0.13872 301905.092579
    274    275     1   0.12252 487602.327766
    276    277     1   0.13872 301905.092579
    276    296     1   0.10854 332422.631675
    277    278     1   0.13872 301905.092579
    277    297     1   0.10854 332422.631675
    278    298     1   0.10854 332422.631675
    279    280     1   0.14546 233580.248618
    279    289     1   0.13872 301905.092579
    280    281     1   0.13872 301905.092579
    280    288     1   0.13872 301905.092579
    281    282     1   0.13872 301905.092579
    281    299     1   0.10854 332422.631675
    282    283     1   0.14986 242452.869388
    282    286     1   0.13872 301905.092579
    283    284     1   0.15219 221435.259290
    283    285     1   0.14501 294600.927776
    283    300     1   0.10929 317186.185379
    284    301     1   0.10929 317186.185379
    284    302     1   0.10929 317186.185379
    284    303     1   0.10929 317186.185379
    285    304     1   0.10195 422704.914414
    285    318     1   0.13819 412347.817359
    286    287     1   0.13872 301905.092579
    286    305     1   0.10854 332422.631675
    287    288     1   0.13872 301905.092579
    287    306     1   0.10854 332422.631675
    288    307     1   0.10854 332422.631675
    289    308     1   0.10854 332422.631675
    309    310     1   0.14259 306888.771877
    309    334     1   0.10929 317186.185379
    309    335     1   0.10929 317186.185379
    309    336     1   0.10929 317186.185379
    310    311     1   0.13629 356218.264001
    311    312     1   0.13872 301905.092579
    311    333     1   0.13872 301905.092579
    312    313     1   0.13872 301905.092579
    312    337     1   0.10854 332422.631675
    313    314     1   0.13872 301905.092579
    313    338     1   0.10854 332422.631675
    314    315     1   0.14546 233580.248618
    314    323     1   0.13872 301905.092579
    315    316     1   0.13872 301905.092579
    315    322     1   0.13872 301905.092579
    316    317     1   0.13872 301905.092579
    316    339     1   0.10854 332422.631675
    317    318     1   0.14546 233580.248618
    317    320     1   0.13872 301905.092579
    318    319     1   0.12252 487602.327766
    320    321     1   0.13872 301905.092579
    320    340     1   0.10854 332422.631675
    321    322     1   0.13872 301905.092579
    321    341     1   0.10854 332422.631675
    322    342     1   0.10854 332422.631675
    323    324     1   0.14546 233580.248618
    323    333     1   0.13872 301905.092579
    324    325     1   0.13872 301905.092579
    324    332     1   0.13872 301905.092579
    325    326     1   0.13872 301905.092579
    325    343     1   0.10854 332422.631675
    326    327     1   0.14986 242452.869388
    326    330     1   0.13872 301905.092579
    327    328     1   0.15219 221435.259290
    327    329     1   0.14501 294600.927776
    327    344     1   0.10929 317186.185379
    328    345     1   0.10929 317186.185379
    328    346     1   0.10929 317186.185379
    328    347     1   0.10929 317186.185379
    329    348     1   0.10195 422704.914414
    329    363     1   0.13819 412347.817359
    330    331     1   0.13872 301905.092579
    330    349     1   0.10854 332422.631675
    331    332     1   0.13872 301905.092579
    331    350     1   0.10854 332422.631675
    332    351     1   0.10854 332422.631675
    333    352     1   0.10854 332422.631675
    353    354     1   0.14259 306888.771877
    353    355     1   0.10929 317186.185379
    353    356     1   0.10929 317186.185379
    353    357     1   0.10929 317186.185379
    358    359     1   0.15219 221435.259290
    358    365     1   0.10929 317186.185379
    358    366     1   0.10929 317186.185379
    358    367     1   0.10929 317186.185379
    359    360     1   0.15219 221435.259290
    359    361     1   0.15219 221435.259290
    359    362     1   0.14259 306888.771877
    360    368     1   0.10929 317186.185379
    360    369     1   0.10929 317186.185379
    360    370     1   0.10929 317186.185379
    361    371     1   0.10929 317186.185379
    361    372     1   0.10929 317186.185379
    361    373     1   0.10929 317186.185379
    362    363     1   0.13457 252005.673257
    363    364     1   0.12252 487602.327766

[ pairs ]
;    ai     aj funct         c0         c1         c2         c3
    186    189     1
    105    111     1
    100    119     1
    314    325     1
    362    369     1
    104    132     1
      3     27     1
    144    163     1
     17     36     1
    142    164     1
    197    213     1
    235    250     1
    270    293     1
    361    363     1
     51     69     1
    314    342     1
    194    215     1
      6     29     1
      7     12     1
     58     76     1
     14     31     1
    221    245     1
    281    284     1
     96    103     1
    106    142     1
    139    142     1
    322    323     1
     62     84     1
     61     80     1
     96     99     1
    327    343     1
    192    198     1
    244    245     1
    227    253     1
    312    352     1
    326    348     1
     22     43     1
    360    365     1
     93     96     1
    182    220     1
    286    300     1
     54     75     1
     21     39     1
     49     60     1
    281    289     1
    142    145     1
    194    200     1
    161    162     1
    323    331     1
    360    373     1
    249    250     1
     51     60     1
    178    181     1
    311    336     1
     94    132     1
    128    143     1
     10     31     1
     80     82     1
    361    365     1
    325    328     1
    330    351     1
      6     17     1
    239    273     1
    164    165     1
    266    279     1
    282    302     1
     90    103     1
     10     32     1
     17     21     1
    315    333     1
    150    174     1
     46     73     1
     18     37     1
    191    194     1
    348    364     1
    198    212     1
    165    166     1
    265    268     1
    109    125     1
     65    100     1
    272    298     1
      1      4     1
    240    274     1
     59     74     1
    138    141     1
     95    113     1
    315    318     1
    314    339     1
     96    120     1
    362    368     1
     94    119     1
     24     25     1
    244    255     1
     15     35     1
     17     41     1
    181    190     1
    329    346     1
     59     67     1
     62     83     1
    340    341     1
    273    297     1
      3     28     1
    208    209     1
    362    367     1
    223    248     1
    360    367     1
     51     77     1
     62     86     1
    112    113     1
    228    235     1
    212    214     1
    256    260     1
      2     44     1
    198    219     1
    269    272     1
    312    323     1
    326    345     1
    223    250     1
      8    354     1
    306    307     1
     54     76     1
    223    226     1
    104    110     1
    266    308     1
     46     88     1
     89    113     1
     21     56     1
     91    116     1
    141    146     1
    147    162     1
    314    352     1
    194    218     1
    267    294     1
    133    157     1
     17     23     1
    281    287     1
    318    340     1
    193    196     1
    239    243     1
    192    195     1
    286    307     1
     48     51     1
    201    205     1
    270    308     1
    107    143     1
    193    212     1
    241    257     1
    241    276     1
     21     38     1
    223    246     1
    325    351     1
    149    168     1
    273    278     1
    280    283     1
    197    198     1
    194    213     1
    239    261     1
    102    120     1
      4     44     1
    275    276     1
    283    305     1
    183    209     1
    305    306     1
    117    118     1
     53     58     1
     65     96     1
    332    343     1
     42     43     1
     50     57     1
     95    121     1
    196    198     1
    360    371     1
    252    253     1
    100    122     1
     62     81     1
    238    262     1
    293    294     1
    269    278     1
    322    339     1
     85     86     1
    324    350     1
    360    372     1
     50     53     1
     61     87     1
    106    128     1
    110    124     1
    296    297     1
     51     56     1
    178    220     1
    271    297     1
    146    147     1
    256    257     1
    362    366     1
     68     79     1
    135    158     1
    285    302     1
     18     54     1
      3     26     1
    177    180     1
     90     93     1
    193    201     1
    108    128     1
    222    264     1
    147    150     1
    328    330     1
     12     31     1
    225    236     1
    311    334     1
     84     97     1
    304    317     1
    327    349     1
    300    304     1
    344    346     1
    349    350     1
    330    343     1
    326    350     1
    317    341     1
     58     75     1
    282    318     1
    234    251     1
     61     65     1
    184    187     1
    327    362     1
    344    347     1
    358    372     1
     50     68     1
    270    281     1
    227    245     1
      6      9     1
    140    166     1
    139    148     1
    138    166     1
    234    252     1
    325    331     1
    309    333     1
     16     44     1
    195    231     1
    135    138     1
    245    249     1
    240    260     1
    280    286     1
     98    101     1
    329    330     1
    256    274     1
    279    287     1
     59     79     1
    285    320     1
    168    169     1
      7     10     1
    326    363     1
     51     54     1
    322    340     1
    226    244     1
    227    232     1
    260    275     1
    153    154     1
    190    208     1
    282    288     1
    124    126     1
     93    113     1
      3     30     1
     94     97     1
    289    293     1
    188    207     1
    182    200     1
    239    255     1
    153    170     1
     94    112     1
      5      8     1
    174    175     1
     94    122     1
    260    273     1
    112    129     1
     59     87     1
     21     52     1
    134    176     1
    315    320     1
    182    210     1
    177    201     1
    238    260     1
     51     74     1
    330    344     1
    181    184     1
    269    289     1
    195    199     1
    139    165     1
    236    242     1
    320    342     1
    272    296     1
     20     22     1
     54     57     1
     60     88     1
      9    353     1
    276    298     1
      8     15     1
    332    333     1
    195    217     1
    325    329     1
    197    232     1
    253    254     1
    362    365     1
      6     31     1
    108    142     1
    153    169     1
    237    263     1
    185    190     1
    265    289     1
    200    217     1
    328    348     1
    106    125     1
    129    130     1
    272    279     1
    274    296     1
     15     43     1
     36     38     1
    190    207     1
    362    373     1
    285    286     1
     63     97     1
    112    123     1
    324    327     1
     18     39     1
     56     78     1
    230    251     1
    359    364     1
     98    120     1
    133    136     1
    182    185     1
    227    250     1
    315    341     1
    318    339     1
    317    322     1
    227    230     1
    332    349     1
     47     50     1
    235    263     1
    271    289     1
     36     40     1
     46     49     1
    212    216     1
    230    252     1
    105    108     1
    107    129     1
    104    107     1
    238    257     1
    150    170     1
    226    229     1
    282    306     1
    226    249     1
    103    118     1
    318    321     1
    212    215     1
    316    321     1
    186    207     1
     60     86     1
     65     81     1
    241    258     1
    325    344     1
      9     33     1
    109    110     1
     10    357     1
    190    191     1
    320    339     1
    300    303     1
    110    123     1
     24     41     1
     86     87     1
     20     54     1
     89     92     1
    221    224     1
    304    319     1
     50     78     1
    240    242     1
    172    185     1
    185    209     1
    124    127     1
    139    144     1
    103    106     1
    218    219     1
    153    171     1
      8     32     1
     95    104     1
    223    236     1
    288    305     1
    323    343     1
    150    172     1
    314    321     1
     21     37     1
    110    131     1
    267    291     1
    329    347     1
    312    315     1
    222    225     1
    310    313     1
    280    306     1
    150    169     1
    184    191     1
    141    165     1
    279    299     1
     92    132     1
    274    295     1
     47     71     1
    107    123     1
    237    243     1
     22     36     1
    109    126     1
    157    161     1
    238    274     1
      6     24     1
    196    230     1
     73     74     1
    270    295     1
    232    254     1
    241    259     1
    192    220     1
     53     77     1
    153    184     1
    106    112     1
     50     61     1
    223    247     1
    225    245     1
    256    258     1
    135    159     1
     25     29     1
    286    299     1
    315    338     1
    109    144     1
    147    175     1
     19     23     1
     52     76     1
    313    322     1
    237    261     1
    316    319     1
     76     77     1
     18     38     1
    154    167     1
     63     85     1
    361    370     1
    280    308     1
    105    113     1
    128    141     1
    237    256     1
      5     16     1
     65     66     1
     32     33     1
     58     59     1
     41     42     1
     52     55     1
    310    337     1
     80     84     1
    362    371     1
    150    186     1
    358    370     1
    195    229     1
    149    157     1
    310    352     1
      6     44     1
    362    372     1
     80     98     1
     18     40     1
    154    175     1
    180    220     1
    180    191     1
     45     48     1
    313    324     1
    105    124     1
     84     99     1
    139    162     1
    178    191     1
     69     73     1
      3     16     1
     56     75     1
    135    162     1
    237    245     1
    278    279     1
    272    277     1
     64     84     1
    344    348     1
    256    259     1
     16     42     1
    284    318     1
     16     19     1
    106    130     1
    209    210     1
      7     16     1
    150    171     1
     15     18     1
    271    276     1
     64     98     1
    168    170     1
    216    231     1
    137    157     1
    148    174     1
    241    242     1
    324    330     1
     11     12     1
    179    204     1
    326    332     1
    283    287     1
    149    175     1
    191    199     1
    319    320     1
     99    100     1
     94    101     1
    134    147     1
    235    238     1
    226    254     1
    267    292     1
    242    263     1
    267    270     1
    138    156     1
    172    187     1
    197    214     1
    274    277     1
    183    186     1
    180    183     1
    281    300     1
    212    213     1
     60     66     1
    182    189     1
    191    211     1
    270    277     1
     45     69     1
    313    316     1
     63     67     1
    228    254     1
    168    172     1
     62     82     1
     17     43     1
    193    199     1
     95     98     1
     94    105     1
    124    142     1
    107    141     1
     90    117     1
    224    227     1
      3      6     1
    271    274     1
    341    342     1
    193    217     1
    238    244     1
    140    164     1
    146    164     1
    232    251     1
    109    127     1
    230    233     1
    328    363     1
    300    301     1
    144    166     1
     61     85     1
    269    280     1
    103    123     1
     15     23     1
    310    323     1
     17     20     1
    228    233     1
     10     13     1
    194    230     1
      7     30     1
     14     15     1
     12    354     1
    156    157     1
    268    279     1
    102    119     1
    188    210     1
    236    264     1
    271    294     1
    282    304     1
      2     29     1
    217    218     1
    314    317     1
     47     60     1
    184    208     1
    140    145     1
     48     59     1
     65     83     1
    138    161     1
    138    145     1
    151    185     1
    235    255     1
    327    331     1
     36     37     1
    183    206     1
    113    117     1
     62     68     1
    191    206     1
    197    228     1
    327    364     1
    168    186     1
      1     25     1
     46     59     1
     68     85     1
    186    208     1
     50     88     1
     52     59     1
     92    103     1
    225    234     1
    237    241     1
    323    326     1
    146    163     1
    234    235     1
    138    163     1
    283    317     1
    238    258     1
     29     30     1
     63     99     1
    140    143     1
    148    151     1
     12     34     1
    316    342     1
    195    211     1
    288    299     1
    271    280     1
      2      5     1
    179    206     1
    105    129     1
    168    171     1
    300    302     1
    311    335     1
     52     57     1
    348    362     1
    281    307     1
     80     81     1
     10    356     1
     49     52     1
    268    308     1
    282    301     1
    200    211     1
     61     69     1
    227    236     1
    226    251     1
    182    193     1
     61     67     1
    135    160     1
    261    262     1
    149    153     1
    212    230     1
    236    239     1
    108    110     1
    153    188     1
    288    289     1
     91    104     1
    242    256     1
    229    253     1
    358    363     1
    281    285     1
    313    333     1
     14     32     1
    311    338     1
     62     98     1
    238    259     1
    107    111     1
    279    294     1
    361    369     1
     20     40     1
    224    235     1
    262    263     1
    184    210     1
    106    126     1
    228    252     1
    137    146     1
     47     70     1
    283    299     1
    194    214     1
     68     69     1
    226    237     1
    239    275     1
    236    262     1
    297    298     1
    326    346     1
    329    359     1
    138    149     1
    358    369     1
    121    122     1
     63     79     1
     96    122     1
     95    100     1
    183    192     1
    181    192     1
      7     33     1
    142    163     1
     91    114     1
    136    176     1
    326    347     1
    105    131     1
    224    264     1
    324    352     1
     19     41     1
     91    118     1
    151    187     1
    124    128     1
    147    167     1
    344    363     1
     94    117     1
    226    264     1
    362    370     1
     36     54     1
    102    103     1
     22     35     1
    179    192     1
    281    305     1
     59     62     1
    358    373     1
     18     24     1
      6     34     1
    216    229     1
     10    355     1
     17     25     1
     65     82     1
    229    234     1
     64     66     1
    266    269     1
     18     42     1
    325    333     1
     19     55     1
     21     22     1
    267    290     1
     66     80     1
     47     72     1
    225    228     1
    279    307     1
    235    243     1
    311    324     1
    152    154     1
     48     88     1
    242    255     1
    278    296     1
    241    272     1
    314    337     1
     91    115     1
    282    303     1
    350    351     1
    147    155     1
    154    168     1
    361    368     1
    182    205     1
     95    118     1
     98    119     1
    270    298     1
    329    345     1
     97    121     1
    285    301     1
      5     14     1
     49     58     1
     40     53     1
    149    173     1
    192    218     1
    139    157     1
    316    340     1
     60     63     1
    361    367     1
    284    286     1
     55     56     1
    358    368     1
    300    318     1
    197    215     1
    196    216     1
    325    349     1
      9     14     1
    191    219     1
    222    249     1
    148    154     1
    311    314     1
    283    319     1
    198    211     1
    228    231     1
    183    188     1
    151    173     1
    152    172     1
    137    140     1
      8     34     1
     16     22     1
    148    176     1
    222    235     1
    106    127     1
    143    144     1
     93    102     1
    103    111     1
    151    167     1
    183    201     1
    136    139     1
    267    280     1
    181    201     1
     90    132     1
    193    219     1
    179    203     1
      2     15     1
     91     94     1
    109    140     1
    149    155     1
     11    353     1
    315    324     1
    179    182     1
    105    109     1
    316    323     1
     15     30     1
    314    332     1
     47     74     1
    140    147     1
     50     75     1
    337    338     1
      6     13     1
    360    366     1
    309    312     1
    285    316     1
    278    295     1
    272    275     1
     80     83     1
    226    233     1
     50     73     1
     52     78     1
    151    155     1
     77     78     1
    130    131     1
    124    125     1
    284    304     1
    358    371     1
     36     39     1
    134    137     1
    152    186     1
    361    366     1
      4     15     1
    156    173     1
    120    121     1
    205    206     1
      4      7     1
    187    188     1
    103    131     1
      5     25     1
    344    345     1
    135    148     1
    156    167     1
     66     79     1
     93    104     1
    268    271     1
    237    240     1
      8     11     1
     40     55     1
    323    351     1
     33     34     1
     24     35     1
    279    282     1
    285    303     1
    231    232     1
    138    176     1
    137    148     1
      8     13     1
    270    273     1
    333    337     1
    149    152     1
    173    174     1
    360    363     1
    134    161     1
    276    295     1
     19     35     1
      7     25     1
     66     87     1
     92     95     1
    200    201     1
    182    207     1
    184    189     1
     19     53     1
    323    338     1
    244    261     1
    270    288     1
    104    130     1
    193    197     1
     96    101     1
    179    202     1
     61     64     1
    178    205     1
    150    156     1
    266    293     1
     97    102     1
    136    147     1
    194    216     1
     49     69     1

[ angles ]
;    ai     aj     ak funct         c0         c1         c2         c3
      1      2      3     1   110.3538806 544.678275
      2      1     26     1   107.6607822 425.669015
      2      1     27     1   107.6607822 425.669015
      2      1     28     1   107.6607822 425.669015
      2      3      4     1   126.8062420 484.492885
      2      3     25     1   126.8062420 484.492885
      3      4      5     1   126.8062420 484.492885
      3      4     29     1   129.1835930 285.070775
      3     25     15     1   126.8062420 484.492885
      3     25     44     1   129.1835930 285.070775
      4      3     25     1   126.8062420 484.492885
      4      5      6     1   126.8062420 484.492885
      4      5     30     1   129.1835930 285.070775
      5      4     29     1   129.1835930 285.070775
      5      6      7     1   126.8062420 484.492885
      5      6     15     1   126.8062420 484.492885
      6      5     30     1   129.1835930 285.070775
      6      7      8     1   126.8062420 484.492885
      6      7     14     1   126.8062420 484.492885
      6     15     16     1   126.8062420 484.492885
      6     15     25     1   126.8062420 484.492885
      7      6     15     1   126.8062420 484.492885
      7      8      9     1   126.8062420 484.492885
      7      8     31     1   129.1835930 285.070775
      7     14     13     1   126.8062420 484.492885
      7     14     34     1   129.1835930 285.070775
      8      7     14     1   126.8062420 484.492885
      8      9     10     1   126.8062420 484.492885
      8      9     12     1   126.8062420 484.492885
      9      8     31     1   129.1835930 285.070775
      9     10     11     1   126.8062420 484.492885
      9     10    354     1   126.8062420 484.492885
      9     12     13     1   126.8062420 484.492885
      9     12     32     1   129.1835930 285.070775
     10      9     12     1   126.8062420 484.492885
     10    354    353     1   110.3538806 544.678275
     11     10    354     1   127.4691416 1685.413543
     12     13     14     1   126.8062420 484.492885
     12     13     33     1   129.1835930 285.070775
     13     12     32     1   129.1835930 285.070775
     13     14     34     1   129.1835930 285.070775
     14     13     33     1   129.1835930 285.070775
     15     16     17     1   126.8062420 484.492885
     15     16     24     1   126.8062420 484.492885
     15     25     44     1   129.1835930 285.070775
     16     15     25     1   126.8062420 484.492885
     16     17     18     1   126.8062420 484.492885
     16     17     35     1   129.1835930 285.070775
     16     24     23     1   126.8062420 484.492885
     16     24     43     1   129.1835930 285.070775
     17     16     24     1   126.8062420 484.492885
     17     18     19     1   126.8062420 484.492885
     17     18     22     1   126.8062420 484.492885
     18     17     35     1   129.1835930 285.070775
     18     19     20     1   107.6607822 425.669015
     18     19     21     1   107.6607822 425.669015
     18     19     36     1   107.6607822 425.669015
     18     22     23     1   126.8062420 484.492885
     18     22     41     1   129.1835930 285.070775
     19     18     22     1   126.8062420 484.492885
     19     20     37     1   107.6607822 425.669015
     19     20     38     1   107.6607822 425.669015
     19     20     39     1   107.6607822 425.669015
     19     21     40     1   115.5071328 530.901283
     19     21     54     1   117.3465571 463.769802
     20     19     21     1   107.6607822 425.669015
     20     19     36     1   107.6607822 425.669015
     21     19     36     1   107.6607822 425.669015
     21     54     53     1   126.8062420 484.492885
     21     54     55     1   126.8062420 484.492885
     22     23     24     1   126.8062420 484.492885
     22     23     42     1   129.1835930 285.070775
     23     22     41     1   129.1835930 285.070775
     23     24     43     1   129.1835930 285.070775
     24     23     42     1   129.1835930 285.070775
     26      1     27     1   115.6031000 408.161690
     26      1     28     1   115.6031000 408.161690
     27      1     28     1   115.6031000 408.161690
     37     20     38     1   115.6031000 408.161690
     37     20     39     1   115.6031000 408.161690
     38     20     39     1   115.6031000 408.161690
     40     21     54     1   115.5071328 530.901283
     45     46     47     1   110.3538806 544.678275
     46     45     70     1   107.6607822 425.669015
     46     45     71     1   107.6607822 425.669015
     46     45     72     1   107.6607822 425.669015
     46     47     48     1   126.8062420 484.492885
     46     47     69     1   126.8062420 484.492885
     47     48     49     1   126.8062420 484.492885
     47     48     73     1   129.1835930 285.070775
     47     69     59     1   126.8062420 484.492885
     47     69     88     1   129.1835930 285.070775
     48     47     69     1   126.8062420 484.492885
     48     49     50     1   126.8062420 484.492885
     48     49     74     1   129.1835930 285.070775
     49     48     73     1   129.1835930 285.070775
     49     50     51     1   126.8062420 484.492885
     49     50     59     1   126.8062420 484.492885
     50     49     74     1   129.1835930 285.070775
     50     51     52     1   126.8062420 484.492885
     50     51     58     1   126.8062420 484.492885
     50     59     60     1   126.8062420 484.492885
     50     59     69     1   126.8062420 484.492885
     51     50     59     1   126.8062420 484.492885
     51     52     53     1   126.8062420 484.492885
     51     52     75     1   129.1835930 285.070775
     51     58     57     1   126.8062420 484.492885
     51     58     78     1   129.1835930 285.070775
     52     51     58     1   126.8062420 484.492885
     52     53     54     1   126.8062420 484.492885
     52     53     56     1   126.8062420 484.492885
     53     52     75     1   129.1835930 285.070775
     53     54     55     1   126.8062420 484.492885
     53     56     57     1   126.8062420 484.492885
     53     56     76     1   129.1835930 285.070775
     54     53     56     1   126.8062420 484.492885
     56     57     58     1   126.8062420 484.492885
     56     57     77     1   129.1835930 285.070775
     57     56     76     1   129.1835930 285.070775
     57     58     78     1   129.1835930 285.070775
     58     57     77     1   129.1835930 285.070775
     59     60     61     1   126.8062420 484.492885
     59     60     68     1   126.8062420 484.492885
     59     69     88     1   129.1835930 285.070775
     60     59     69     1   126.8062420 484.492885
     60     61     62     1   126.8062420 484.492885
     60     61     79     1   129.1835930 285.070775
     60     68     67     1   126.8062420 484.492885
     60     68     87     1   129.1835930 285.070775
     61     60     68     1   126.8062420 484.492885
     61     62     63     1   126.8062420 484.492885
     61     62     66     1   126.8062420 484.492885
     62     61     79     1   129.1835930 285.070775
     62     63     64     1   107.6607822 425.669015
     62     63     65     1   107.6607822 425.669015
     62     63     80     1   107.6607822 425.669015
     62     66     67     1   126.8062420 484.492885
     62     66     85     1   129.1835930 285.070775
     63     62     66     1   126.8062420 484.492885
     63     64     81     1   107.6607822 425.669015
     63     64     82     1   107.6607822 425.669015
     63     64     83     1   107.6607822 425.669015
     63     65     84     1   115.5071328 530.901283
     63     65     98     1   117.3465571 463.769802
     64     63     65     1   107.6607822 425.669015
     64     63     80     1   107.6607822 425.669015
     65     63     80     1   107.6607822 425.669015
     65     98     97     1   126.8062420 484.492885
     65     98     99     1   126.8062420 484.492885
     66     67     68     1   126.8062420 484.492885
     66     67     86     1   129.1835930 285.070775
     67     66     85     1   129.1835930 285.070775
     67     68     87     1   129.1835930 285.070775
     68     67     86     1   129.1835930 285.070775
     70     45     71     1   115.6031000 408.161690
     70     45     72     1   115.6031000 408.161690
     71     45     72     1   115.6031000 408.161690
     81     64     82     1   115.6031000 408.161690
     81     64     83     1   115.6031000 408.161690
     82     64     83     1   115.6031000 408.161690
     84     65     98     1   115.5071328 530.901283
     89     90     91     1   110.3538806 544.678275
     90     89    114     1   107.6607822 425.669015
     90     89    115     1   107.6607822 425.669015
     90     89    116     1   107.6607822 425.669015
     90     91     92     1   126.8062420 484.492885
     90     91    113     1   126.8062420 484.492885
     91     92     93     1   126.8062420 484.492885
     91     92    117     1   129.1835930 285.070775
     91    113    103     1   126.8062420 484.492885
     91    113    132     1   129.1835930 285.070775
     92     91    113     1   126.8062420 484.492885
     92     93     94     1   126.8062420 484.492885
     92     93    118     1   129.1835930 285.070775
     93     92    117     1   129.1835930 285.070775
     93     94     95     1   126.8062420 484.492885
     93     94    103     1   126.8062420 484.492885
     94     93    118     1   129.1835930 285.070775
     94     95     96     1   126.8062420 484.492885
     94     95    102     1   126.8062420 484.492885
     94    103    104     1   126.8062420 484.492885
     94    103    113     1   126.8062420 484.492885
     95     94    103     1   126.8062420 484.492885
     95     96     97     1   126.8062420 484.492885
     95     96    119     1   129.1835930 285.070775
     95    102    101     1   126.8062420 484.492885
     95    102    122     1   129.1835930 285.070775
     96     95    102     1   126.8062420 484.492885
     96     97     98     1   126.8062420 484.492885
     96     97    100     1   126.8062420 484.492885
     97     96    119     1   129.1835930 285.070775
     97     98     99     1   126.8062420 484.492885
     97    100    101     1   126.8062420 484.492885
     97    100    120     1   129.1835930 285.070775
     98     97    100     1   126.8062420 484.492885
    100    101    102     1   126.8062420 484.492885
    100    101    121     1   129.1835930 285.070775
    101    100    120     1   129.1835930 285.070775
    101    102    122     1   129.1835930 285.070775
    102    101    121     1   129.1835930 285.070775
    103    104    105     1   126.8062420 484.492885
    103    104    112     1   126.8062420 484.492885
    103    113    132     1   129.1835930 285.070775
    104    103    113     1   126.8062420 484.492885
    104    105    106     1   126.8062420 484.492885
    104    105    123     1   129.1835930 285.070775
    104    112    111     1   126.8062420 484.492885
    104    112    131     1   129.1835930 285.070775
    105    104    112     1   126.8062420 484.492885
    105    106    107     1   126.8062420 484.492885
    105    106    110     1   126.8062420 484.492885
    106    105    123     1   129.1835930 285.070775
    106    107    108     1   107.6607822 425.669015
    106    107    109     1   107.6607822 425.669015
    106    107    124     1   107.6607822 425.669015
    106    110    111     1   126.8062420 484.492885
    106    110    129     1   129.1835930 285.070775
    107    106    110     1   126.8062420 484.492885
    107    108    125     1   107.6607822 425.669015
    107    108    126     1   107.6607822 425.669015
    107    108    127     1   107.6607822 425.669015
    107    109    128     1   115.5071328 530.901283
    107    109    142     1   117.3465571 463.769802
    108    107    109     1   107.6607822 425.669015
    108    107    124     1   107.6607822 425.669015
    109    107    124     1   107.6607822 425.669015
    109    142    141     1   126.8062420 484.492885
    109    142    143     1   126.8062420 484.492885
    110    111    112     1   126.8062420 484.492885
    110    111    130     1   129.1835930 285.070775
    111    110    129     1   129.1835930 285.070775
    111    112    131     1   129.1835930 285.070775
    112    111    130     1   129.1835930 285.070775
    114     89    115     1   115.6031000 408.161690
    114     89    116     1   115.6031000 408.161690
    115     89    116     1   115.6031000 408.161690
    125    108    126     1   115.6031000 408.161690
    125    108    127     1   115.6031000 408.161690
    126    108    127     1   115.6031000 408.161690
    128    109    142     1   115.5071328 530.901283
    133    134    135     1   110.3538806 544.678275
    134    133    158     1   107.6607822 425.669015
    134    133    159     1   107.6607822 425.669015
    134    133    160     1   107.6607822 425.669015
    134    135    136     1   126.8062420 484.492885
    134    135    157     1   126.8062420 484.492885
    135    136    137     1   126.8062420 484.492885
    135    136    161     1   129.1835930 285.070775
    135    157    147     1   126.8062420 484.492885
    135    157    176     1   129.1835930 285.070775
    136    135    157     1   126.8062420 484.492885
    136    137    138     1   126.8062420 484.492885
    136    137    162     1   129.1835930 285.070775
    137    136    161     1   129.1835930 285.070775
    137    138    139     1   126.8062420 484.492885
    137    138    147     1   126.8062420 484.492885
    138    137    162     1   129.1835930 285.070775
    138    139    140     1   126.8062420 484.492885
    138    139    146     1   126.8062420 484.492885
    138    147    148     1   126.8062420 484.492885
    138    147    157     1   126.8062420 484.492885
    139    138    147     1   126.8062420 484.492885
    139    140    141     1   126.8062420 484.492885
    139    140    163     1   129.1835930 285.070775
    139    146    145     1   126.8062420 484.492885
    139    146    166     1   129.1835930 285.070775
    140    139    146     1   126.8062420 484.492885
    140    141    142     1   126.8062420 484.492885
    140    141    144     1   126.8062420 484.492885
    141    140    163     1   129.1835930 285.070775
    141    142    143     1   126.8062420 484.492885
    141    144    145     1   126.8062420 484.492885
    141    144    164     1   129.1835930 285.070775
    142    141    144     1   126.8062420 484.492885
    144    145    146     1   126.8062420 484.492885
    144    145    165     1   129.1835930 285.070775
    145    144    164     1   129.1835930 285.070775
    145    146    166     1   129.1835930 285.070775
    146    145    165     1   129.1835930 285.070775
    147    148    149     1   126.8062420 484.492885
    147    148    156     1   126.8062420 484.492885
    147    157    176     1   129.1835930 285.070775
    148    147    157     1   126.8062420 484.492885
    148    149    150     1   126.8062420 484.492885
    148    149    167     1   129.1835930 285.070775
    148    156    155     1   126.8062420 484.492885
    148    156    175     1   129.1835930 285.070775
    149    148    156     1   126.8062420 484.492885
    149    150    151     1   126.8062420 484.492885
    149    150    154     1   126.8062420 484.492885
    150    149    167     1   129.1835930 285.070775
    150    151    152     1   107.6607822 425.669015
    150    151    153     1   107.6607822 425.669015
    150    151    168     1   107.6607822 425.669015
    150    154    155     1   126.8062420 484.492885
    150    154    173     1   129.1835930 285.070775
    151    150    154     1   126.8062420 484.492885
    151    152    169     1   107.6607822 425.669015
    151    152    170     1   107.6607822 425.669015
    151    152    171     1   107.6607822 425.669015
    151    153    172     1   115.5071328 530.901283
    151    153    186     1   117.3465571 463.769802
    152    151    153     1   107.6607822 425.669015
    152    151    168     1   107.6607822 425.669015
    153    151    168     1   107.6607822 425.669015
    153    186    185     1   126.8062420 484.492885
    153    186    187     1   126.8062420 484.492885
    154    155    156     1   126.8062420 484.492885
    154    155    174     1   129.1835930 285.070775
    155    154    173     1   129.1835930 285.070775
    155    156    175     1   129.1835930 285.070775
    156    155    174     1   129.1835930 285.070775
    158    133    159     1   115.6031000 408.161690
    158    133    160     1   115.6031000 408.161690
    159    133    160     1   115.6031000 408.161690
    169    152    170     1   115.6031000 408.161690
    169    152    171     1   115.6031000 408.161690
    170    152    171     1   115.6031000 408.161690
    172    153    186     1   115.5071328 530.901283
    177    178    179     1   110.3538806 544.678275
    178    177    202     1   107.6607822 425.669015
    178    177    203     1   107.6607822 425.669015
    178    177    204     1   107.6607822 425.669015
    178    179    180     1   126.8062420 484.492885
    178    179    201     1   126.8062420 484.492885
    179    180    181     1   126.8062420 484.492885
    179    180    205     1   129.1835930 285.070775
    179    201    191     1   126.8062420 484.492885
    179    201    220     1   129.1835930 285.070775
    180    179    201     1   126.8062420 484.492885
    180    181    182     1   126.8062420 484.492885
    180    181    206     1   129.1835930 285.070775
    181    180    205     1   129.1835930 285.070775
    181    182    183     1   126.8062420 484.492885
    181    182    191     1   126.8062420 484.492885
    182    181    206     1   129.1835930 285.070775
    182    183    184     1   126.8062420 484.492885
    182    183    190     1   126.8062420 484.492885
    182    191    192     1   126.8062420 484.492885
    182    191    201     1   126.8062420 484.492885
    183    182    191     1   126.8062420 484.492885
    183    184    185     1   126.8062420 484.492885
    183    184    207     1   129.1835930 285.070775
    183    190    189     1   126.8062420 484.492885
    183    190    210     1   129.1835930 285.070775
    184    183    190     1   126.8062420 484.492885
    184    185    186     1   126.8062420 484.492885
    184    185    188     1   126.8062420 484.492885
    185    184    207     1   129.1835930 285.070775
    185    186    187     1   126.8062420 484.492885
    185    188    189     1   126.8062420 484.492885
    185    188    208     1   129.1835930 285.070775
    186    185    188     1   126.8062420 484.492885
    188    189    190     1   126.8062420 484.492885
    188    189    209     1   129.1835930 285.070775
    189    188    208     1   129.1835930 285.070775
    189    190    210     1   129.1835930 285.070775
    190    189    209     1   129.1835930 285.070775
    191    192    193     1   126.8062420 484.492885
    191    192    200     1   126.8062420 484.492885
    191    201    220     1   129.1835930 285.070775
    192    191    201     1   126.8062420 484.492885
    192    193    194     1   126.8062420 484.492885
    192    193    211     1   129.1835930 285.070775
    192    200    199     1   126.8062420 484.492885
    192    200    219     1   129.1835930 285.070775
    193    192    200     1   126.8062420 484.492885
    193    194    195     1   126.8062420 484.492885
    193    194    198     1   126.8062420 484.492885
    194    193    211     1   129.1835930 285.070775
    194    195    196     1   107.6607822 425.669015
    194    195    197     1   107.6607822 425.669015
    194    195    212     1   107.6607822 425.669015
    194    198    199     1   126.8062420 484.492885
    194    198    217     1   129.1835930 285.070775
    195    194    198     1   126.8062420 484.492885
    195    196    213     1   107.6607822 425.669015
    195    196    214     1   107.6607822 425.669015
    195    196    215     1   107.6607822 425.669015
    195    197    216     1   115.5071328 530.901283
    195    197    230     1   117.3465571 463.769802
    196    195    197     1   107.6607822 425.669015
    196    195    212     1   107.6607822 425.669015
    197    195    212     1   107.6607822 425.669015
    197    230    229     1   126.8062420 484.492885
    197    230    231     1   126.8062420 484.492885
    198    199    200     1   126.8062420 484.492885
    198    199    218     1   129.1835930 285.070775
    199    198    217     1   129.1835930 285.070775
    199    200    219     1   129.1835930 285.070775
    200    199    218     1   129.1835930 285.070775
    202    177    203     1   115.6031000 408.161690
    202    177    204     1   115.6031000 408.161690
    203    177    204     1   115.6031000 408.161690
    213    196    214     1   115.6031000 408.161690
    213    196    215     1   115.6031000 408.161690
    214    196    215     1   115.6031000 408.161690
    216    197    230     1   115.5071328 530.901283
    221    222    223     1   110.3538806 544.678275
    222    221    246     1   107.6607822 425.669015
    222    221    247     1   107.6607822 425.669015
    222    221    248     1   107.6607822 425.669015
    222    223    224     1   126.8062420 484.492885
    222    223    245     1   126.8062420 484.492885
    223    224    225     1   126.8062420 484.492885
    223    224    249     1   129.1835930 285.070775
    223    245    235     1   126.8062420 484.492885
    223    245    264     1   129.1835930 285.070775
    224    223    245     1   126.8062420 484.492885
    224    225    226     1   126.8062420 484.492885
    224    225    250     1   129.1835930 285.070775
    225    224    249     1   129.1835930 285.070775
    225    226    227     1   126.8062420 484.492885
    225    226    235     1   126.8062420 484.492885
    226    225    250     1   129.1835930 285.070775
    226    227    228     1   126.8062420 484.492885
    226    227    234     1   126.8062420 484.492885
    226    235    236     1   126.8062420 484.492885
    226    235    245     1   126.8062420 484.492885
    227    226    235     1   126.8062420 484.492885
    227    228    229     1   126.8062420 484.492885
    227    228    251     1   129.1835930 285.070775
    227    234    233     1   126.8062420 484.492885
    227    234    254     1   129.1835930 285.070775
    228    227    234     1   126.8062420 484.492885
    228    229    230     1   126.8062420 484.492885
    228    229    232     1   126.8062420 484.492885
    229    228    251     1   129.1835930 285.070775
    229    230    231     1   126.8062420 484.492885
    229    232    233     1   126.8062420 484.492885
    229    232    252     1   129.1835930 285.070775
    230    229    232     1   126.8062420 484.492885
    232    233    234     1   126.8062420 484.492885
    232    233    253     1   129.1835930 285.070775
    233    232    252     1   129.1835930 285.070775
    233    234    254     1   129.1835930 285.070775
    234    233    253     1   129.1835930 285.070775
    235    236    237     1   126.8062420 484.492885
    235    236    244     1   126.8062420 484.492885
    235    245    264     1   129.1835930 285.070775
    236    235    245     1   126.8062420 484.492885
    236    237    238     1   126.8062420 484.492885
    236    237    255     1   129.1835930 285.070775
    236    244    243     1   126.8062420 484.492885
    236    244    263     1   129.1835930 285.070775
    237    236    244     1   126.8062420 484.492885
    237    238    239     1   126.8062420 484.492885
    237    238    242     1   126.8062420 484.492885
    238    237    255     1   129.1835930 285.070775
    238    239    240     1   107.6607822 425.669015
    238    239    241     1   107.6607822 425.669015
    238    239    256     1   107.6607822 425.669015
    238    242    243     1   126.8062420 484.492885
    238    242    261     1   129.1835930 285.070775
    239    238    242     1   126.8062420 484.492885
    239    240    257     1   107.6607822 425.669015
    239    240    258     1   107.6607822 425.669015
    239    240    259     1   107.6607822 425.669015
    239    241    260     1   115.5071328 530.901283
    239    241    274     1   117.3465571 463.769802
    240    239    241     1   107.6607822 425.669015
    240    239    256     1   107.6607822 425.669015
    241    239    256     1   107.6607822 425.669015
    241    274    273     1   126.8062420 484.492885
    241    274    275     1   126.8062420 484.492885
    242    243    244     1   126.8062420 484.492885
    242    243    262     1   129.1835930 285.070775
    243    242    261     1   129.1835930 285.070775
    243    244    263     1   129.1835930 285.070775
    244    243    262     1   129.1835930 285.070775
    246    221    247     1   115.6031000 408.161690
    246    221    248     1   115.6031000 408.161690
    247    221    248     1   115.6031000 408.161690
    257    240    258     1   115.6031000 408.161690
    257    240    259     1   115.6031000 408.161690
    258    240    259     1   115.6031000 408.161690
    260    241    274     1   115.5071328 530.901283
    265    266    267     1   110.3538806 544.678275
    266    265    290     1   107.6607822 425.669015
    266    265    291     1   107.6607822 425.669015
    266    265    292     1   107.6607822 425.669015
    266    267    268     1   126.8062420 484.492885
    266    267    289     1   126.8062420 484.492885
    267    268    269     1   126.8062420 484.492885
    267    268    293     1   129.1835930 285.070775
    267    289    279     1   126.8062420 484.492885
    267    289    308     1   129.1835930 285.070775
    268    267    289     1   126.8062420 484.492885
    268    269    270     1   126.8062420 484.492885
    268    269    294     1   129.1835930 285.070775
    269    268    293     1   129.1835930 285.070775
    269    270    271     1   126.8062420 484.492885
    269    270    279     1   126.8062420 484.492885
    270    269    294     1   129.1835930 285.070775
    270    271    272     1   126.8062420 484.492885
    270    271    278     1   126.8062420 484.492885
    270    279    280     1   126.8062420 484.492885
    270    279    289     1   126.8062420 484.492885
    271    270    279     1   126.8062420 484.492885
    271    272    273     1   126.8062420 484.492885
    271    272    295     1   129.1835930 285.070775
    271    278    277     1   126.8062420 484.492885
    271    278    298     1   129.1835930 285.070775
    272    271    278     1   126.8062420 484.492885
    272    273    274     1   126.8062420 484.492885
    272    273    276     1   126.8062420 484.492885
    273    272    295     1   129.1835930 285.070775
    273    274    275     1   126.8062420 484.492885
    273    276    277     1   126.8062420 484.492885
    273    276    296     1   129.1835930 285.070775
    274    273    276     1   126.8062420 484.492885
    276    277    278     1   126.8062420 484.492885
    276    277    297     1   129.1835930 285.070775
    277    276    296     1   129.1835930 285.070775
    277    278    298     1   129.1835930 285.070775
    278    277    297     1   129.1835930 285.070775
    279    280    281     1   126.8062420 484.492885
    279    280    288     1   126.8062420 484.492885
    279    289    308     1   129.1835930 285.070775
    280    279    289     1   126.8062420 484.492885
    280    281    282     1   126.8062420 484.492885
    280    281    299     1   129.1835930 285.070775
    280    288    287     1   126.8062420 484.492885
    280    288    307     1   129.1835930 285.070775
    281    280    288     1   126.8062420 484.492885
    281    282    283     1   126.8062420 484.492885
    281    282    286     1   126.8062420 484.492885
    282    281    299     1   129.1835930 285.070775
    282    283    284     1   107.6607822 425.669015
    282    283    285     1   107.6607822 425.669015
    282    283    300     1   107.6607822 425.669015
    282    286    287     1   126.8062420 484.492885
    282    286    305     1   129.1835930 285.070775
    283    282    286     1   126.8062420 484.492885
    283    284    301     1   107.6607822 425.669015
    283    284    302     1   107.6607822 425.669015
    283    284    303     1   107.6607822 425.669015
    283    285    304     1   115.5071328 530.901283
    283    285    318     1   117.3465571 463.769802
    284    283    285     1   107.6607822 425.669015
    284    283    300     1   107.6607822 425.669015
    285    283    300     1   107.6607822 425.669015
    285    318    317     1   126.8062420 484.492885
    285    318    319     1   126.8062420 484.492885
    286    287    288     1   126.8062420 484.492885
    286    287    306     1   129.1835930 285.070775
    287    286    305     1   129.1835930 285.070775
    287    288    307     1   129.1835930 285.070775
    288    287    306     1   129.1835930 285.070775
    290    265    291     1   115.6031000 408.161690
    290    265    292     1   115.6031000 408.161690
    291    265    292     1   115.6031000 408.161690
    301    284    302     1   115.6031000 408.161690
    301    284    303     1   115.6031000 408.161690
    302    284    303     1   115.6031000 408.161690
    304    285    318     1   115.5071328 530.901283
    309    310    311     1   110.3538806 544.678275
    310    309    334     1   107.6607822 425.669015
    310    309    335     1   107.6607822 425.669015
    310    309    336     1   107.6607822 425.669015
    310    311    312     1   126.8062420 484.492885
    310    311    333     1   126.8062420 484.492885
    311    312    313     1   126.8062420 484.492885
    311    312    337     1   129.1835930 285.070775
    311    333    323     1   126.8062420 484.492885
    311    333    352     1   129.1835930 285.070775
    312    311    333     1   126.8062420 484.492885
    312    313    314     1   126.8062420 484.492885
    312    313    338     1   129.1835930 285.070775
    313    312    337     1   129.1835930 285.070775
    313    314    315     1   126.8062420 484.492885
    313    314    323     1   126.8062420 484.492885
    314    313    338     1   129.1835930 285.070775
    314    315    316     1   126.8062420 484.492885
    314    315    322     1   126.8062420 484.492885
    314    323    324     1   126.8062420 484.492885
    314    323    333     1   126.8062420 484.492885
    315    314    323     1   126.8062420 484.492885
    315    316    317     1   126.8062420 484.492885
    315    316    339     1   129.1835930 285.070775
    315    322    321     1   126.8062420 484.492885
    315    322    342     1   129.1835930 285.070775
    316    315    322     1   126.8062420 484.492885
    316    317    318     1   126.8062420 484.492885
    316    317    320     1   126.8062420 484.492885
    317    316    339     1   129.1835930 285.070775
    317    318    319     1   126.8062420 484.492885
    317    320    321     1   126.8062420 484.492885
    317    320    340     1   129.1835930 285.070775
    318    317    320     1   126.8062420 484.492885
    320    321    322     1   126.8062420 484.492885
    320    321    341     1   129.1835930 285.070775
    321    320    340     1   129.1835930 285.070775
    321    322    342     1   129.1835930 285.070775
    322    321    341     1   129.1835930 285.070775
    323    324    325     1   126.8062420 484.492885
    323    324    332     1   126.8062420 484.492885
    323    333    352     1   129.1835930 285.070775
    324    323    333     1   126.8062420 484.492885
    324    325    326     1   126.8062420 484.492885
    324    325    343     1   129.1835930 285.070775
    324    332    331     1   126.8062420 484.492885
    324    332    351     1   129.1835930 285.070775
    325    324    332     1   126.8062420 484.492885
    325    326    327     1   126.8062420 484.492885
    325    326    330     1   126.8062420 484.492885
    326    325    343     1   129.1835930 285.070775
    326    327    328     1   107.6607822 425.669015
    326    327    329     1   107.6607822 425.669015
    326    327    344     1   107.6607822 425.669015
    326    330    331     1   126.8062420 484.492885
    326    330    349     1   129.1835930 285.070775
    327    326    330     1   126.8062420 484.492885
    327    328    345     1   107.6607822 425.669015
    327    328    346     1   107.6607822 425.669015
    327    328    347     1   107.6607822 425.669015
    327    329    348     1   115.5071328 530.901283
    327    329    363     1   117.3465571 463.769802
    328    327    329     1   107.6607822 425.669015
    328    327    344     1   107.6607822 425.669015
    329    327    344     1   107.6607822 425.669015
    329    363    362     1   126.8062420 484.492885
    329    363    364     1   126.8062420 484.492885
    330    331    332     1   126.8062420 484.492885
    330    331    350     1   129.1835930 285.070775
    331    330    349     1   129.1835930 285.070775
    331    332    351     1   129.1835930 285.070775
    332    331    350     1   129.1835930 285.070775
    334    309    335     1   115.6031000 408.161690
    334    309    336     1   115.6031000 408.161690
    335    309    336     1   115.6031000 408.161690
    345    328    346     1   115.6031000 408.161690
    345    328    347     1   115.6031000 408.161690
    346    328    347     1   115.6031000 408.161690
    348    329    363     1   115.5071328 530.901283
    354    353    355     1   107.6607822 425.669015
    354    353    356     1   107.6607822 425.669015
    354    353    357     1   107.6607822 425.669015
    355    353    356     1   115.6031000 408.161690
    355    353    357     1   115.6031000 408.161690
    356    353    357     1   115.6031000 408.161690
    358    359    360     1   107.6607822 425.669015
    358    359    361     1   107.6607822 425.669015
    358    359    362     1   107.6607822 425.669015
    359    358    365     1   107.6607822 425.669015
    359    358    366     1   107.6607822 425.669015
    359    358    367     1   107.6607822 425.669015
    359    360    368     1   107.6607822 425.669015
    359    360    369     1   107.6607822 425.669015
    359    360    370     1   107.6607822 425.669015
    359    361    371     1   107.6607822 425.669015
    359    361    372     1   107.6607822 425.669015
    359    361    373     1   107.6607822 425.669015
    359    362    363     1   110.3538806 544.678275
    360    359    361     1   107.6607822 425.669015
    360    359    362     1   107.6607822 425.669015
    361    359    362     1   107.6607822 425.669015
    362    363    364     1   127.4691416 1685.413543
    365    358    366     1   115.6031000 408.161690
    365    358    367     1   115.6031000 408.161690
    366    358    367     1   115.6031000 408.161690
    368    360    369     1   115.6031000 408.161690
    368    360    370     1   115.6031000 408.161690
    369    360    370     1   115.6031000 408.161690
    371    361    372     1   115.6031000 408.161690
    371    361    373     1   115.6031000 408.161690
    372    361    373     1   115.6031000 408.161690

[ dihedrals ]
;    ai     aj     ak     al funct         c0         c1         c2         c3         c4         c5
      1      2      3      4     1  180.0000000  6.4108617  2
      1      2      3     25     1  180.0000000  6.4108617  2
      2      3      4      5     1  180.0000000  15.3215155  2
      2      3      4     29     1  180.0000000  15.3215155  2
      2      3     25     15     1  180.0000000  15.3215155  2
      2      3     25     44     1  180.0000000  15.3215155  2
      3      2      1     26     1  0.0000000  0.1982205  3
      3      2      1     27     1  0.0000000  0.1982205  3
      3      2      1     28     1  0.0000000  0.1982205  3
      3      4      5      6     1  180.0000000  15.3215155  2
      3      4      5     30     1  180.0000000  15.3215155  2
      3     25     15      6     1  180.0000000  15.3215155  2
      3     25     15     16     1  180.0000000  15.3215155  2
      4      3     25     15     1  180.0000000  15.3215155  2
      4      3     25     44     1  180.0000000  15.3215155  2
      4      5      6      7     1  180.0000000  15.3215155  2
      4      5      6     15     1  180.0000000  15.3215155  2
      5      4      3     25     1  180.0000000  15.3215155  2
      5      6      7      8     1  180.0000000  4.8669776  2
      5      6      7     14     1  180.0000000  4.8669776  2
      5      6     15     16     1  180.0000000  15.3215155  2
      5      6     15     25     1  180.0000000  15.3215155  2
      6      5      4     29     1  180.0000000  15.3215155  2
      6      7      8      9     1  180.0000000  15.3215155  2
      6      7      8     31     1  180.0000000  15.3215155  2
      6      7     14     13     1  180.0000000  15.3215155  2
      6      7     14     34     1  180.0000000  15.3215155  2
      6     15     16     17     1  180.0000000  4.8669776  2
      6     15     16     24     1  180.0000000  4.8669776  2
      6     15     25     44     1  180.0000000  15.3215155  2
      7      6      5     30     1  180.0000000  15.3215155  2
      7      6     15     16     1  180.0000000  15.3215155  2
      7      6     15     25     1  180.0000000  15.3215155  2
      7      8      9     10     1  180.0000000  15.3215155  2
      7      8      9     12     1  180.0000000  15.3215155  2
      7     14     13     12     1  180.0000000  15.3215155  2
      7     14     13     33     1  180.0000000  15.3215155  2
      8      7      6     15     1  180.0000000  4.8669776  2
      8      7     14     13     1  180.0000000  15.3215155  2
      8      7     14     34     1  180.0000000  15.3215155  2
      8      9     10     11     1  180.0000000  4.1731909  2
      8      9     10    354     1  180.0000000  4.1731909  2
      8      9     12     13     1  180.0000000  15.3215155  2
      8      9     12     32     1  180.0000000  15.3215155  2
      9      8      7     14     1  180.0000000  15.3215155  2
      9     10    354    353     1  180.0000000  11.6309081  2
      9     12     13     14     1  180.0000000  15.3215155  2
      9     12     13     33     1  180.0000000  15.3215155  2
     10      9      8     31     1  180.0000000  15.3215155  2
     10      9     12     13     1  180.0000000  15.3215155  2
     10      9     12     32     1  180.0000000  15.3215155  2
     10    354    353    355     1  0.0000000  0.1982205  3
     10    354    353    356     1  0.0000000  0.1982205  3
     10    354    353    357     1  0.0000000  0.1982205  3
     11     10      9     12     1  180.0000000  4.1731909  2
     11     10    354    353     1  180.0000000  4.8693776  2
     11     10    354    353     1  180.0000000  0.7025718  1
     12      9      8     31     1  180.0000000  15.3215155  2
     12      9     10    354     1  180.0000000  4.1731909  2
     12     13     14     34     1  180.0000000  15.3215155  2
     14      7      6     15     1  180.0000000  4.8669776  2
     14      7      8     31     1  180.0000000  15.3215155  2
     14     13     12     32     1  180.0000000  15.3215155  2
     15      6      5     30     1  180.0000000  15.3215155  2
     15     16     17     18     1  180.0000000  15.3215155  2
     15     16     17     35     1  180.0000000  15.3215155  2
     15     16     24     23     1  180.0000000  15.3215155  2
     15     16     24     43     1  180.0000000  15.3215155  2
     16     15     25     44     1  180.0000000  15.3215155  2
     16     17     18     19     1  180.0000000  15.3215155  2
     16     17     18     22     1  180.0000000  15.3215155  2
     16     24     23     22     1  180.0000000  15.3215155  2
     16     24     23     42     1  180.0000000  15.3215155  2
     17     16     15     25     1  180.0000000  4.8669776  2
     17     16     24     23     1  180.0000000  15.3215155  2
     17     16     24     43     1  180.0000000  15.3215155  2
     17     18     19     20     1  0.0000000  0.1115010  3
     17     18     19     21     1  0.0000000  0.1115010  3
     17     18     19     36     1  0.0000000  0.1115010  3
     17     18     22     23     1  180.0000000  15.3215155  2
     17     18     22     41     1  180.0000000  15.3215155  2
     18     17     16     24     1  180.0000000  15.3215155  2
     18     19     20     37     1  0.0000000  0.4834079  3
     18     19     20     38     1  0.0000000  0.4834079  3
     18     19     20     39     1  0.0000000  0.4834079  3
     18     19     21     40     1  0.0000000  0.7624859  2
     18     19     21     40     1  0.0000000  0.1243628  3
     18     19     21     54     1  180.0000000  -2.8834993  2
     18     19     21     54     1  0.0000000  1.1413309  1
     18     22     23     24     1  180.0000000  15.3215155  2
     18     22     23     42     1  180.0000000  15.3215155  2
     19     18     17     35     1  180.0000000  15.3215155  2
     19     18     22     23     1  180.0000000  15.3215155  2
     19     18     22     41     1  180.0000000  15.3215155  2
     19     21     54     53     1  180.0000000  7.5690543  2
     19     21     54     53     1  0.0000000  -0.2015131  1
     19     21     54     55     1  180.0000000  12.9785537  2
     19     21     54     55     1  0.0000000  -1.7791009  1
     20     19     18     22     1  0.0000000  0.1115010  3
     20     19     21     40     1  0.0000000  0.7624859  2
     20     19     21     40     1  0.0000000  0.1243628  3
     20     19     21     54     1  180.0000000  -0.6228629  4
     20     19     21     54     1  180.0000000  -0.5147696  3
     20     19     21     54     1  0.0000000  1.2298012  2
     20     19     21     54     1  0.0000000  -1.2652947  1
     21     19     18     22     1  0.0000000  0.1115010  3
     21     19     20     37     1  0.0000000  0.4834079  3
     21     19     20     38     1  0.0000000  0.4834079  3
     21     19     20     39     1  0.0000000  0.4834079  3
     21     54     53     52     1  180.0000000  4.1731909  2
     21     54     53     56     1  180.0000000  4.1731909  2
     22     18     17     35     1  180.0000000  15.3215155  2
     22     18     19     36     1  0.0000000  0.1115010  3
     22     23     24     43     1  180.0000000  15.3215155  2
     24     16     15     25     1  180.0000000  4.8669776  2
     24     16     17     35     1  180.0000000  15.3215155  2
     24     23     22     41     1  180.0000000  15.3215155  2
     25      3      4     29     1  180.0000000  15.3215155  2
     29      4      5     30     1  180.0000000  15.3215155  2
     32     12     13     33     1  180.0000000  15.3215155  2
     33     13     14     34     1  180.0000000  15.3215155  2
     36     19     20     37     1  0.0000000  0.7999501  3
     36     19     20     38     1  0.0000000  0.7999501  3
     36     19     20     39     1  0.0000000  0.7999501  3
     36     19     21     40     1  0.0000000  0.7624859  2
     36     19     21     40     1  0.0000000  0.1243628  3
     36     19     21     54     1  0.0000000  0.7624859  2
     36     19     21     54     1  0.0000000  0.1243628  3
     40     21     54     53     1  180.0000000  7.5690543  2
     40     21     54     53     1  0.0000000  -0.2015131  1
     40     21     54     55     1  180.0000000  9.8256037  2
     40     21     54     55     1  0.0000000  5.2557574  1
     41     22     23     42     1  180.0000000  15.3215155  2
     42     23     24     43     1  180.0000000  15.3215155  2
     45     46     47     48     1  180.0000000  6.4108617  2
     45     46     47     69     1  180.0000000  6.4108617  2
     46     47     48     49     1  180.0000000  15.3215155  2
     46     47     48     73     1  180.0000000  15.3215155  2
     46     47     69     59     1  180.0000000  15.3215155  2
     46     47     69     88     1  180.0000000  15.3215155  2
     47     46     45     70     1  0.0000000  0.1982205  3
     47     46     45     71     1  0.0000000  0.1982205  3
     47     46     45     72     1  0.0000000  0.1982205  3
     47     48     49     50     1  180.0000000  15.3215155  2
     47     48     49     74     1  180.0000000  15.3215155  2
     47     69     59     50     1  180.0000000  15.3215155  2
     47     69     59     60     1  180.0000000  15.3215155  2
     48     47     69     59     1  180.0000000  15.3215155  2
     48     47     69     88     1  180.0000000  15.3215155  2
     48     49     50     51     1  180.0000000  15.3215155  2
     48     49     50     59     1  180.0000000  15.3215155  2
     49     48     47     69     1  180.0000000  15.3215155  2
     49     50     51     52     1  180.0000000  4.8669776  2
     49     50     51     58     1  180.0000000  4.8669776  2
     49     50     59     60     1  180.0000000  15.3215155  2
     49     50     59     69     1  180.0000000  15.3215155  2
     50     49     48     73     1  180.0000000  15.3215155  2
     50     51     52     53     1  180.0000000  15.3215155  2
     50     51     52     75     1  180.0000000  15.3215155  2
     50     51     58     57     1  180.0000000  15.3215155  2
     50     51     58     78     1  180.0000000  15.3215155  2
     50     59     60     61     1  180.0000000  4.8669776  2
     50     59     60     68     1  180.0000000  4.8669776  2
     50     59     69     88     1  180.0000000  15.3215155  2
     51     50     49     74     1  180.0000000  15.3215155  2
     51     50     59     60     1  180.0000000  15.3215155  2
     51     50     59     69     1  180.0000000  15.3215155  2
     51     52     53     54     1  180.0000000  15.3215155  2
     51     52     53     56     1  180.0000000  15.3215155  2
     51     58     57     56     1  180.0000000  15.3215155  2
     51     58     57     77     1  180.0000000  15.3215155  2
     52     51     50     59     1  180.0000000  4.8669776  2
     52     51     58     57     1  180.0000000  15.3215155  2
     52     51     58     78     1  180.0000000  15.3215155  2
     52     53     54     55     1  180.0000000  4.1731909  2
     52     53     56     57     1  180.0000000  15.3215155  2
     52     53     56     76     1  180.0000000  15.3215155  2
     53     52     51     58     1  180.0000000  15.3215155  2
     53     56     57     58     1  180.0000000  15.3215155  2
     53     56     57     77     1  180.0000000  15.3215155  2
     54     53     52     75     1  180.0000000  15.3215155  2
     54     53     56     57     1  180.0000000  15.3215155  2
     54     53     56     76     1  180.0000000  15.3215155  2
     55     54     53     56     1  180.0000000  4.1731909  2
     56     53     52     75     1  180.0000000  15.3215155  2
     56     57     58     78     1  180.0000000  15.3215155  2
     58     51     50     59     1  180.0000000  4.8669776  2
     58     51     52     75     1  180.0000000  15.3215155  2
     58     57     56     76     1  180.0000000  15.3215155  2
     59     50     49     74     1  180.0000000  15.3215155  2
     59     60     61     62     1  180.0000000  15.3215155  2
     59     60     61     79     1  180.0000000  15.3215155  2
     59     60     68     67     1  180.0000000  15.3215155  2
     59     60     68     87     1  180.0000000  15.3215155  2
     60     59     69     88     1  180.0000000  15.3215155  2
     60     61     62     63     1  180.0000000  15.3215155  2
     60     61     62     66     1  180.0000000  15.3215155  2
     60     68     67     66     1  180.0000000  15.3215155  2
     60     68     67     86     1  180.0000000  15.3215155  2
     61     60     59     69     1  180.0000000  4.8669776  2
     61     60     68     67     1  180.0000000  15.3215155  2
     61     60     68     87     1  180.0000000  15.3215155  2
     61     62     63     64     1  0.0000000  0.1115010  3
     61     62     63     65     1  0.0000000  0.1115010  3
     61     62     63     80     1  0.0000000  0.1115010  3
     61     62     66     67     1  180.0000000  15.3215155  2
     61     62     66     85     1  180.0000000  15.3215155  2
     62     61     60     68     1  180.0000000  15.3215155  2
     62     63     64     81     1  0.0000000  0.4834079  3
     62     63     64     82     1  0.0000000  0.4834079  3
     62     63     64     83     1  0.0000000  0.4834079  3
     62     63     65     84     1  0.0000000  0.7624859  2
     62     63     65     84     1  0.0000000  0.1243628  3
     62     63     65     98     1  180.0000000  -2.8834993  2
     62     63     65     98     1  0.0000000  1.1413309  1
     62     66     67     68     1  180.0000000  15.3215155  2
     62     66     67     86     1  180.0000000  15.3215155  2
     63     62     61     79     1  180.0000000  15.3215155  2
     63     62     66     67     1  180.0000000  15.3215155  2
     63     62     66     85     1  180.0000000  15.3215155  2
     63     65     98     97     1  180.0000000  7.5690543  2
     63     65     98     97     1  0.0000000  -0.2015131  1
     63     65     98     99     1  180.0000000  12.9785537  2
     63     65     98     99     1  0.0000000  -1.7791009  1
     64     63     62     66     1  0.0000000  0.1115010  3
     64     63     65     84     1  0.0000000  0.7624859  2
     64     63     65     84     1  0.0000000  0.1243628  3
     64     63     65     98     1  180.0000000  -0.6228629  4
     64     63     65     98     1  180.0000000  -0.5147696  3
     64     63     65     98     1  0.0000000  1.2298012  2
     64     63     65     98     1  0.0000000  -1.2652947  1
     65     63     62     66     1  0.0000000  0.1115010  3
     65     63     64     81     1  0.0000000  0.4834079  3
     65     63     64     82     1  0.0000000  0.4834079  3
     65     63     64     83     1  0.0000000  0.4834079  3
     65     98     97     96     1  180.0000000  4.1731909  2
     65     98     97    100     1  180.0000000  4.1731909  2
     66     62     61     79     1  180.0000000  15.3215155  2
     66     62     63     80     1  0.0000000  0.1115010  3
     66     67     68     87     1  180.0000000  15.3215155  2
     68     60     59     69     1  180.0000000  4.8669776  2
     68     60     61     79     1  180.0000000  15.3215155  2
     68     67     66     85     1  180.0000000  15.3215155  2
     69     47     48     73     1  180.0000000  15.3215155  2
     73     48     49     74     1  180.0000000  15.3215155  2
     76     56     57     77     1  180.0000000  15.3215155  2
     77     57     58     78     1  180.0000000  15.3215155  2
     80     63     64     81     1  0.0000000  0.7999501  3
     80     63     64     82     1  0.0000000  0.7999501  3
     80     63     64     83     1  0.0000000  0.7999501  3
     80     63     65     84     1  0.0000000  0.7624859  2
     80     63     65     84     1  0.0000000  0.1243628  3
     80     63     65     98     1  0.0000000  0.7624859  2
     80     63     65     98     1  0.0000000  0.1243628  3
     84     65     98     97     1  180.0000000  7.5690543  2
     84     65     98     97     1  0.0000000  -0.2015131  1
     84     65     98     99     1  180.0000000  9.8256037  2
     84     65     98     99     1  0.0000000  5.2557574  1
     85     66     67     86     1  180.0000000  15.3215155  2
     86     67     68     87     1  180.0000000  15.3215155  2
     89     90     91     92     1  180.0000000  6.4108617  2
     89     90     91    113     1  180.0000000  6.4108617  2
     90     91     92     93     1  180.0000000  15.3215155  2
     90     91     92    117     1  180.0000000  15.3215155  2
     90     91    113    103     1  180.0000000  15.3215155  2
     90     91    113    132     1  180.0000000  15.3215155  2
     91     90     89    114     1  0.0000000  0.1982205  3
     91     90     89    115     1  0.0000000  0.1982205  3
     91     90     89    116     1  0.0000000  0.1982205  3
     91     92     93     94     1  180.0000000  15.3215155  2
     91     92     93    118     1  180.0000000  15.3215155  2
     91    113    103     94     1  180.0000000  15.3215155  2
     91    113    103    104     1  180.0000000  15.3215155  2
     92     91    113    103     1  180.0000000  15.3215155  2
     92     91    113    132     1  180.0000000  15.3215155  2
     92     93     94     95     1  180.0000000  15.3215155  2
     92     93     94    103     1  180.0000000  15.3215155  2
     93     92     91    113     1  180.0000000  15.3215155  2
     93     94     95     96     1  180.0000000  4.8669776  2
     93     94     95    102     1  180.0000000  4.8669776  2
     93     94    103    104     1  180.0000000  15.3215155  2
     93     94    103    113     1  180.0000000  15.3215155  2
     94     93     92    117     1  180.0000000  15.3215155  2
     94     95     96     97     1  180.0000000  15.3215155  2
     94     95     96    119     1  180.0000000  15.3215155  2
     94     95    102    101     1  180.0000000  15.3215155  2
     94     95    102    122     1  180.0000000  15.3215155  2
     94    103    104    105     1  180.0000000  4.8669776  2
     94    103    104    112     1  180.0000000  4.8669776  2
     94    103    113    132     1  180.0000000  15.3215155  2
     95     94     93    118     1  180.0000000  15.3215155  2
     95     94    103    104     1  180.0000000  15.3215155  2
     95     94    103    113     1  180.0000000  15.3215155  2
     95     96     97     98     1  180.0000000  15.3215155  2
     95     96     97    100     1  180.0000000  15.3215155  2
     95    102    101    100     1  180.0000000  15.3215155  2
     95    102    101    121     1  180.0000000  15.3215155  2
     96     95     94    103     1  180.0000000  4.8669776  2
     96     95    102    101     1  180.0000000  15.3215155  2
     96     95    102    122     1  180.0000000  15.3215155  2
     96     97     98     99     1  180.0000000  4.1731909  2
     96     97    100    101     1  180.0000000  15.3215155  2
     96     97    100    120     1  180.0000000  15.3215155  2
     97     96     95    102     1  180.0000000  15.3215155  2
     97    100    101    102     1  180.0000000  15.3215155  2
     97    100    101    121     1  180.0000000  15.3215155  2
     98     97     96    119     1  180.0000000  15.3215155  2
     98     97    100    101     1  180.0000000  15.3215155  2
     98     97    100    120     1  180.0000000  15.3215155  2
     99     98     97    100     1  180.0000000  4.1731909  2
    100     97     96    119     1  180.0000000  15.3215155  2
    100    101    102    122     1  180.0000000  15.3215155  2
    102     95     94    103     1  180.0000000  4.8669776  2
    102     95     96    119     1  180.0000000  15.3215155  2
    102    101    100    120     1  180.0000000  15.3215155  2
    103     94     93    118     1  180.0000000  15.3215155  2
    103    104    105    106     1  180.0000000  15.3215155  2
    103    104    105    123     1  180.0000000  15.3215155  2
    103    104    112    111     1  180.0000000  15.3215155  2
    103    104    112    131     1  180.0000000  15.3215155  2
    104    103    113    132     1  180.0000000  15.3215155  2
    104    105    106    107     1  180.0000000  15.3215155  2
    104    105    106    110     1  180.0000000  15.3215155  2
    104    112    111    110     1  180.0000000  15.3215155  2
    104    112    111    130     1  180.0000000  15.3215155  2
    105    104    103    113     1  180.0000000  4.8669776  2
    105    104    112    111     1  180.0000000  15.3215155  2
    105    104    112    131     1  180.0000000  15.3215155  2
    105    106    107    108     1  0.0000000  0.1115010  3
    105    106    107    109     1  0.0000000  0.1115010  3
    105    106    107    124     1  0.0000000  0.1115010  3
    105    106    110    111     1  180.0000000  15.3215155  2
    105    106    110    129     1  180.0000000  15.3215155  2
    106    105    104    112     1  180.0000000  15.3215155  2
    106    107    108    125     1  0.0000000  0.4834079  3
    106    107    108    126     1  0.0000000  0.4834079  3
    106    107    108    127     1  0.0000000  0.4834079  3
    106    107    109    128     1  0.0000000  0.7624859  2
    106    107    109    128     1  0.0000000  0.1243628  3
    106    107    109    142     1  180.0000000  -2.8834993  2
    106    107    109    142     1  0.0000000  1.1413309  1
    106    110    111    112     1  180.0000000  15.3215155  2
    106    110    111    130     1  180.0000000  15.3215155  2
    107    106    105    123     1  180.0000000  15.3215155  2
    107    106    110    111     1  180.0000000  15.3215155  2
    107    106    110    129     1  180.0000000  15.3215155  2
    107    109    142    141     1  180.0000000  7.5690543  2
    107    109    142    141     1  0.0000000  -0.2015131  1
    107    109    142    143     1  180.0000000  12.9785537  2
    107    109    142    143     1  0.0000000  -1.7791009  1
    108    107    106    110     1  0.0000000  0.1115010  3
    108    107    109    128     1  0.0000000  0.7624859  2
    108    107    109    128     1  0.0000000  0.1243628  3
    108    107    109    142     1  180.0000000  -0.6228629  4
    108    107    109    142     1  180.0000000  -0.5147696  3
    108    107    109    142     1  0.0000000  1.2298012  2
    108    107    109    142     1  0.0000000  -1.2652947  1
    109    107    106    110     1  0.0000000  0.1115010  3
    109    107    108    125     1  0.0000000  0.4834079  3
    109    107    108    126     1  0.0000000  0.4834079  3
    109    107    108    127     1  0.0000000  0.4834079  3
    109    142    141    140     1  180.0000000  4.1731909  2
    109    142    141    144     1  180.0000000  4.1731909  2
    110    106    105    123     1  180.0000000  15.3215155  2
    110    106    107    124     1  0.0000000  0.1115010  3
    110    111    112    131     1  180.0000000  15.3215155  2
    112    104    103    113     1  180.0000000  4.8669776  2
    112    104    105    123     1  180.0000000  15.3215155  2
    112    111    110    129     1  180.0000000  15.3215155  2
    113     91     92    117     1  180.0000000  15.3215155  2
    117     92     93    118     1  180.0000000  15.3215155  2
    120    100    101    121     1  180.0000000  15.3215155  2
    121    101    102    122     1  180.0000000  15.3215155  2
    124    107    108    125     1  0.0000000  0.7999501  3
    124    107    108    126     1  0.0000000  0.7999501  3
    124    107    108    127     1  0.0000000  0.7999501  3
    124    107    109    128     1  0.0000000  0.7624859  2
    124    107    109    128     1  0.0000000  0.1243628  3
    124    107    109    142     1  0.0000000  0.7624859  2
    124    107    109    142     1  0.0000000  0.1243628  3
    128    109    142    141     1  180.0000000  7.5690543  2
    128    109    142    141     1  0.0000000  -0.2015131  1
    128    109    142    143     1  180.0000000  9.8256037  2
    128    109    142    143     1  0.0000000  5.2557574  1
    129    110    111    130     1  180.0000000  15.3215155  2
    130    111    112    131     1  180.0000000  15.3215155  2
    133    134    135    136     1  180.0000000  6.4108617  2
    133    134    135    157     1  180.0000000  6.4108617  2
    134    135    136    137     1  180.0000000  15.3215155  2
    134    135    136    161     1  180.0000000  15.3215155  2
    134    135    157    147     1  180.0000000  15.3215155  2
    134    135    157    176     1  180.0000000  15.3215155  2
    135    134    133    158     1  0.0000000  0.1982205  3
    135    134    133    159     1  0.0000000  0.1982205  3
    135    134    133    160     1  0.0000000  0.1982205  3
    135    136    137    138     1  180.0000000  15.3215155  2
    135    136    137    162     1  180.0000000  15.3215155  2
    135    157    147    138     1  180.0000000  15.3215155  2
    135    157    147    148     1  180.0000000  15.3215155  2
    136    135    157    147     1  180.0000000  15.3215155  2
    136    135    157    176     1  180.0000000  15.3215155  2
    136    137    138    139     1  180.0000000  15.3215155  2
    136    137    138    147     1  180.0000000  15.3215155  2
    137    136    135    157     1  180.0000000  15.3215155  2
    137    138    139    140     1  180.0000000  4.8669776  2
    137    138    139    146     1  180.0000000  4.8669776  2
    137    138    147    148     1  180.0000000  15.3215155  2
    137    138    147    157     1  180.0000000  15.3215155  2
    138    137    136    161     1  180.0000000  15.3215155  2
    138    139    140    141     1  180.0000000  15.3215155  2
    138    139    140    163     1  180.0000000  15.3215155  2
    138    139    146    145     1  180.0000000  15.3215155  2
    138    139    146    166     1  180.0000000  15.3215155  2
    138    147    148    149     1  180.0000000  4.8669776  2
    138    147    148    156     1  180.0000000  4.8669776  2
    138    147    157    176     1  180.0000000  15.3215155  2
    139    138    137    162     1  180.0000000  15.3215155  2
    139    138    147    148     1  180.0000000  15.3215155  2
    139    138    147    157     1  180.0000000  15.3215155  2
    139    140    141    142     1  180.0000000  15.3215155  2
    139    140    141    144     1  180.0000000  15.3215155  2
    139    146    145    144     1  180.0000000  15.3215155  2
    139    146    145    165     1  180.0000000  15.3215155  2
    140    139    138    147     1  180.0000000  4.8669776  2
    140    139    146    145     1  180.0000000  15.3215155  2
    140    139    146    166     1  180.0000000  15.3215155  2
    140    141    142    143     1  180.0000000  4.1731909  2
    140    141    144    145     1  180.0000000  15.3215155  2
    140    141    144    164     1  180.0000000  15.3215155  2
    141    140    139    146     1  180.0000000  15.3215155  2
    141    144    145    146     1  180.0000000  15.3215155  2
    141    144    145    165     1  180.0000000  15.3215155  2
    142    141    140    163     1  180.0000000  15.3215155  2
    142    141    144    145     1  180.0000000  15.3215155  2
    142    141    144    164     1  180.0000000  15.3215155  2
    143    142    141    144     1  180.0000000  4.1731909  2
    144    141    140    163     1  180.0000000  15.3215155  2
    144    145    146    166     1  180.0000000  15.3215155  2
    146    139    138    147     1  180.0000000  4.8669776  2
    146    139    140    163     1  180.0000000  15.3215155  2
    146    145    144    164     1  180.0000000  15.3215155  2
    147    138    137    162     1  180.0000000  15.3215155  2
    147    148    149    150     1  180.0000000  15.3215155  2
    147    148    149    167     1  180.0000000  15.3215155  2
    147    148    156    155     1  180.0000000  15.3215155  2
    147    148    156    175     1  180.0000000  15.3215155  2
    148    147    157    176     1  180.0000000  15.3215155  2
    148    149    150    151     1  180.0000000  15.3215155  2
    148    149    150    154     1  180.0000000  15.3215155  2
    148    156    155    154     1  180.0000000  15.3215155  2
    148    156    155    174     1  180.0000000  15.3215155  2
    149    148    147    157     1  180.0000000  4.8669776  2
    149    148    156    155     1  180.0000000  15.3215155  2
    149    148    156    175     1  180.0000000  15.3215155  2
    149    150    151    152     1  0.0000000  0.1115010  3
    149    150    151    153     1  0.0000000  0.1115010  3
    149    150    151    168     1  0.0000000  0.1115010  3
    149    150    154    155     1  180.0000000  15.3215155  2
    149    150    154    173     1  180.0000000  15.3215155  2
    150    149    148    156     1  180.0000000  15.3215155  2
    150    151    152    169     1  0.0000000  0.4834079  3
    150    151    152    170     1  0.0000000  0.4834079  3
    150    151    152    171     1  0.0000000  0.4834079  3
    150    151    153    172     1  0.0000000  0.7624859  2
    150    151    153    172     1  0.0000000  0.1243628  3
    150    151    153    186     1  180.0000000  -2.8834993  2
    150    151    153    186     1  0.0000000  1.1413309  1
    150    154    155    156     1  180.0000000  15.3215155  2
    150    154    155    174     1  180.0000000  15.3215155  2
    151    150    149    167     1  180.0000000  15.3215155  2
    151    150    154    155     1  180.0000000  15.3215155  2
    151    150    154    173     1  180.0000000  15.3215155  2
    151    153    186    185     1  180.0000000  7.5690543  2
    151    153    186    185     1  0.0000000  -0.2015131  1
    151    153    186    187     1  180.0000000  12.9785537  2
    151    153    186    187     1  0.0000000  -1.7791009  1
    152    151    150    154     1  0.0000000  0.1115010  3
    152    151    153    172     1  0.0000000  0.7624859  2
    152    151    153    172     1  0.0000000  0.1243628  3
    152    151    153    186     1  180.0000000  -0.6228629  4
    152    151    153    186     1  180.0000000  -0.5147696  3
    152    151    153    186     1  0.0000000  1.2298012  2
    152    151    153    186     1  0.0000000  -1.2652947  1
    153    151    150    154     1  0.0000000  0.1115010  3
    153    151    152    169     1  0.0000000  0.4834079  3
    153    151    152    170     1  0.0000000  0.4834079  3
    153    151    152    171     1  0.0000000  0.4834079  3
    153    186    185    184     1  180.0000000  4.1731909  2
    153    186    185    188     1  180.0000000  4.1731909  2
    154    150    149    167     1  180.0000000  15.3215155  2
    154    150    151    168     1  0.0000000  0.1115010  3
    154    155    156    175     1  180.0000000  15.3215155  2
    156    148    147    157     1  180.0000000  4.8669776  2
    156    148    149    167     1  180.0000000  15.3215155  2
    156    155    154    173     1  180.0000000  15.3215155  2
    157    135    136    161     1  180.0000000  15.3215155  2
    161    136    137    162     1  180.0000000  15.3215155  2
    164    144    145    165     1  180.0000000  15.3215155  2
    165    145    146    166     1  180.0000000  15.3215155  2
    168    151    152    169     1  0.0000000  0.7999501  3
    168    151    152    170     1  0.0000000  0.7999501  3
    168    151    152    171     1  0.0000000  0.7999501  3
    168    151    153    172     1  0.0000000  0.7624859  2
    168    151    153    172     1  0.0000000  0.1243628  3
    168    151    153    186     1  0.0000000  0.7624859  2
    168    151    153    186     1  0.0000000  0.1243628  3
    172    153    186    185     1  180.0000000  7.5690543  2
    172    153    186    185     1  0.0000000  -0.2015131  1
    172    153    186    187     1  180.0000000  9.8256037  2
    172    153    186    187     1  0.0000000  5.2557574  1
    173    154    155    174     1  180.0000000  15.3215155  2
    174    155    156    175     1  180.0000000  15.3215155  2
    177    178    179    180     1  180.0000000  6.4108617  2
    177    178    179    201     1  180.0000000  6.4108617  2
    178    179    180    181     1  180.0000000  15.3215155  2
    178    179    180    205     1  180.0000000  15.3215155  2
    178    179    201    191     1  180.0000000  15.3215155  2
    178    179    201    220     1  180.0000000  15.3215155  2
    179    178    177    202     1  0.0000000  0.1982205  3
    179    178    177    203     1  0.0000000  0.1982205  3
    179    178    177    204     1  0.0000000  0.1982205  3
    179    180    181    182     1  180.0000000  15.3215155  2
    179    180    181    206     1  180.0000000  15.3215155  2
    179    201    191    182     1  180.0000000  15.3215155  2
    179    201    191    192     1  180.0000000  15.3215155  2
    180    179    201    191     1  180.0000000  15.3215155  2
    180    179    201    220     1  180.0000000  15.3215155  2
    180    181    182    183     1  180.0000000  15.3215155  2
    180    181    182    191     1  180.0000000  15.3215155  2
    181    180    179    201     1  180.0000000  15.3215155  2
    181    182    183    184     1  180.0000000  4.8669776  2
    181    182    183    190     1  180.0000000  4.8669776  2
    181    182    191    192     1  180.0000000  15.3215155  2
    181    182    191    201     1  180.0000000  15.3215155  2
    182    181    180    205     1  180.0000000  15.3215155  2
    182    183    184    185     1  180.0000000  15.3215155  2
    182    183    184    207     1  180.0000000  15.3215155  2
    182    183    190    189     1  180.0000000  15.3215155  2
    182    183    190    210     1  180.0000000  15.3215155  2
    182    191    192    193     1  180.0000000  4.8669776  2
    182    191    192    200     1  180.0000000  4.8669776  2
    182    191    201    220     1  180.0000000  15.3215155  2
    183    182    181    206     1  180.0000000  15.3215155  2
    183    182    191    192     1  180.0000000  15.3215155  2
    183    182    191    201     1  180.0000000  15.3215155  2
    183    184    185    186     1  180.0000000  15.3215155  2
    183    184    185    188     1  180.0000000  15.3215155  2
    183    190    189    188     1  180.0000000  15.3215155  2
    183    190    189    209     1  180.0000000  15.3215155  2
    184    183    182    191     1  180.0000000  4.8669776  2
    184    183    190    189     1  180.0000000  15.3215155  2
    184    183    190    210     1  180.0000000  15.3215155  2
    184    185    186    187     1  180.0000000  4.1731909  2
    184    185    188    189     1  180.0000000  15.3215155  2
    184    185    188    208     1  180.0000000  15.3215155  2
    185    184    183    190     1  180.0000000  15.3215155  2
    185    188    189    190     1  180.0000000  15.3215155  2
    185    188    189    209     1  180.0000000  15.3215155  2
    186    185    184    207     1  180.0000000  15.3215155  2
    186    185    188    189     1  180.0000000  15.3215155  2
    186    185    188    208     1  180.0000000  15.3215155  2
    187    186    185    188     1  180.0000000  4.1731909  2
    188    185    184    207     1  180.0000000  15.3215155  2
    188    189    190    210     1  180.0000000  15.3215155  2
    190    183    182    191     1  180.0000000  4.8669776  2
    190    183    184    207     1  180.0000000  15.3215155  2
    190    189    188    208     1  180.0000000  15.3215155  2
    191    182    181    206     1  180.0000000  15.3215155  2
    191    192    193    194     1  180.0000000  15.3215155  2
    191    192    193    211     1  180.0000000  15.3215155  2
    191    192    200    199     1  180.0000000  15.3215155  2
    191    192    200    219     1  180.0000000  15.3215155  2
    192    191    201    220     1  180.0000000  15.3215155  2
    192    193    194    195     1  180.0000000  15.3215155  2
    192    193    194    198     1  180.0000000  15.3215155  2
    192    200    199    198     1  180.0000000  15.3215155  2
    192    200    199    218     1  180.0000000  15.3215155  2
    193    192    191    201     1  180.0000000  4.8669776  2
    193    192    200    199     1  180.0000000  15.3215155  2
    193    192    200    219     1  180.0000000  15.3215155  2
    193    194    195    196     1  0.0000000  0.1115010  3
    193    194    195    197     1  0.0000000  0.1115010  3
    193    194    195    212     1  0.0000000  0.1115010  3
    193    194    198    199     1  180.0000000  15.3215155  2
    193    194    198    217     1  180.0000000  15.3215155  2
    194    193    192    200     1  180.0000000  15.3215155  2
    194    195    196    213     1  0.0000000  0.4834079  3
    194    195    196    214     1  0.0000000  0.4834079  3
    194    195    196    215     1  0.0000000  0.4834079  3
    194    195    197    216     1  0.0000000  0.7624859  2
    194    195    197    216     1  0.0000000  0.1243628  3
    194    195    197    230     1  180.0000000  -2.8834993  2
    194    195    197    230     1  0.0000000  1.1413309  1
    194    198    199    200     1  180.0000000  15.3215155  2
    194    198    199    218     1  180.0000000  15.3215155  2
    195    194    193    211     1  180.0000000  15.3215155  2
    195    194    198    199     1  180.0000000  15.3215155  2
    195    194    198    217     1  180.0000000  15.3215155  2
    195    197    230    229     1  180.0000000  7.5690543  2
    195    197    230    229     1  0.0000000  -0.2015131  1
    195    197    230    231     1  180.0000000  12.9785537  2
    195    197    230    231     1  0.0000000  -1.7791009  1
    196    195    194    198     1  0.0000000  0.1115010  3
    196    195    197    216     1  0.0000000  0.7624859  2
    196    195    197    216     1  0.0000000  0.1243628  3
    196    195    197    230     1  180.0000000  -0.6228629  4
    196    195    197    230     1  180.0000000  -0.5147696  3
    196    195    197    230     1  0.0000000  1.2298012  2
    196    195    197    230     1  0.0000000  -1.2652947  1
    197    195    194    198     1  0.0000000  0.1115010  3
    197    195    196    213     1  0.0000000  0.4834079  3
    197    195    196    214     1  0.0000000  0.4834079  3
    197    195    196    215     1  0.0000000  0.4834079  3
    197    230    229    228     1  180.0000000  4.1731909  2
    197    230    229    232     1  180.0000000  4.1731909  2
    198    194    193    211     1  180.0000000  15.3215155  2
    198    194    195    212     1  0.0000000  0.1115010  3
    198    199    200    219     1  180.0000000  15.3215155  2
    200    192    191    201     1  180.0000000  4.8669776  2
    200    192    193    211     1  180.0000000  15.3215155  2
    200    199    198    217     1  180.0000000  15.3215155  2
    201    179    180    205     1  180.0000000  15.3215155  2
    205    180    181    206     1  180.0000000  15.3215155  2
    208    188    189    209     1  180.0000000  15.3215155  2
    209    189    190    210     1  180.0000000  15.3215155  2
    212    195    196    213     1  0.0000000  0.7999501  3
    212    195    196    214     1  0.0000000  0.7999501  3
    212    195    196    215     1  0.0000000  0.7999501  3
    212    195    197    216     1  0.0000000  0.7624859  2
    212    195    197    216     1  0.0000000  0.1243628  3
    212    195    197    230     1  0.0000000  0.7624859  2
    212    195    197    230     1  0.0000000  0.1243628  3
    216    197    230    229     1  180.0000000  7.5690543  2
    216    197    230    229     1  0.0000000  -0.2015131  1
    216    197    230    231     1  180.0000000  9.8256037  2
    216    197    230    231     1  0.0000000  5.2557574  1
    217    198    199    218     1  180.0000000  15.3215155  2
    218    199    200    219     1  180.0000000  15.3215155  2
    221    222    223    224     1  180.0000000  6.4108617  2
    221    222    223    245     1  180.0000000  6.4108617  2
    222    223    224    225     1  180.0000000  15.3215155  2
    222    223    224    249     1  180.0000000  15.3215155  2
    222    223    245    235     1  180.0000000  15.3215155  2
    222    223    245    264     1  180.0000000  15.3215155  2
    223    222    221    246     1  0.0000000  0.1982205  3
    223    222    221    247     1  0.0000000  0.1982205  3
    223    222    221    248     1  0.0000000  0.1982205  3
    223    224    225    226     1  180.0000000  15.3215155  2
    223    224    225    250     1  180.0000000  15.3215155  2
    223    245    235    226     1  180.0000000  15.3215155  2
    223    245    235    236     1  180.0000000  15.3215155  2
    224    223    245    235     1  180.0000000  15.3215155  2
    224    223    245    264     1  180.0000000  15.3215155  2
    224    225    226    227     1  180.0000000  15.3215155  2
    224    225    226    235     1  180.0000000  15.3215155  2
    225    224    223    245     1  180.0000000  15.3215155  2
    225    226    227    228     1  180.0000000  4.8669776  2
    225    226    227    234     1  180.0000000  4.8669776  2
    225    226    235    236     1  180.0000000  15.3215155  2
    225    226    235    245     1  180.0000000  15.3215155  2
    226    225    224    249     1  180.0000000  15.3215155  2
    226    227    228    229     1  180.0000000  15.3215155  2
    226    227    228    251     1  180.0000000  15.3215155  2
    226    227    234    233     1  180.0000000  15.3215155  2
    226    227    234    254     1  180.0000000  15.3215155  2
    226    235    236    237     1  180.0000000  4.8669776  2
    226    235    236    244     1  180.0000000  4.8669776  2
    226    235    245    264     1  180.0000000  15.3215155  2
    227    226    225    250     1  180.0000000  15.3215155  2
    227    226    235    236     1  180.0000000  15.3215155  2
    227    226    235    245     1  180.0000000  15.3215155  2
    227    228    229    230     1  180.0000000  15.3215155  2
    227    228    229    232     1  180.0000000  15.3215155  2
    227    234    233    232     1  180.0000000  15.3215155  2
    227    234    233    253     1  180.0000000  15.3215155  2
    228    227    226    235     1  180.0000000  4.8669776  2
    228    227    234    233     1  180.0000000  15.3215155  2
    228    227    234    254     1  180.0000000  15.3215155  2
    228    229    230    231     1  180.0000000  4.1731909  2
    228    229    232    233     1  180.0000000  15.3215155  2
    228    229    232    252     1  180.0000000  15.3215155  2
    229    228    227    234     1  180.0000000  15.3215155  2
    229    232    233    234     1  180.0000000  15.3215155  2
    229    232    233    253     1  180.0000000  15.3215155  2
    230    229    228    251     1  180.0000000  15.3215155  2
    230    229    232    233     1  180.0000000  15.3215155  2
    230    229    232    252     1  180.0000000  15.3215155  2
    231    230    229    232     1  180.0000000  4.1731909  2
    232    229    228    251     1  180.0000000  15.3215155  2
    232    233    234    254     1  180.0000000  15.3215155  2
    234    227    226    235     1  180.0000000  4.8669776  2
    234    227    228    251     1  180.0000000  15.3215155  2
    234    233    232    252     1  180.0000000  15.3215155  2
    235    226    225    250     1  180.0000000  15.3215155  2
    235    236    237    238     1  180.0000000  15.3215155  2
    235    236    237    255     1  180.0000000  15.3215155  2
    235    236    244    243     1  180.0000000  15.3215155  2
    235    236    244    263     1  180.0000000  15.3215155  2
    236    235    245    264     1  180.0000000  15.3215155  2
    236    237    238    239     1  180.0000000  15.3215155  2
    236    237    238    242     1  180.0000000  15.3215155  2
    236    244    243    242     1  180.0000000  15.3215155  2
    236    244    243    262     1  180.0000000  15.3215155  2
    237    236    235    245     1  180.0000000  4.8669776  2
    237    236    244    243     1  180.0000000  15.3215155  2
    237    236    244    263     1  180.0000000  15.3215155  2
    237    238    239    240     1  0.0000000  0.1115010  3
    237    238    239    241     1  0.0000000  0.1115010  3
    237    238    239    256     1  0.0000000  0.1115010  3
    237    238    242    243     1  180.0000000  15.3215155  2
    237    238    242    261     1  180.0000000  15.3215155  2
    238    237    236    244     1  180.0000000  15.3215155  2
    238    239    240    257     1  0.0000000  0.4834079  3
    238    239    240    258     1  0.0000000  0.4834079  3
    238    239    240    259     1  0.0000000  0.4834079  3
    238    239    241    260     1  0.0000000  0.7624859  2
    238    239    241    260     1  0.0000000  0.1243628  3
    238    239    241    274     1  180.0000000  -2.8834993  2
    238    239    241    274     1  0.0000000  1.1413309  1
    238    242    243    244     1  180.0000000  15.3215155  2
    238    242    243    262     1  180.0000000  15.3215155  2
    239    238    237    255     1  180.0000000  15.3215155  2
    239    238    242    243     1  180.0000000  15.3215155  2
    239    238    242    261     1  180.0000000  15.3215155  2
    239    241    274    273     1  180.0000000  7.5690543  2
    239    241    274    273     1  0.0000000  -0.2015131  1
    239    241    274    275     1  180.0000000  12.9785537  2
    239    241    274    275     1  0.0000000  -1.7791009  1
    240    239    238    242     1  0.0000000  0.1115010  3
    240    239    241    260     1  0.0000000  0.7624859  2
    240    239    241    260     1  0.0000000  0.1243628  3
    240    239    241    274     1  180.0000000  -0.6228629  4
    240    239    241    274     1  180.0000000  -0.5147696  3
    240    239    241    274     1  0.0000000  1.2298012  2
    240    239    241    274     1  0.0000000  -1.2652947  1
    241    239    238    242     1  0.0000000  0.1115010  3
    241    239    240    257     1  0.0000000  0.4834079  3
    241    239    240    258     1  0.0000000  0.4834079  3
    241    239    240    259     1  0.0000000  0.4834079  3
    241    274    273    272     1  180.0000000  4.1731909  2
    241    274    273    276     1  180.0000000  4.1731909  2
    242    238    237    255     1  180.0000000  15.3215155  2
    242    238    239    256     1  0.0000000  0.1115010  3
    242    243    244    263     1  180.0000000  15.3215155  2
    244    236    235    245     1  180.0000000  4.8669776  2
    244    236    237    255     1  180.0000000  15.3215155  2
    244    243    242    261     1  180.0000000  15.3215155  2
    245    223    224    249     1  180.0000000  15.3215155  2
    249    224    225    250     1  180.0000000  15.3215155  2
    252    232    233    253     1  180.0000000  15.3215155  2
    253    233    234    254     1  180.0000000  15.3215155  2
    256    239    240    257     1  0.0000000  0.7999501  3
    256    239    240    258     1  0.0000000  0.7999501  3
    256    239    240    259     1  0.0000000  0.7999501  3
    256    239    241    260     1  0.0000000  0.7624859  2
    256    239    241    260     1  0.0000000  0.1243628  3
    256    239    241    274     1  0.0000000  0.7624859  2
    256    239    241    274     1  0.0000000  0.1243628  3
    260    241    274    273     1  180.0000000  7.5690543  2
    260    241    274    273     1  0.0000000  -0.2015131  1
    260    241    274    275     1  180.0000000  9.8256037  2
    260    241    274    275     1  0.0000000  5.2557574  1
    261    242    243    262     1  180.0000000  15.3215155  2
    262    243    244    263     1  180.0000000  15.3215155  2
    265    266    267    268     1  180.0000000  6.4108617  2
    265    266    267    289     1  180.0000000  6.4108617  2
    266    267    268    269     1  180.0000000  15.3215155  2
    266    267    268    293     1  180.0000000  15.3215155  2
    266    267    289    279     1  180.0000000  15.3215155  2
    266    267    289    308     1  180.0000000  15.3215155  2
    267    266    265    290     1  0.0000000  0.1982205  3
    267    266    265    291     1  0.0000000  0.1982205  3
    267    266    265    292     1  0.0000000  0.1982205  3
    267    268    269    270     1  180.0000000  15.3215155  2
    267    268    269    294     1  180.0000000  15.3215155  2
    267    289    279    270     1  180.0000000  15.3215155  2
    267    289    279    280     1  180.0000000  15.3215155  2
    268    267    289    279     1  180.0000000  15.3215155  2
    268    267    289    308     1  180.0000000  15.3215155  2
    268    269    270    271     1  180.0000000  15.3215155  2
    268    269    270    279     1  180.0000000  15.3215155  2
    269    268    267    289     1  180.0000000  15.3215155  2
    269    270    271    272     1  180.0000000  4.8669776  2
    269    270    271    278     1  180.0000000  4.8669776  2
    269    270    279    280     1  180.0000000  15.3215155  2
    269    270    279    289     1  180.0000000  15.3215155  2
    270    269    268    293     1  180.0000000  15.3215155  2
    270    271    272    273     1  180.0000000  15.3215155  2
    270    271    272    295     1  180.0000000  15.3215155  2
    270    271    278    277     1  180.0000000  15.3215155  2
    270    271    278    298     1  180.0000000  15.3215155  2
    270    279    280    281     1  180.0000000  4.8669776  2
    270    279    280    288     1  180.0000000  4.8669776  2
    270    279    289    308     1  180.0000000  15.3215155  2
    271    270    269    294     1  180.0000000  15.3215155  2
    271    270    279    280     1  180.0000000  15.3215155  2
    271    270    279    289     1  180.0000000  15.3215155  2
    271    272    273    274     1  180.0000000  15.3215155  2
    271    272    273    276     1  180.0000000  15.3215155  2
    271    278    277    276     1  180.0000000  15.3215155  2
    271    278    277    297     1  180.0000000  15.3215155  2
    272    271    270    279     1  180.0000000  4.8669776  2
    272    271    278    277     1  180.0000000  15.3215155  2
    272    271    278    298     1  180.0000000  15.3215155  2
    272    273    274    275     1  180.0000000  4.1731909  2
    272    273    276    277     1  180.0000000  15.3215155  2
    272    273    276    296     1  180.0000000  15.3215155  2
    273    272    271    278     1  180.0000000  15.3215155  2
    273    276    277    278     1  180.0000000  15.3215155  2
    273    276    277    297     1  180.0000000  15.3215155  2
    274    273    272    295     1  180.0000000  15.3215155  2
    274    273    276    277     1  180.0000000  15.3215155  2
    274    273    276    296     1  180.0000000  15.3215155  2
    275    274    273    276     1  180.0000000  4.1731909  2
    276    273    272    295     1  180.0000000  15.3215155  2
    276    277    278    298     1  180.0000000  15.3215155  2
    278    271    270    279     1  180.0000000  4.8669776  2
    278    271    272    295     1  180.0000000  15.3215155  2
    278    277    276    296     1  180.0000000  15.3215155  2
    279    270    269    294     1  180.0000000  15.3215155  2
    279    280    281    282     1  180.0000000  15.3215155  2
    279    280    281    299     1  180.0000000  15.3215155  2
    279    280    288    287     1  180.0000000  15.3215155  2
    279    280    288    307     1  180.0000000  15.3215155  2
    280    279    289    308     1  180.0000000  15.3215155  2
    280    281    282    283     1  180.0000000  15.3215155  2
    280    281    282    286     1  180.0000000  15.3215155  2
    280    288    287    286     1  180.0000000  15.3215155  2
    280    288    287    306     1  180.0000000  15.3215155  2
    281    280    279    289     1  180.0000000  4.8669776  2
    281    280    288    287     1  180.0000000  15.3215155  2
    281    280    288    307     1  180.0000000  15.3215155  2
    281    282    283    284     1  0.0000000  0.1115010  3
    281    282    283    285     1  0.0000000  0.1115010  3
    281    282    283    300     1  0.0000000  0.1115010  3
    281    282    286    287     1  180.0000000  15.3215155  2
    281    282    286    305     1  180.0000000  15.3215155  2
    282    281    280    288     1  180.0000000  15.3215155  2
    282    283    284    301     1  0.0000000  0.4834079  3
    282    283    284    302     1  0.0000000  0.4834079  3
    282    283    284    303     1  0.0000000  0.4834079  3
    282    283    285    304     1  0.0000000  0.7624859  2
    282    283    285    304     1  0.0000000  0.1243628  3
    282    283    285    318     1  180.0000000  -2.8834993  2
    282    283    285    318     1  0.0000000  1.1413309  1
    282    286    287    288     1  180.0000000  15.3215155  2
    282    286    287    306     1  180.0000000  15.3215155  2
    283    282    281    299     1  180.0000000  15.3215155  2
    283    282    286    287     1  180.0000000  15.3215155  2
    283    282    286    305     1  180.0000000  15.3215155  2
    283    285    318    317     1  180.0000000  7.5690543  2
    283    285    318    317     1  0.0000000  -0.2015131  1
    283    285    318    319     1  180.0000000  12.9785537  2
    283    285    318    319     1  0.0000000  -1.7791009  1
    284    283    282    286     1  0.0000000  0.1115010  3
    284    283    285    304     1  0.0000000  0.7624859  2
    284    283    285    304     1  0.0000000  0.1243628  3
    284    283    285    318     1  180.0000000  -0.6228629  4
    284    283    285    318     1  180.0000000  -0.5147696  3
    284    283    285    318     1  0.0000000  1.2298012  2
    284    283    285    318     1  0.0000000  -1.2652947  1
    285    283    282    286     1  0.0000000  0.1115010  3
    285    283    284    301     1  0.0000000  0.4834079  3
    285    283    284    302     1  0.0000000  0.4834079  3
    285    283    284    303     1  0.0000000  0.4834079  3
    285    318    317    316     1  180.0000000  4.1731909  2
    285    318    317    320     1  180.0000000  4.1731909  2
    286    282    281    299     1  180.0000000  15.3215155  2
    286    282    283    300     1  0.0000000  0.1115010  3
    286    287    288    307     1  180.0000000  15.3215155  2
    288    280    279    289     1  180.0000000  4.8669776  2
    288    280    281    299     1  180.0000000  15.3215155  2
    288    287    286    305     1  180.0000000  15.3215155  2
    289    267    268    293     1  180.0000000  15.3215155  2
    293    268    269    294     1  180.0000000  15.3215155  2
    296    276    277    297     1  180.0000000  15.3215155  2
    297    277    278    298     1  180.0000000  15.3215155  2
    300    283    284    301     1  0.0000000  0.7999501  3
    300    283    284    302     1  0.0000000  0.7999501  3
    300    283    284    303     1  0.0000000  0.7999501  3
    300    283    285    304     1  0.0000000  0.7624859  2
    300    283    285    304     1  0.0000000  0.1243628  3
    300    283    285    318     1  0.0000000  0.7624859  2
    300    283    285    318     1  0.0000000  0.1243628  3
    304    285    318    317     1  180.0000000  7.5690543  2
    304    285    318    317     1  0.0000000  -0.2015131  1
    304    285    318    319     1  180.0000000  9.8256037  2
    304    285    318    319     1  0.0000000  5.2557574  1
    305    286    287    306     1  180.0000000  15.3215155  2
    306    287    288    307     1  180.0000000  15.3215155  2
    309    310    311    312     1  180.0000000  6.4108617  2
    309    310    311    333     1  180.0000000  6.4108617  2
    310    311    312    313     1  180.0000000  15.3215155  2
    310    311    312    337     1  180.0000000  15.3215155  2
    310    311    333    323     1  180.0000000  15.3215155  2
    310    311    333    352     1  180.0000000  15.3215155  2
    311    310    309    334     1  0.0000000  0.1982205  3
    311    310    309    335     1  0.0000000  0.1982205  3
    311    310    309    336     1  0.0000000  0.1982205  3
    311    312    313    314     1  180.0000000  15.3215155  2
    311    312    313    338     1  180.0000000  15.3215155  2
    311    333    323    314     1  180.0000000  15.3215155  2
    311    333    323    324     1  180.0000000  15.3215155  2
    312    311    333    323     1  180.0000000  15.3215155  2
    312    311    333    352     1  180.0000000  15.3215155  2
    312    313    314    315     1  180.0000000  15.3215155  2
    312    313    314    323     1  180.0000000  15.3215155  2
    313    312    311    333     1  180.0000000  15.3215155  2
    313    314    315    316     1  180.0000000  4.8669776  2
    313    314    315    322     1  180.0000000  4.8669776  2
    313    314    323    324     1  180.0000000  15.3215155  2
    313    314    323    333     1  180.0000000  15.3215155  2
    314    313    312    337     1  180.0000000  15.3215155  2
    314    315    316    317     1  180.0000000  15.3215155  2
    314    315    316    339     1  180.0000000  15.3215155  2
    314    315    322    321     1  180.0000000  15.3215155  2
    314    315    322    342     1  180.0000000  15.3215155  2
    314    323    324    325     1  180.0000000  4.8669776  2
    314    323    324    332     1  180.0000000  4.8669776  2
    314    323    333    352     1  180.0000000  15.3215155  2
    315    314    313    338     1  180.0000000  15.3215155  2
    315    314    323    324     1  180.0000000  15.3215155  2
    315    314    323    333     1  180.0000000  15.3215155  2
    315    316    317    318     1  180.0000000  15.3215155  2
    315    316    317    320     1  180.0000000  15.3215155  2
    315    322    321    320     1  180.0000000  15.3215155  2
    315    322    321    341     1  180.0000000  15.3215155  2
    316    315    314    323     1  180.0000000  4.8669776  2
    316    315    322    321     1  180.0000000  15.3215155  2
    316    315    322    342     1  180.0000000  15.3215155  2
    316    317    318    319     1  180.0000000  4.1731909  2
    316    317    320    321     1  180.0000000  15.3215155  2
    316    317    320    340     1  180.0000000  15.3215155  2
    317    316    315    322     1  180.0000000  15.3215155  2
    317    320    321    322     1  180.0000000  15.3215155  2
    317    320    321    341     1  180.0000000  15.3215155  2
    318    317    316    339     1  180.0000000  15.3215155  2
    318    317    320    321     1  180.0000000  15.3215155  2
    318    317    320    340     1  180.0000000  15.3215155  2
    319    318    317    320     1  180.0000000  4.1731909  2
    320    317    316    339     1  180.0000000  15.3215155  2
    320    321    322    342     1  180.0000000  15.3215155  2
    322    315    314    323     1  180.0000000  4.8669776  2
    322    315    316    339     1  180.0000000  15.3215155  2
    322    321    320    340     1  180.0000000  15.3215155  2
    323    314    313    338     1  180.0000000  15.3215155  2
    323    324    325    326     1  180.0000000  15.3215155  2
    323    324    325    343     1  180.0000000  15.3215155  2
    323    324    332    331     1  180.0000000  15.3215155  2
    323    324    332    351     1  180.0000000  15.3215155  2
    324    323    333    352     1  180.0000000  15.3215155  2
    324    325    326    327     1  180.0000000  15.3215155  2
    324    325    326    330     1  180.0000000  15.3215155  2
    324    332    331    330     1  180.0000000  15.3215155  2
    324    332    331    350     1  180.0000000  15.3215155  2
    325    324    323    333     1  180.0000000  4.8669776  2
    325    324    332    331     1  180.0000000  15.3215155  2
    325    324    332    351     1  180.0000000  15.3215155  2
    325    326    327    328     1  0.0000000  0.1115010  3
    325    326    327    329     1  0.0000000  0.1115010  3
    325    326    327    344     1  0.0000000  0.1115010  3
    325    326    330    331     1  180.0000000  15.3215155  2
    325    326    330    349     1  180.0000000  15.3215155  2
    326    325    324    332     1  180.0000000  15.3215155  2
    326    327    328    345     1  0.0000000  0.4834079  3
    326    327    328    346     1  0.0000000  0.4834079  3
    326    327    328    347     1  0.0000000  0.4834079  3
    326    327    329    348     1  0.0000000  0.7624859  2
    326    327    329    348     1  0.0000000  0.1243628  3
    326    327    329    363     1  180.0000000  -2.8834993  2
    326    327    329    363     1  0.0000000  1.1413309  1
    326    330    331    332     1  180.0000000  15.3215155  2
    326    330    331    350     1  180.0000000  15.3215155  2
    327    326    325    343     1  180.0000000  15.3215155  2
    327    326    330    331     1  180.0000000  15.3215155  2
    327    326    330    349     1  180.0000000  15.3215155  2
    327    329    363    362     1  180.0000000  7.5690543  2
    327    329    363    362     1  0.0000000  -0.2015131  1
    327    329    363    364     1  180.0000000  7.5690543  2
    327    329    363    364     1  0.0000000  -0.2015131  1
    328    327    326    330     1  0.0000000  0.1115010  3
    328    327    329    348     1  0.0000000  0.7624859  2
    328    327    329    348     1  0.0000000  0.1243628  3
    328    327    329    363     1  180.0000000  -0.6228629  4
    328    327    329    363     1  180.0000000  -0.5147696  3
    328    327    329    363     1  0.0000000  1.2298012  2
    328    327    329    363     1  0.0000000  -1.2652947  1
    329    327    326    330     1  0.0000000  0.1115010  3
    329    327    328    345     1  0.0000000  0.4834079  3
    329    327    328    346     1  0.0000000  0.4834079  3
    329    327    328    347     1  0.0000000  0.4834079  3
    329    363    362    359     1  180.0000000  11.6309081  2
    330    326    325    343     1  180.0000000  15.3215155  2
    330    326    327    344     1  0.0000000  0.1115010  3
    330    331    332    351     1  180.0000000  15.3215155  2
    332    324    323    333     1  180.0000000  4.8669776  2
    332    324    325    343     1  180.0000000  15.3215155  2
    332    331    330    349     1  180.0000000  15.3215155  2
    333    311    312    337     1  180.0000000  15.3215155  2
    337    312    313    338     1  180.0000000  15.3215155  2
    340    320    321    341     1  180.0000000  15.3215155  2
    341    321    322    342     1  180.0000000  15.3215155  2
    344    327    328    345     1  0.0000000  0.7999501  3
    344    327    328    346     1  0.0000000  0.7999501  3
    344    327    328    347     1  0.0000000  0.7999501  3
    344    327    329    348     1  0.0000000  0.7624859  2
    344    327    329    348     1  0.0000000  0.1243628  3
    344    327    329    363     1  0.0000000  0.7624859  2
    344    327    329    363     1  0.0000000  0.1243628  3
    348    329    363    362     1  180.0000000  7.5690543  2
    348    329    363    362     1  0.0000000  -0.2015131  1
    348    329    363    364     1  180.0000000  2.0338395  2
    348    329    363    364     1  0.0000000  3.7308670  1
    349    330    331    350     1  180.0000000  15.3215155  2
    350    331    332    351     1  180.0000000  15.3215155  2
    358    359    360    368     1  0.0000000  0.4354138  3
    358    359    360    369     1  0.0000000  0.4354138  3
    358    359    360    370     1  0.0000000  0.4354138  3
    358    359    361    371     1  0.0000000  0.4354138  3
    358    359    361    372     1  0.0000000  0.4354138  3
    358    359    361    373     1  0.0000000  0.4354138  3
    358    359    362    363     1  0.0000000  0.8026052  3
    358    359    362    363     1  180.0000000  3.8501921  1
    359    362    363    364     1  180.0000000  4.8693776  2
    359    362    363    364     1  180.0000000  0.7025718  1
    360    359    358    365     1  0.0000000  0.4354138  3
    360    359    358    366     1  0.0000000  0.4354138  3
    360    359    358    367     1  0.0000000  0.4354138  3
    360    359    361    371     1  0.0000000  0.4354138  3
    360    359    361    372     1  0.0000000  0.4354138  3
    360    359    361    373     1  0.0000000  0.4354138  3
    360    359    362    363     1  0.0000000  0.8026052  3
    360    359    362    363     1  180.0000000  3.8501921  1
    361    359    358    365     1  0.0000000  0.4354138  3
    361    359    358    366     1  0.0000000  0.4354138  3
    361    359    358    367     1  0.0000000  0.4354138  3
    361    359    360    368     1  0.0000000  0.4354138  3
    361    359    360    369     1  0.0000000  0.4354138  3
    361    359    360    370     1  0.0000000  0.4354138  3
    361    359    362    363     1  0.0000000  0.8026052  3
    361    359    362    363     1  180.0000000  3.8501921  1
    362    359    358    365     1  0.0000000  0.4667359  3
    362    359    358    365     1  0.0000000  1.4361539  1
    362    359    358    366     1  0.0000000  0.4667359  3
    362    359    358    366     1  0.0000000  1.4361539  1
    362    359    358    367     1  0.0000000  0.4667359  3
    362    359    358    367     1  0.0000000  1.4361539  1
    362    359    360    368     1  0.0000000  0.4667359  3
    362    359    360    368     1  0.0000000  1.4361539  1
    362    359    360    369     1  0.0000000  0.4667359  3
    362    359    360    369     1  0.0000000  1.4361539  1
    362    359    360    370     1  0.0000000  0.4667359  3
    362    359    360    370     1  0.0000000  1.4361539  1
    362    359    361    371     1  0.0000000  0.4667359  3
    362    359    361    371     1  0.0000000  1.4361539  1
    362    359    361    372     1  0.0000000  0.4667359  3
    362    359    361    372     1  0.0000000  1.4361539  1
    362    359    361    373     1  0.0000000  0.4667359  3
    362    359    361    373     1  0.0000000  1.4361539  1
     92     91     93    117     4  180.0000000  1.5341333  2
     12     13     32      9     4  180.0000000  1.5341333  2
      6     15      5      7     4  180.0000000  1.5341333  2
     49     74     48     50     4  180.0000000  1.5341333  2
    110    106    111    129     4  180.0000000  1.5341333  2
    185    188    184    186     4  180.0000000  1.5341333  2
    227    226    228    234     4  180.0000000  1.5341333  2
    268    267    269    293     4  180.0000000  1.5341333  2
     65     84     98     63     4  180.0000000  1.3946667  2
    106    105    107    110     4  180.0000000  1.5341333  2
      8      7      9     31     4  180.0000000  1.5341333  2
    276    296    273    277     4  180.0000000  1.5341333  2
    135    157    134    136     4  180.0000000  1.5341333  2
    270    271    279    269     4  180.0000000  1.5341333  2
    315    314    316    322     4  180.0000000  1.5341333  2
    325    326    343    324     4  180.0000000  1.5341333  2
    156    175    148    155     4  180.0000000  1.5341333  2
     94     93     95    103     4  180.0000000  1.5341333  2
    109    142    107    128     4  180.0000000  1.3946667  2
    197    195    216    230     4  180.0000000  1.3946667  2
    180    181    205    179     4  180.0000000  1.5341333  2
    230    231    197    229     4  180.0000000  1.5341333  2
     94    103     93     95     4  180.0000000  1.5341333  2
     93     92     94    118     4  180.0000000  1.5341333  2
    191    182    192    201     4  180.0000000  1.5341333  2
    313    312    314    338     4  180.0000000  1.5341333  2
    321    341    320    322     4  180.0000000  1.5341333  2
    184    185    207    183     4  180.0000000  1.5341333  2
    311    312    333    310     4  180.0000000  1.5341333  2
      7      8     14      6     4  180.0000000  1.5341333  2
    282    281    283    286     4  180.0000000  1.5341333  2
    189    190    209    188     4  180.0000000  1.5341333  2
    188    208    185    189     4  180.0000000  1.5341333  2
    317    320    316    318     4  180.0000000  1.5341333  2
      4     29      3      5     4  180.0000000  1.5341333  2
    333    311    323    352     4  180.0000000  1.5341333  2
    233    253    232    234     4  180.0000000  1.5341333  2
    113     91    103    132     4  180.0000000  1.5341333  2
    332    331    351    324     4  180.0000000  1.5341333  2
     13     12     14     33     4  180.0000000  1.5341333  2
    110    129    106    111     4  180.0000000  1.5341333  2
     15      6     16     25     4  180.0000000  1.5341333  2
    274    273    275    241     4  180.0000000  1.5341333  2
     52     75     51     53     4  180.0000000  1.5341333  2
     66     62     67     85     4  180.0000000  1.5341333  2
    181    206    180    182     4  180.0000000  1.5341333  2
     54     55     21     53     4  180.0000000  1.5341333  2
     18     19     22     17     4  180.0000000  1.5341333  2
    273    274    276    272     4  180.0000000  1.5341333  2
    316    315    317    339     4  180.0000000  1.5341333  2
    149    148    150    167     4  180.0000000  1.5341333  2
     58     78     51     57     4  180.0000000  1.5341333  2
    330    326    331    349     4  180.0000000  1.5341333  2
    318    319    285    317     4  180.0000000  1.5341333  2
    318    285    317    319     4  180.0000000  1.5341333  2
    269    294    268    270     4  180.0000000  1.5341333  2
    109    128    142    107     4  180.0000000  1.3946667  2
     10      9     11    354     4  180.0000000  14.6440000  2
     95    102     94     96     4  180.0000000  1.5341333  2
    313    338    312    314     4  180.0000000  1.5341333  2
     61     79     60     62     4  180.0000000  1.5341333  2
    138    139    147    137     4  180.0000000  1.5341333  2
    157    176    135    147     4  180.0000000  1.5341333  2
    242    261    238    243     4  180.0000000  1.5341333  2
    238    237    239    242     4  180.0000000  1.5341333  2
     24     43     16     23     4  180.0000000  1.5341333  2
    102     95    101    122     4  180.0000000  1.5341333  2
     48     47     49     73     4  180.0000000  1.5341333  2
    104    103    105    112     4  180.0000000  1.5341333  2
      5     30      4      6     4  180.0000000  1.5341333  2
     14     13     34      7     4  180.0000000  1.5341333  2
     23     22     24     42     4  180.0000000  1.5341333  2
    198    217    194    199     4  180.0000000  1.5341333  2
    103    104    113     94     4  180.0000000  1.5341333  2
    184    207    183    185     4  180.0000000  1.5341333  2
    144    141    145    164     4  180.0000000  1.5341333  2
    276    273    277    296     4  180.0000000  1.5341333  2
    223    224    245    222     4  180.0000000  1.5341333  2
    155    174    154    156     4  180.0000000  1.5341333  2
    281    299    280    282     4  180.0000000  1.5341333  2
    179    178    180    201     4  180.0000000  1.5341333  2
     69     59     88     47     4  180.0000000  1.5341333  2
    147    138    148    157     4  180.0000000  1.5341333  2
    274    275    241    273     4  180.0000000  1.5341333  2
    274    241    273    275     4  180.0000000  1.5341333  2
    320    321    340    317     4  180.0000000  1.5341333  2
    200    192    199    219     4  180.0000000  1.5341333  2
    182    183    191    181     4  180.0000000  1.5341333  2
    289    279    308    267     4  180.0000000  1.5341333  2
    243    262    242    244     4  180.0000000  1.5341333  2
    179    201    178    180     4  180.0000000  1.5341333  2
    186    185    187    153     4  180.0000000  1.5341333  2
     54     21     53     55     4  180.0000000  1.5341333  2
    243    244    262    242     4  180.0000000  1.5341333  2
    277    278    297    276     4  180.0000000  1.5341333  2
    100    120     97    101     4  180.0000000  1.5341333  2
    142    143    109    141     4  180.0000000  1.5341333  2
    241    260    274    239     4  180.0000000  1.3946667  2
     50     51     59     49     4  180.0000000  1.5341333  2
    270    279    269    271     4  180.0000000  1.5341333  2
    313    314    338    312     4  180.0000000  1.5341333  2
    180    179    181    205     4  180.0000000  1.5341333  2
    268    269    293    267     4  180.0000000  1.5341333  2
      5      4      6     30     4  180.0000000  1.5341333  2
    271    272    278    270     4  180.0000000  1.5341333  2
    146    145    166    139     4  180.0000000  1.5341333  2
    237    255    236    238     4  180.0000000  1.5341333  2
    144    145    164    141     4  180.0000000  1.5341333  2
    320    317    321    340     4  180.0000000  1.5341333  2
     93     94    118     92     4  180.0000000  1.5341333  2
    110    111    129    106     4  180.0000000  1.5341333  2
    223    245    222    224     4  180.0000000  1.5341333  2
     50     59     49     51     4  180.0000000  1.5341333  2
    153    172    186    151     4  180.0000000  1.3946667  2
    181    180    182    206     4  180.0000000  1.5341333  2
    190    210    183    189     4  180.0000000  1.5341333  2
    314    323    313    315     4  180.0000000  1.5341333  2
    333    323    352    311     4  180.0000000  1.5341333  2
     15     25      6     16     4  180.0000000  1.5341333  2
    268    293    267    269     4  180.0000000  1.5341333  2
    245    264    223    235     4  180.0000000  1.5341333  2
    326    327    330    325     4  180.0000000  1.5341333  2
    329    363    327    348     4  180.0000000  1.3946667  2
    332    324    331    351     4  180.0000000  1.5341333  2
      9     12      8     10     4  180.0000000  1.5341333  2
    315    316    322    314     4  180.0000000  1.5341333  2
    236    244    235    237     4  180.0000000  1.5341333  2
     23     42     22     24     4  180.0000000  1.5341333  2
    282    283    286    281     4  180.0000000  1.5341333  2
      4      5     29      3     4  180.0000000  1.5341333  2
    272    271    273    295     4  180.0000000  1.5341333  2
    324    323    325    332     4  180.0000000  1.5341333  2
    103     94    104    113     4  180.0000000  1.5341333  2
    229    232    228    230     4  180.0000000  1.5341333  2
    150    149    151    154     4  180.0000000  1.5341333  2
     97     96     98    100     4  180.0000000  1.5341333  2
     12      9     13     32     4  180.0000000  1.5341333  2
    363    329    362    364     4  180.0000000  14.6440000  2
    278    298    271    277     4  180.0000000  1.5341333  2
    323    314    324    333     4  180.0000000  1.5341333  2
    232    229    233    252     4  180.0000000  1.5341333  2
    139    138    140    146     4  180.0000000  1.5341333  2
    157    147    176    135     4  180.0000000  1.5341333  2
     94     95    103     93     4  180.0000000  1.5341333  2
     52     51     53     75     4  180.0000000  1.5341333  2
     66     85     62     67     4  180.0000000  1.5341333  2
    321    322    341    320     4  180.0000000  1.5341333  2
    198    199    217    194     4  180.0000000  1.5341333  2
    237    238    255    236     4  180.0000000  1.5341333  2
    113    132     91    103     4  180.0000000  1.5341333  2
    189    209    188    190     4  180.0000000  1.5341333  2
    224    223    225    249     4  180.0000000  1.5341333  2
    272    273    295    271     4  180.0000000  1.5341333  2
    194    198    193    195     4  180.0000000  1.5341333  2
    363    362    364    329     4  180.0000000  14.6440000  2
     49     48     50     74     4  180.0000000  1.5341333  2
    234    227    233    254     4  180.0000000  1.5341333  2
     68     87     60     67     4  180.0000000  1.5341333  2
     91     92    113     90     4  180.0000000  1.5341333  2
     62     61     63     66     4  180.0000000  1.5341333  2
    235    236    245    226     4  180.0000000  1.5341333  2
    241    239    260    274     4  180.0000000  1.3946667  2
    234    233    254    227     4  180.0000000  1.5341333  2
    242    238    243    261     4  180.0000000  1.5341333  2
     97     98    100     96     4  180.0000000  1.5341333  2
     98     65     97     99     4  180.0000000  1.5341333  2
     51     58     50     52     4  180.0000000  1.5341333  2
    316    317    339    315     4  180.0000000  1.5341333  2
    105    106    123    104     4  180.0000000  1.5341333  2
    156    155    175    148     4  180.0000000  1.5341333  2
    277    276    278    297     4  180.0000000  1.5341333  2
    140    163    139    141     4  180.0000000  1.5341333  2
    235    245    226    236     4  180.0000000  1.5341333  2
     57     58     77     56     4  180.0000000  1.5341333  2
    100     97    101    120     4  180.0000000  1.5341333  2
     21     40     54     19     4  180.0000000  1.3946667  2
    185    186    188    184     4  180.0000000  1.5341333  2
    233    234    253    232     4  180.0000000  1.5341333  2
    273    272    274    276     4  180.0000000  1.5341333  2
    135    136    157    134     4  180.0000000  1.5341333  2
     58     57     78     51     4  180.0000000  1.5341333  2
    287    306    286    288     4  180.0000000  1.5341333  2
    228    227    229    251     4  180.0000000  1.5341333  2
     96     95     97    119     4  180.0000000  1.5341333  2
    244    263    236    243     4  180.0000000  1.5341333  2
    238    242    237    239     4  180.0000000  1.5341333  2
     16     24     15     17     4  180.0000000  1.5341333  2
    191    192    201    182     4  180.0000000  1.5341333  2
     68     60     67     87     4  180.0000000  1.5341333  2
    194    193    195    198     4  180.0000000  1.5341333  2
     10     11    354      9     4  180.0000000  14.6440000  2
    148    147    149    156     4  180.0000000  1.5341333  2
     56     57     76     53     4  180.0000000  1.5341333  2
    317    316    318    320     4  180.0000000  1.5341333  2
    324    325    332    323     4  180.0000000  1.5341333  2
    269    270    294    268     4  180.0000000  1.5341333  2
     21     54     19     40     4  180.0000000  1.3946667  2
    101    100    102    121     4  180.0000000  1.5341333  2
    322    315    321    342     4  180.0000000  1.5341333  2
    232    252    229    233     4  180.0000000  1.5341333  2
    244    236    243    263     4  180.0000000  1.5341333  2
    100    101    120     97     4  180.0000000  1.5341333  2
     98     97     99     65     4  180.0000000  1.5341333  2
     17     16     18     35     4  180.0000000  1.5341333  2
    153    151    172    186     4  180.0000000  1.3946667  2
     65     98     63     84     4  180.0000000  1.3946667  2
    224    225    249    223     4  180.0000000  1.5341333  2
    190    183    189    210     4  180.0000000  1.5341333  2
    311    310    312    333     4  180.0000000  1.5341333  2
    244    243    263    236     4  180.0000000  1.5341333  2
     95     94     96    102     4  180.0000000  1.5341333  2
    197    230    195    216     4  180.0000000  1.3946667  2
    183    184    190    182     4  180.0000000  1.5341333  2
    186    153    185    187     4  180.0000000  1.5341333  2
    245    235    264    223     4  180.0000000  1.5341333  2
      7     14      6      8     4  180.0000000  1.5341333  2
    136    161    135    137     4  180.0000000  1.5341333  2
      8      9     31      7     4  180.0000000  1.5341333  2
    267    289    266    268     4  180.0000000  1.5341333  2
    192    193    200    191     4  180.0000000  1.5341333  2
     15     16     25      6     4  180.0000000  1.5341333  2
    271    278    270    272     4  180.0000000  1.5341333  2
    237    236    238    255     4  180.0000000  1.5341333  2
    280    279    281    288     4  180.0000000  1.5341333  2
    183    190    182    184     4  180.0000000  1.5341333  2
    312    337    311    313     4  180.0000000  1.5341333  2
    138    137    139    147     4  180.0000000  1.5341333  2
     56     53     57     76     4  180.0000000  1.5341333  2
     93    118     92     94     4  180.0000000  1.5341333  2
     61     62     79     60     4  180.0000000  1.5341333  2
    282    286    281    283     4  180.0000000  1.5341333  2
    149    150    167    148     4  180.0000000  1.5341333  2
     22     18     23     41     4  180.0000000  1.5341333  2
     60     68     59     61     4  180.0000000  1.5341333  2
    228    229    251    227     4  180.0000000  1.5341333  2
    280    288    279    281     4  180.0000000  1.5341333  2
    137    162    136    138     4  180.0000000  1.5341333  2
     57     77     56     58     4  180.0000000  1.5341333  2
    102    101    122     95     4  180.0000000  1.5341333  2
    142    109    141    143     4  180.0000000  1.5341333  2
    150    154    149    151     4  180.0000000  1.5341333  2
     57     56     58     77     4  180.0000000  1.5341333  2
    230    197    229    231     4  180.0000000  1.5341333  2
    281    280    282    299     4  180.0000000  1.5341333  2
    144    164    141    145     4  180.0000000  1.5341333  2
    192    200    191    193     4  180.0000000  1.5341333  2
    245    223    235    264     4  180.0000000  1.5341333  2
     58     51     57     78     4  180.0000000  1.5341333  2
     17     18     35     16     4  180.0000000  1.5341333  2
     69     88     47     59     4  180.0000000  1.5341333  2
     25     15     44      3     4  180.0000000  1.5341333  2
    227    228    234    226     4  180.0000000  1.5341333  2
    228    251    227    229     4  180.0000000  1.5341333  2
    232    233    252    229     4  180.0000000  1.5341333  2
    154    173    150    155     4  180.0000000  1.5341333  2
    182    181    183    191     4  180.0000000  1.5341333  2
    331    350    330    332     4  180.0000000  1.5341333  2
    287    288    306    286     4  180.0000000  1.5341333  2
    105    104    106    123     4  180.0000000  1.5341333  2
     49     50     74     48     4  180.0000000  1.5341333  2
     53     56     52     54     4  180.0000000  1.5341333  2
     14     34      7     13     4  180.0000000  1.5341333  2
    236    237    244    235     4  180.0000000  1.5341333  2
    242    243    261    238     4  180.0000000  1.5341333  2
      6      5      7     15     4  180.0000000  1.5341333  2
    329    348    363    327     4  180.0000000  1.3946667  2
     12     32      9     13     4  180.0000000  1.5341333  2
    191    201    182    192     4  180.0000000  1.5341333  2
    286    305    282    287     4  180.0000000  1.5341333  2
     60     61     68     59     4  180.0000000  1.5341333  2
    109    107    128    142     4  180.0000000  1.3946667  2
    317    318    320    316     4  180.0000000  1.5341333  2
    193    194    211    192     4  180.0000000  1.5341333  2
    193    192    194    211     4  180.0000000  1.5341333  2
    182    191    181    183     4  180.0000000  1.5341333  2
    241    274    239    260     4  180.0000000  1.3946667  2
    157    135    147    176     4  180.0000000  1.5341333  2
      3      2      4     25     4  180.0000000  1.5341333  2
     51     50     52     58     4  180.0000000  1.5341333  2
    113    103    132     91     4  180.0000000  1.5341333  2
    322    342    315    321     4  180.0000000  1.5341333  2
    106    110    105    107     4  180.0000000  1.5341333  2
    111    130    110    112     4  180.0000000  1.5341333  2
    200    199    219    192     4  180.0000000  1.5341333  2
    330    331    349    326     4  180.0000000  1.5341333  2
    269    268    270    294     4  180.0000000  1.5341333  2
    145    146    165    144     4  180.0000000  1.5341333  2
    139    146    138    140     4  180.0000000  1.5341333  2
    331    332    350    330     4  180.0000000  1.5341333  2
    318    317    319    285     4  180.0000000  1.5341333  2
      9     10     12      8     4  180.0000000  1.5341333  2
    312    313    337    311     4  180.0000000  1.5341333  2
    234    254    227    233     4  180.0000000  1.5341333  2
    225    250    224    226     4  180.0000000  1.5341333  2
    281    282    299    280     4  180.0000000  1.5341333  2
    289    267    279    308     4  180.0000000  1.5341333  2
     67     86     66     68     4  180.0000000  1.5341333  2
    322    321    342    315     4  180.0000000  1.5341333  2
     47     46     48     69     4  180.0000000  1.5341333  2
    136    137    161    135     4  180.0000000  1.5341333  2
     62     63     66     61     4  180.0000000  1.5341333  2
     25      3     15     44     4  180.0000000  1.5341333  2
    146    166    139    145     4  180.0000000  1.5341333  2
     18     17     19     22     4  180.0000000  1.5341333  2
    225    224    226    250     4  180.0000000  1.5341333  2
    325    343    324    326     4  180.0000000  1.5341333  2
    179    180    201    178     4  180.0000000  1.5341333  2
    332    351    324    331     4  180.0000000  1.5341333  2
    111    110    112    130     4  180.0000000  1.5341333  2
     61     60     62     79     4  180.0000000  1.5341333  2
      8     31      7      9     4  180.0000000  1.5341333  2
     56     76     53     57     4  180.0000000  1.5341333  2
    150    151    154    149     4  180.0000000  1.5341333  2
    285    304    318    283     4  180.0000000  1.3946667  2
    148    156    147    149     4  180.0000000  1.5341333  2
    315    322    314    316     4  180.0000000  1.5341333  2
      6      7     15      5     4  180.0000000  1.5341333  2
    188    189    208    185     4  180.0000000  1.5341333  2
    325    324    326    343     4  180.0000000  1.5341333  2
    226    235    225    227     4  180.0000000  1.5341333  2
    267    268    289    266     4  180.0000000  1.5341333  2
     67     66     68     86     4  180.0000000  1.5341333  2
    145    144    146    165     4  180.0000000  1.5341333  2
    137    136    138    162     4  180.0000000  1.5341333  2
    272    295    271    273     4  180.0000000  1.5341333  2
     59     50     60     69     4  180.0000000  1.5341333  2
    194    195    198    193     4  180.0000000  1.5341333  2
    288    280    287    307     4  180.0000000  1.5341333  2
    278    277    298    271     4  180.0000000  1.5341333  2
    279    280    289    270     4  180.0000000  1.5341333  2
     51     52     58     50     4  180.0000000  1.5341333  2
     98     99     65     97     4  180.0000000  1.5341333  2
    112    104    111    131     4  180.0000000  1.5341333  2
    201    191    220    179     4  180.0000000  1.5341333  2
    236    235    237    244     4  180.0000000  1.5341333  2
    145    165    144    146     4  180.0000000  1.5341333  2
    137    138    162    136     4  180.0000000  1.5341333  2
      7      6      8     14     4  180.0000000  1.5341333  2
    326    325    327    330     4  180.0000000  1.5341333  2
     25     44      3     15     4  180.0000000  1.5341333  2
     17     35     16     18     4  180.0000000  1.5341333  2
     65     63     84     98     4  180.0000000  1.3946667  2
    105    123    104    106     4  180.0000000  1.5341333  2
    180    205    179    181     4  180.0000000  1.5341333  2
    321    320    322    341     4  180.0000000  1.5341333  2
     59     69     50     60     4  180.0000000  1.5341333  2
    267    266    268    289     4  180.0000000  1.5341333  2
    279    289    270    280     4  180.0000000  1.5341333  2
     24     23     43     16     4  180.0000000  1.5341333  2
     48     73     47     49     4  180.0000000  1.5341333  2
    192    191    193    200     4  180.0000000  1.5341333  2
    273    276    272    274     4  180.0000000  1.5341333  2
      3      4     25      2     4  180.0000000  1.5341333  2
    148    149    156    147     4  180.0000000  1.5341333  2
    285    318    283    304     4  180.0000000  1.3946667  2
    103    113     94    104     4  180.0000000  1.5341333  2
    199    200    218    198     4  180.0000000  1.5341333  2
     59     60     69     50     4  180.0000000  1.5341333  2
     67     68     86     66     4  180.0000000  1.5341333  2
    324    332    323    325     4  180.0000000  1.5341333  2
    141    140    142    144     4  180.0000000  1.5341333  2
     16     15     17     24     4  180.0000000  1.5341333  2
    140    139    141    163     4  180.0000000  1.5341333  2
    112    111    131    104     4  180.0000000  1.5341333  2
    243    242    244    262     4  180.0000000  1.5341333  2
    223    222    224    245     4  180.0000000  1.5341333  2
    188    185    189    208     4  180.0000000  1.5341333  2
    287    286    288    306     4  180.0000000  1.5341333  2
     21     19     40     54     4  180.0000000  1.3946667  2
     62     66     61     63     4  180.0000000  1.5341333  2
    314    313    315    323     4  180.0000000  1.5341333  2
    142    141    143    109     4  180.0000000  1.5341333  2
    138    147    137    139     4  180.0000000  1.5341333  2
    154    155    173    150     4  180.0000000  1.5341333  2
    229    228    230    232     4  180.0000000  1.5341333  2
     97    100     96     98     4  180.0000000  1.5341333  2
    199    218    198    200     4  180.0000000  1.5341333  2
    104    105    112    103     4  180.0000000  1.5341333  2
    181    182    206    180     4  180.0000000  1.5341333  2
    314    315    323    313     4  180.0000000  1.5341333  2
     10    354      9     11     4  180.0000000  14.6440000  2
     47     69     46     48     4  180.0000000  1.5341333  2
    183    182    184    190     4  180.0000000  1.5341333  2
    146    139    145    166     4  180.0000000  1.5341333  2
    280    281    288    279     4  180.0000000  1.5341333  2
    189    188    190    209     4  180.0000000  1.5341333  2
     66     67     85     62     4  180.0000000  1.5341333  2
    271    270    272    278     4  180.0000000  1.5341333  2
    286    282    287    305     4  180.0000000  1.5341333  2
    101    121    100    102     4  180.0000000  1.5341333  2
    311    333    310    312     4  180.0000000  1.5341333  2
     22     23     41     18     4  180.0000000  1.5341333  2
     22     41     18     23     4  180.0000000  1.5341333  2
    156    148    155    175     4  180.0000000  1.5341333  2
    289    308    267    279     4  180.0000000  1.5341333  2
     14      7     13     34     4  180.0000000  1.5341333  2
    190    189    210    183     4  180.0000000  1.5341333  2
     53     52     54     56     4  180.0000000  1.5341333  2
    139    140    146    138     4  180.0000000  1.5341333  2
    184    183    185    207     4  180.0000000  1.5341333  2
    154    150    155    173     4  180.0000000  1.5341333  2
    288    287    307    280     4  180.0000000  1.5341333  2
    333    352    311    323     4  180.0000000  1.5341333  2
     68     67     87     60     4  180.0000000  1.5341333  2
    235    226    236    245     4  180.0000000  1.5341333  2
     13     33     12     14     4  180.0000000  1.5341333  2
     16     17     24     15     4  180.0000000  1.5341333  2
    141    144    140    142     4  180.0000000  1.5341333  2
    276    277    296    273     4  180.0000000  1.5341333  2
    111    112    130    110     4  180.0000000  1.5341333  2
    200    219    192    199     4  180.0000000  1.5341333  2
    330    349    326    331     4  180.0000000  1.5341333  2
    288    307    280    287     4  180.0000000  1.5341333  2
    106    107    110    105     4  180.0000000  1.5341333  2
    197    216    230    195     4  180.0000000  1.3946667  2
    140    141    163    139     4  180.0000000  1.5341333  2
    147    148    157    138     4  180.0000000  1.5341333  2
    277    297    276    278     4  180.0000000  1.5341333  2
     96    119     95     97     4  180.0000000  1.5341333  2
    363    364    329    362     4  180.0000000  14.6440000  2
    112    131    104    111     4  180.0000000  1.5341333  2
    226    225    227    235     4  180.0000000  1.5341333  2
    233    232    234    253     4  180.0000000  1.5341333  2
    329    327    348    363     4  180.0000000  1.3946667  2
    199    198    200    218     4  180.0000000  1.5341333  2
     52     53     75     51     4  180.0000000  1.5341333  2
    147    157    138    148     4  180.0000000  1.5341333  2
    323    333    314    324     4  180.0000000  1.5341333  2
    238    239    242    237     4  180.0000000  1.5341333  2
     95     96    102     94     4  180.0000000  1.5341333  2
    312    311    313    337     4  180.0000000  1.5341333  2
    135    134    136    157     4  180.0000000  1.5341333  2
      5      6     30      4     4  180.0000000  1.5341333  2
    101    102    121    100     4  180.0000000  1.5341333  2
    224    249    223    225     4  180.0000000  1.5341333  2
      9      8     10     12     4  180.0000000  1.5341333  2
    270    269    271    279     4  180.0000000  1.5341333  2
    225    226    250    224     4  180.0000000  1.5341333  2
    286    287    305    282     4  180.0000000  1.5341333  2
     91    113     90     92     4  180.0000000  1.5341333  2
    104    112    103    105     4  180.0000000  1.5341333  2
    201    179    191    220     4  180.0000000  1.5341333  2
    226    227    235    225     4  180.0000000  1.5341333  2
    193    211    192    194     4  180.0000000  1.5341333  2
    102    122     95    101     4  180.0000000  1.5341333  2
    316    339    315    317     4  180.0000000  1.5341333  2
     13     14     33     12     4  180.0000000  1.5341333  2
    198    194    199    217     4  180.0000000  1.5341333  2
    230    229    231    197     4  180.0000000  1.5341333  2
      4      3      5     29     4  180.0000000  1.5341333  2
    320    340    317    321     4  180.0000000  1.5341333  2
    326    330    325    327     4  180.0000000  1.5341333  2
    323    324    333    314     4  180.0000000  1.5341333  2
    201    220    179    191     4  180.0000000  1.5341333  2
      3     25      2      4     4  180.0000000  1.5341333  2
    185    184    186    188     4  180.0000000  1.5341333  2
    155    156    174    154     4  180.0000000  1.5341333  2
     50     49     51     59     4  180.0000000  1.5341333  2
     91     90     92    113     4  180.0000000  1.5341333  2
    149    167    148    150     4  180.0000000  1.5341333  2
     96     97    119     95     4  180.0000000  1.5341333  2
     47     48     69     46     4  180.0000000  1.5341333  2
     54     53     55     21     4  180.0000000  1.5341333  2
     60     59     61     68     4  180.0000000  1.5341333  2
     92     93    117     91     4  180.0000000  1.5341333  2
    285    283    304    318     4  180.0000000  1.3946667  2
    186    187    153    185     4  180.0000000  1.5341333  2
    136    135    137    161     4  180.0000000  1.5341333  2
    279    270    280    289     4  180.0000000  1.5341333  2
     69     47     59     88     4  180.0000000  1.5341333  2
     53     54     56     52     4  180.0000000  1.5341333  2
     18     22     17     19     4  180.0000000  1.5341333  2
    153    186    151    172     4  180.0000000  1.3946667  2
    141    142    144    140     4  180.0000000  1.5341333  2
    229    230    232    228     4  180.0000000  1.5341333  2
     24     16     23     43     4  180.0000000  1.5341333  2
    227    234    226    228     4  180.0000000  1.5341333  2
     23     24     42     22     4  180.0000000  1.5341333  2
    278    271    277    298     4  180.0000000  1.5341333  2
     92    117     91     93     4  180.0000000  1.5341333  2
     48     49     73     47     4  180.0000000  1.5341333  2
    331    330    332    350     4  180.0000000  1.5341333  2
    155    154    156    174     4  180.0000000  1.5341333  2


[ moleculetype ]
; Name            nrexcl
TCM          3

[ atoms ]
;   nr       type  resnr residue  atom   cgnr    charge       mass  typeB    chargeB      massB
; residue    1 TCM rtp TCM q 0.0
    1      TCM_0      1    TCM     c1      1 0.22438000   9.994886   ; qtot 0.224380
    2      TCM_1      1    TCM    cl1      2 -0.11463000  35.453200   ; qtot 0.109750
    3      TCM_2      1    TCM    cl2      3 -0.11463000  35.453200   ; qtot -0.004880
    4      TCM_3      1    TCM     h1      4 0.11951000   3.023841   ; qtot 0.114630
    5      TCM_4      1    TCM    cl3      5 -0.11463000  35.453200   ; qtot 0.000000

[ bonds ]
;    ai     aj funct         c0         c1         c2         c3
      1      2     1   0.17948 173885.040698
      1      3     1   0.17948 173885.040698
      1      4     1   0.10929 317186.185379
      1      5     1   0.17948 173885.040698

[ angles ]
;    ai     aj     ak funct         c0         c1         c2         c3
      2      1      3     1   107.6607822 425.669015
      2      1      4     1   107.6607822 425.669015
      2      1      5     1   107.6607822 425.669015
      3      1      4     1   107.6607822 425.669015
      3      1      5     1   107.6607822 425.669015
      4      1      5     1   107.6607822 425.669015

[ system ]
; Name
FOO

[ molecules ]
; Compound       #mols
system1              1
TCM                634
