Good ROcking Metal Altar for Chronical Sinners
 3543
    1MOM     C1    1   3.504   0.359   0.945
    1MOM     O2    2   3.451   0.463   1.029
    1MOM     C3    3   3.376   0.562   0.968
    1MOM     C4    4   3.361   0.574   0.829
    1MOM     C5    5   3.280   0.673   0.776
    1MOM     C6    6   3.211   0.762   0.859
    1MOM     C7    7   3.114   0.846   0.790
    1MOM     C8    8   2.978   0.844   0.827
    1MOM     C9    9   2.878   0.900   0.745
    1MOM    C10   10   2.737   0.903   0.790
    1MOM    O11   11   2.650   0.932   0.707
    1MOM    C12   12   2.918   0.958   0.623
    1MOM    C13   13   3.054   0.970   0.591
    1MOM    C14   14   3.151   0.916   0.674
    1MOM    C15   15   3.229   0.756   0.999
    1MOM    C16   16   3.167   0.853   1.092
    1MOM    C17   17   3.173   0.991   1.063
    1MOM    C18   18   3.108   1.085   1.145
    1MOM    C19   19   3.096   1.230   1.102
    1MOM    C20   20   3.226   1.305   1.131
    1MOM    N21   21   3.064   1.241   0.959
    1MOM    C22   22   3.044   1.041   1.261
    1MOM    C23   23   3.039   0.905   1.292
    1MOM    C24   24   3.100   0.811   1.207
    1MOM    C25   25   3.310   0.654   1.051
    1MOM    H26   26   3.578   0.401   0.875
    1MOM    H27   27   3.425   0.311   0.887
    1MOM    H28   28   3.554   0.283   1.006
    1MOM    H29   29   3.409   0.507   0.760
    1MOM    H30   30   3.266   0.676   0.669
    1MOM    H31   31   2.950   0.794   0.919
    1MOM    H32   32   2.844   1.003   0.558
    1MOM    H33   33   3.086   1.022   0.501
    1MOM    H34   34   3.256   0.924   0.647
    1MOM    H35   35   3.222   1.026   0.974
    1MOM    H36   36   3.016   1.279   1.159
    1MOM    H37   37   3.214   1.412   1.108
    1MOM    H38   38   3.252   1.297   1.238
    1MOM    H39   39   3.309   1.265   1.073
    1MOM    H40   40   3.095   1.326   0.912
    1MOM    H41   41   2.994   1.112   1.326
    1MOM    H42   42   2.986   0.871   1.381
    1MOM    H43   43   3.092   0.706   1.229
    1MOM    H44   44   3.325   0.646   1.158
    2MOM    C45   45   3.310   1.009   0.117
    2MOM    O46   46   3.331   1.142   0.169
    2MOM    C47   47   3.229   1.194   0.245
    2MOM    C48   48   3.096   1.152   0.235
    2MOM    C49   49   3.001   1.198   0.324
    2MOM    C50   50   3.035   1.287   0.426
    2MOM    C51   51   2.941   1.292   0.539
    2MOM    C52   52   2.986   1.267   0.670
    2MOM    C53   53   2.898   1.229   0.772
    2MOM    C54   54   2.945   1.193   0.909
    2MOM    O55   55   2.869   1.130   0.983
    2MOM    C56   56   2.762   1.217   0.738
    2MOM    C57   57   2.714   1.253   0.611
    2MOM    C58   58   2.804   1.293   0.513
    2MOM    C59   59   3.165   1.344   0.430
    2MOM    C60   60   3.201   1.447   0.529
    2MOM    C61   61   3.106   1.545   0.564
    2MOM    C62   62   3.126   1.630   0.674
    2MOM    C63   63   3.013   1.715   0.726
    2MOM    C64   64   2.980   1.828   0.629
    2MOM    N65   65   2.892   1.635   0.748
    2MOM    C66   66   3.248   1.623   0.743
    2MOM    C67   67   3.346   1.530   0.706
    2MOM    C68   68   3.322   1.441   0.600
    2MOM    C69   69   3.261   1.294   0.338
    2MOM    H70   70   3.237   1.010   0.036
    2MOM    H71   71   3.275   0.941   0.195
    2MOM    H72   72   3.404   0.970   0.077
    2MOM    H73   73   3.065   1.077   0.162
    2MOM    H74   74   2.902   1.153   0.320
    2MOM    H75   75   3.094   1.267   0.692
    2MOM    H76   76   2.691   1.187   0.813
    2MOM    H77   77   2.609   1.248   0.589
    2MOM    H78   78   2.765   1.316   0.414
    2MOM    H79   79   3.012   1.551   0.511
    2MOM    H80   80   3.042   1.761   0.822
    2MOM    H81   81   2.904   1.894   0.672
    2MOM    H82   82   3.069   1.887   0.608
    2MOM    H83   83   2.942   1.788   0.534
    2MOM    H84   84   2.803   1.683   0.735
    2MOM    H85   85   3.265   1.686   0.829
    2MOM    H86   86   3.438   1.523   0.763
    2MOM    H87   87   3.395   1.365   0.577
    2MOM    H88   88   3.364   1.331   0.342
    3MOM    C89   89   2.273   1.024   0.412
    3MOM    O90   90   2.246   1.164   0.425
    3MOM    C91   91   2.296   1.227   0.537
    3MOM    C92   92   2.329   1.157   0.654
    3MOM    C93   93   2.391   1.222   0.759
    3MOM    C94   94   2.423   1.359   0.753
    3MOM    C95   95   2.523   1.406   0.852
    3MOM    C96   96   2.639   1.477   0.812
    3MOM    C97   97   2.756   1.476   0.891
    3MOM    C98   98   2.885   1.538   0.847
    3MOM    O99   99   2.989   1.509   0.905
    3MOM   C100  100   2.749   1.405   1.012
    3MOM   C101  101   2.631   1.347   1.058
    3MOM   C102  102   2.517   1.352   0.980
    3MOM   C103  103   2.378   1.434   0.641
    3MOM   C104  104   2.406   1.579   0.636
    3MOM   C105  105   2.387   1.656   0.753
    3MOM   C106  106   2.446   1.781   0.767
    3MOM   C107  107   2.450   1.850   0.902
    3MOM   C108  108   2.308   1.881   0.951
    3MOM   N109  109   2.516   1.766   1.003
    3MOM   C110  110   2.514   1.836   0.657
    3MOM   C111  111   2.526   1.765   0.537
    3MOM   C112  112   2.472   1.636   0.526
    3MOM   C113  113   2.317   1.366   0.534
    3MOM   H114  114   2.212   0.966   0.484
    3MOM   H115  115   2.379   1.002   0.432
    3MOM   H116  116   2.250   0.989   0.312
    3MOM   H117  117   2.314   1.051   0.665
    3MOM   H118  118   2.425   1.161   0.842
    3MOM   H119  119   2.646   1.521   0.713
    3MOM   H120  120   2.838   1.399   1.074
    3MOM   H121  121   2.627   1.296   1.152
    3MOM   H122  122   2.427   1.303   1.016
    3MOM   H123  123   2.338   1.610   0.838
    3MOM   H124  124   2.504   1.945   0.894
    3MOM   H125  125   2.313   1.939   1.043
    3MOM   H126  126   2.254   1.939   0.876
    3MOM   H127  127   2.253   1.789   0.972
    3MOM   H128  128   2.476   1.763   1.096
    3MOM   H129  129   2.565   1.931   0.667
    3MOM   H130  130   2.581   1.807   0.454
    3MOM   H131  131   2.489   1.577   0.437
    3MOM   H132  132   2.288   1.421   0.445
    4MOM   C133  133   2.580   0.925   1.434
    4MOM   O134  134   2.514   1.046   1.473
    4MOM   C135  135   2.577   1.165   1.450
    4MOM   C136  136   2.710   1.174   1.404
    4MOM   C137  137   2.764   1.298   1.373
    4MOM   C138  138   2.690   1.417   1.382
    4MOM   C139  139   2.747   1.534   1.310
    4MOM   C140  140   2.669   1.607   1.216
    4MOM   C141  141   2.730   1.683   1.114
    4MOM   C142  142   2.653   1.748   1.002
    4MOM   O143  143   2.714   1.790   0.903
    4MOM   C144  144   2.870   1.688   1.115
    4MOM   C145  145   2.947   1.627   1.214
    4MOM   C146  146   2.885   1.553   1.313
    4MOM   C147  147   2.560   1.410   1.436
    4MOM   C148  148   2.482   1.534   1.450
    4MOM   C149  149   2.544   1.650   1.499
    4MOM   C150  150   2.489   1.777   1.479
    4MOM   C151  151   2.570   1.902   1.507
    4MOM   C152  152   2.611   1.912   1.654
    4MOM   N153  153   2.691   1.906   1.424
    4MOM   C154  154   2.363   1.786   1.418
    4MOM   C155  155   2.295   1.670   1.377
    4MOM   C156  156   2.354   1.545   1.393
    4MOM   C157  157   2.505   1.285   1.468
    4MOM   H158  158   2.672   0.910   1.493
    4MOM   H159  159   2.607   0.927   1.327
    4MOM   H160  160   2.515   0.839   1.451
    4MOM   H161  161   2.771   1.087   1.388
    4MOM   H162  162   2.863   1.299   1.329
    4MOM   H163  163   2.562   1.592   1.210
    4MOM   H164  164   2.923   1.740   1.036
    4MOM   H165  165   3.055   1.635   1.212
    4MOM   H166  166   2.947   1.503   1.387
    4MOM   H167  167   2.644   1.642   1.542
    4MOM   H168  168   2.509   1.991   1.484
    4MOM   H169  169   2.654   2.010   1.674
    4MOM   H170  170   2.523   1.899   1.718
    4MOM   H171  171   2.684   1.835   1.678
    4MOM   H172  172   2.778   1.933   1.469
    4MOM   H173  173   2.321   1.883   1.397
    4MOM   H174  174   2.198   1.679   1.328
    4MOM   H175  175   2.305   1.457   1.352
    4MOM   H176  176   2.404   1.278   1.506
    5MOM   C177  177   3.537   1.512   1.171
    5MOM   O178  178   3.480   1.589   1.278
    5MOM   C179  179   3.386   1.684   1.248
    5MOM   C180  180   3.338   1.707   1.118
    5MOM   C181  181   3.236   1.799   1.096
    5MOM   C182  182   3.180   1.874   1.201
    5MOM   C183  183   3.053   1.945   1.169
    5MOM   C184  184   2.940   1.935   1.254
    5MOM   C185  185   2.810   1.964   1.209
    5MOM   C186  186   2.687   1.935   1.289
    5MOM   O187  187   2.576   1.935   1.234
    5MOM   C188  188   2.799   2.007   1.075
    5MOM   C189  189   2.911   2.031   0.995
    5MOM   C190  190   3.038   2.004   1.043
    5MOM   C191  191   3.235   1.860   1.331
    5MOM   C192  192   3.178   1.940   1.440
    5MOM   C193  193   3.156   2.076   1.420
    5MOM   C194  194   3.065   2.148   1.498
    5MOM   C195  195   3.020   2.289   1.460
    5MOM   C196  196   3.140   2.381   1.442
    5MOM   N197  197   2.941   2.289   1.337
    5MOM   C198  198   3.005   2.081   1.607
    5MOM   C199  199   3.036   1.948   1.636
    5MOM   C200  200   3.122   1.877   1.553
    5MOM   C201  201   3.335   1.764   1.352
    5MOM   H202  202   3.593   1.575   1.103
    5MOM   H203  203   3.458   1.460   1.114
    5MOM   H204  204   3.604   1.436   1.211
    5MOM   H205  205   3.371   1.650   1.034
    5MOM   H206  206   3.195   1.805   0.996
    5MOM   H207  207   2.948   1.887   1.350
    5MOM   H208  208   2.701   2.024   1.033
    5MOM   H209  209   2.899   2.066   0.893
    5MOM   H210  210   3.123   2.018   0.977
    5MOM   H211  211   3.198   2.124   1.332
    5MOM   H212  212   2.960   2.330   1.541
    5MOM   H213  213   3.106   2.484   1.430
    5MOM   H214  214   3.207   2.376   1.529
    5MOM   H215  215   3.198   2.354   1.353
    5MOM   H216  216   2.976   2.341   1.258
    5MOM   H217  217   2.929   2.132   1.666
    5MOM   H218  218   2.987   1.897   1.719
    5MOM   H219  219   3.137   1.770   1.569
    5MOM   H220  220   3.374   1.747   1.452
    6MOM   C221  221   2.901   2.088   0.381
    6MOM   O222  222   2.957   2.183   0.474
    6MOM   C223  223   2.883   2.215   0.586
    6MOM   C224  224   2.763   2.154   0.622
    6MOM   C225  225   2.700   2.186   0.741
    6MOM   C226  226   2.752   2.282   0.830
    6MOM   C227  227   2.692   2.290   0.966
    6MOM   C228  228   2.772   2.297   1.084
    6MOM   C229  229   2.722   2.264   1.211
    6MOM   C230  230   2.809   2.251   1.333
    6MOM   O231  231   2.764   2.196   1.433
    6MOM   C232  232   2.588   2.224   1.215
    6MOM   C233  233   2.504   2.227   1.105
    6MOM   C234  234   2.555   2.263   0.981
    6MOM   C235  235   2.870   2.352   0.790
    6MOM   C236  236   2.926   2.455   0.878
    6MOM   C237  237   2.839   2.551   0.933
    6MOM   C238  238   2.875   2.624   1.048
    6MOM   C239  239   2.772   2.707   1.122
    6MOM   C240  240   2.696   2.802   1.028
    6MOM   N241  241   2.675   2.622   1.191
    6MOM   C242  242   3.005   2.608   1.098
    6MOM   C243  243   3.097   2.522   1.036
    6MOM   C244  244   3.057   2.445   0.926
    6MOM   C245  245   2.934   2.315   0.670
    6MOM   H246  246   2.808   2.127   0.337
    6MOM   H247  247   2.878   1.993   0.429
    6MOM   H248  248   2.972   2.069   0.301
    6MOM   H249  249   2.718   2.077   0.561
    6MOM   H250  250   2.612   2.129   0.768
    6MOM   H251  251   2.879   2.312   1.076
    6MOM   H252  252   2.547   2.188   1.310
    6MOM   H253  253   2.401   2.196   1.113
    6MOM   H254  254   2.489   2.260   0.895
    6MOM   H255  255   2.738   2.557   0.896
    6MOM   H256  256   2.824   2.771   1.195
    6MOM   H257  257   2.635   2.870   1.086
    6MOM   H258  258   2.767   2.859   0.968
    6MOM   H259  259   2.631   2.745   0.961
    6MOM   H260  260   2.592   2.594   1.140
    6MOM   H261  261   3.035   2.661   1.189
    6MOM   H262  262   3.197   2.510   1.077
    6MOM   H263  263   3.125   2.370   0.885
    6MOM   H264  264   3.027   2.363   0.642
    7MOM   C265  265   1.985   1.927   1.093
    7MOM   O266  266   2.009   2.066   1.065
    7MOM   C267  267   2.087   2.139   1.153
    7MOM   C268  268   2.153   2.084   1.264
    7MOM   C269  269   2.238   2.161   1.341
    7MOM   C270  270   2.259   2.299   1.316
    7MOM   C271  271   2.371   2.366   1.392
    7MOM   C272  272   2.462   2.458   1.331
    7MOM   C273  273   2.586   2.493   1.389
    7MOM   C274  274   2.688   2.577   1.321
    7MOM   O275  275   2.794   2.602   1.378
    7MOM   C276  276   2.616   2.433   1.512
    7MOM   C277  277   2.527   2.349   1.576
    7MOM   C278  278   2.405   2.319   1.519
    7MOM   C279  279   2.187   2.357   1.208
    7MOM   C280  280   2.204   2.498   1.173
    7MOM   C281  281   2.200   2.594   1.277
    7MOM   C282  282   2.251   2.723   1.257
    7MOM   C283  283   2.265   2.820   1.373
    7MOM   C284  284   2.138   2.826   1.460
    7MOM   N285  285   2.377   2.781   1.460
    7MOM   C286  286   2.296   2.759   1.129
    7MOM   C287  287   2.291   2.667   1.024
    7MOM   C288  288   2.245   2.537   1.046
    7MOM   C289  289   2.105   2.275   1.127
    7MOM   H290  290   1.925   1.916   1.184
    7MOM   H291  291   2.079   1.871   1.105
    7MOM   H292  292   1.930   1.882   1.009
    7MOM   H293  293   2.143   1.979   1.288
    7MOM   H294  294   2.292   2.110   1.420
    7MOM   H295  295   2.445   2.493   1.230
    7MOM   H296  296   2.714   2.450   1.556
    7MOM   H297  297   2.556   2.301   1.669
    7MOM   H298  298   2.339   2.250   1.572
    7MOM   H299  299   2.169   2.562   1.376
    7MOM   H300  300   2.281   2.920   1.333
    7MOM   H301  301   2.148   2.907   1.533
    7MOM   H302  302   2.051   2.846   1.397
    7MOM   H303  303   2.122   2.732   1.513
    7MOM   H304  304   2.366   2.699   1.518
    7MOM   H305  305   2.337   2.858   1.112
    7MOM   H306  306   2.326   2.696   0.925
    7MOM   H307  307   2.250   2.464   0.966
    7MOM   H308  308   2.054   2.318   1.042
    8MOM   C309  309   2.783   2.045   1.958
    8MOM   O310  310   2.675   2.137   1.977
    8MOM   C311  311   2.688   2.264   1.927
    8MOM   C312  312   2.804   2.319   1.870
    8MOM   C313  313   2.804   2.448   1.817
    8MOM   C314  314   2.688   2.528   1.816
    8MOM   C315  315   2.694   2.657   1.740
    8MOM   C316  316   2.590   2.699   1.651
    8MOM   C317  317   2.602   2.813   1.569
    8MOM   C318  318   2.497   2.850   1.469
    8MOM   O319  319   2.516   2.942   1.392
    8MOM   C320  320   2.717   2.890   1.582
    8MOM   C321  321   2.819   2.853   1.670
    8MOM   C322  322   2.808   2.739   1.747
    8MOM   C323  323   2.571   2.474   1.876
    8MOM   C324  324   2.443   2.546   1.875
    8MOM   C325  325   2.439   2.680   1.916
    8MOM   C326  326   2.323   2.757   1.898
    8MOM   C327  327   2.326   2.905   1.932
    8MOM   C328  328   2.365   2.929   2.076
    8MOM   N329  329   2.423   2.970   1.846
    8MOM   C330  330   2.209   2.698   1.844
    8MOM   C331  331   2.210   2.562   1.809
    8MOM   C332  332   2.326   2.487   1.826
    8MOM   C333  333   2.573   2.345   1.930
    8MOM   H334  334   2.873   2.077   2.012
    8MOM   H335  335   2.807   2.035   1.852
    8MOM   H336  336   2.754   1.946   1.996
    8MOM   H337  337   2.896   2.262   1.866
    8MOM   H338  338   2.895   2.484   1.769
    8MOM   H339  339   2.503   2.636   1.641
    8MOM   H340  340   2.729   2.980   1.521
    8MOM   H341  341   2.908   2.915   1.676
    8MOM   H342  342   2.890   2.712   1.813
    8MOM   H343  343   2.529   2.725   1.954
    8MOM   H344  344   2.225   2.946   1.916
    8MOM   H345  345   2.359   3.036   2.100
    8MOM   H346  346   2.298   2.874   2.145
    8MOM   H347  347   2.468   2.896   2.096
    8MOM   H348  348   2.513   2.926   1.829
    8MOM   H349  349   2.119   2.756   1.827
    8MOM   H350  350   2.121   2.516   1.767
    8MOM   H351  351   2.327   2.382   1.794
    8MOM   H352  352   2.484   2.303   1.975
    9CAP   C353  353   2.602   0.946   0.978
    9CAP   O354  354   2.711   0.872   0.920
    9CAP   H355  355   2.620   1.053   0.971
    9CAP   H356  356   2.595   0.921   1.085
    9CAP   H357  357   2.508   0.922   0.930
   10CAP   C358  358   2.089   3.264   1.705
   10CAP   C359  359   2.241   3.248   1.690
   10CAP   C360  360   2.274   3.245   1.540
   10CAP   C361  361   2.310   3.366   1.760
   10CAP   O362  362   2.269   3.124   1.756
   10CAP   C363  363   2.397   3.077   1.763
   10CAP   O364  364   2.495   3.119   1.706
   10CAP   H365  365   2.055   3.358   1.661
   10CAP   H366  366   2.037   3.182   1.656
   10CAP   H367  367   2.062   3.265   1.812
   10CAP   H368  368   2.234   3.155   1.494
   10CAP   H369  369   2.381   3.249   1.523
   10CAP   H370  370   2.230   3.332   1.490
   10CAP   H371  371   2.292   3.362   1.868
   10CAP   H372  372   2.418   3.364   1.743
   10CAP   H373  373   2.272   3.461   1.721
    1TCM     c1  374   4.339   0.335   2.673
    1TCM    cl1  375   4.464   0.360   2.548
    1TCM    cl2  376   4.243   0.484   2.690
    1TCM     h1  377   4.273   0.252   2.642
    1TCM    cl3  378   4.417   0.296   2.828
    1TCM     c1  379   2.114   2.578   4.133
    1TCM    cl1  380   2.087   2.465   4.267
    1TCM    cl2  381   2.024   2.729   4.164
    1TCM     h1  382   2.222   2.601   4.124
    1TCM    cl3  383   2.056   2.505   3.981
    1TCM     c1  384   2.944   4.653   4.754
    1TCM    cl1  385   2.861   4.580   4.614
    1TCM    cl2  386   2.924   4.548   4.896
    1TCM     h1  387   3.052   4.665   4.731
    1TCM    cl3  388   2.872   4.813   4.788
    1TCM     c1  389   2.953   0.354   3.584
    1TCM    cl1  390   2.900   0.504   3.505
    1TCM    cl2  391   3.126   0.328   3.551
    1TCM     h1  392   2.937   0.362   3.693
    1TCM    cl3  393   2.860   0.217   3.520
    1TCM     c1  394   2.402   1.617   2.770
    1TCM    cl1  395   2.468   1.488   2.666
    1TCM    cl2  396   2.453   1.589   2.938
    1TCM     h1  397   2.440   1.715   2.736
    1TCM    cl3  398   2.224   1.615   2.760
    1TCM     c1  399   4.976   0.934   0.203
    1TCM    cl1  400   5.116   1.006   0.120
    1TCM    cl2  401   4.996   0.955   0.379
    1TCM     h1  402   4.884   0.985   0.170
    1TCM    cl3  403   4.966   0.761   0.165
    1TCM     c1  404   2.911   0.816   2.625
    1TCM    cl1  405   2.816   0.943   2.544
    1TCM    cl2  406   2.854   0.656   2.572
    1TCM     h1  407   3.018   0.828   2.600
    1TCM    cl3  408   2.890   0.830   2.801
    1TCM     c1  409   3.731   4.034   4.705
    1TCM    cl1  410   3.744   3.941   4.553
    1TCM    cl2  411   3.573   4.114   4.712
    1TCM     h1  412   3.742   3.965   4.791
    1TCM    cl3  413   3.861   4.156   4.710
    1TCM     c1  414   1.010   4.318   3.303
    1TCM    cl1  415   0.939   4.245   3.157
    1TCM    cl2  416   1.060   4.485   3.268
    1TCM     h1  417   0.935   4.318   3.385
    1TCM    cl3  418   1.152   4.223   3.354
    1TCM     c1  419   3.888   1.314   2.572
    1TCM    cl1  420   3.866   1.376   2.737
    1TCM    cl2  421   4.062   1.308   2.533
    1TCM     h1  422   3.845   1.212   2.565
    1TCM    cl3  423   3.806   1.421   2.456
    1TCM     c1  424   4.878   3.195   4.140
    1TCM    cl1  425   4.760   3.209   4.272
    1TCM    cl2  426   4.831   3.063   4.031
    1TCM     h1  427   4.881   3.291   4.083
    1TCM    cl3  428   5.039   3.162   4.208
    1TCM     c1  429   0.553   2.839   1.442
    1TCM    cl1  430   0.537   3.013   1.474
    1TCM    cl2  431   0.391   2.764   1.441
    1TCM     h1  432   0.601   2.823   1.344
    1TCM    cl3  433   0.651   2.763   1.570
    1TCM     c1  434   1.580   1.857   2.379
    1TCM    cl1  435   1.712   1.976   2.385
    1TCM    cl2  436   1.599   1.755   2.234
    1TCM     h1  437   1.583   1.793   2.469
    1TCM    cl3  438   1.424   1.941   2.372
    1TCM     c1  439   4.284   4.438   0.717
    1TCM    cl1  440   4.453   4.426   0.770
    1TCM    cl2  441   4.245   4.300   0.610
    1TCM     h1  442   4.217   4.436   0.805
    1TCM    cl3  443   4.260   4.590   0.628
    1TCM     c1  444   2.406   5.148   3.582
    1TCM    cl1  445   2.499   5.175   3.731
    1TCM    cl2  446   2.481   5.238   3.449
    1TCM     h1  447   2.406   5.040   3.558
    1TCM    cl3  448   2.239   5.204   3.605
    1TCM     c1  449   2.985   1.828   2.865
    1TCM    cl1  450   3.109   1.947   2.820
    1TCM    cl2  451   3.033   1.667   2.806
    1TCM     h1  452   2.974   1.825   2.976
    1TCM    cl3  453   2.830   1.873   2.792
    1TCM     c1  454   0.621   3.202   4.835
    1TCM    cl1  455   0.779   3.237   4.761
    1TCM    cl2  456   0.592   3.027   4.834
    1TCM     h1  457   0.620   3.239   4.940
    1TCM    cl3  458   0.493   3.284   4.743
    1TCM     c1  459   4.599   3.538   2.146
    1TCM    cl1  460   4.542   3.650   2.020
    1TCM    cl2  461   4.460   3.457   2.221
    1TCM     h1  462   4.666   3.462   2.100
    1TCM    cl3  463   4.688   3.629   2.270
    1TCM     c1  464   5.239   3.640   5.067
    1TCM    cl1  465   5.164   3.789   5.006
    1TCM    cl2  466   5.340   3.678   5.209
    1TCM     h1  467   5.160   3.568   5.097
    1TCM    cl3  468   5.340   3.568   4.940
    1TCM     c1  469   2.207   1.168   3.493
    1TCM    cl1  470   2.324   1.267   3.583
    1TCM    cl2  471   2.263   1.151   3.324
    1TCM     h1  472   2.200   1.068   3.539
    1TCM    cl3  473   2.048   1.248   3.494
    1TCM     c1  474   1.204   1.961   2.853
    1TCM    cl1  475   1.264   2.062   2.719
    1TCM    cl2  476   1.026   1.956   2.848
    1TCM     h1  477   1.244   1.858   2.842
    1TCM    cl3  478   1.258   2.029   3.008
    1TCM     c1  479   3.259   4.585   5.011
    1TCM    cl1  480   3.166   4.564   4.861
    1TCM    cl2  481   3.161   4.535   5.150
    1TCM     h1  482   3.351   4.523   5.007
    1TCM    cl3  483   3.304   4.757   5.029
    1TCM     c1  484   2.963   2.736   2.148
    1TCM    cl1  485   3.016   2.903   2.178
    1TCM    cl2  486   2.823   2.699   2.250
    1TCM     h1  487   2.935   2.725   2.041
    1TCM    cl3  488   3.096   2.624   2.185
    1TCM     c1  489   2.731   2.026   5.069
    1TCM    cl1  490   2.833   1.933   5.181
    1TCM    cl2  491   2.829   2.077   4.929
    1TCM     h1  492   2.647   1.964   5.035
    1TCM    cl3  493   2.669   2.170   5.153
    1TCM     c1  494   5.034   0.255   1.343
    1TCM    cl1  495   4.904   0.139   1.311
    1TCM    cl2  496   4.974   0.384   1.451
    1TCM     h1  497   5.119   0.203   1.392
    1TCM    cl3  498   5.088   0.328   1.190
    1TCM     c1  499   0.415   3.272   5.263
    1TCM    cl1  500   0.548   3.181   5.339
    1TCM    cl2  501   0.334   3.167   5.144
    1TCM     h1  502   0.343   3.303   5.340
    1TCM    cl3  503   0.481   3.415   5.180
    1TCM     c1  504   3.965   3.229   1.871
    1TCM    cl1  505   3.909   3.061   1.854
    1TCM    cl2  506   3.958   3.277   2.042
    1TCM     h1  507   4.069   3.237   1.834
    1TCM    cl3  508   3.859   3.336   1.775
    1TCM     c1  509   1.101   0.927   3.669
    1TCM    cl1  510   0.990   0.799   3.613
    1TCM    cl2  511   1.025   1.017   3.802
    1TCM     h1  512   1.196   0.880   3.705
    1TCM    cl3  513   1.136   1.037   3.535
    1TCM     c1  514   2.815   3.689   3.471
    1TCM    cl1  515   2.723   3.841   3.474
    1TCM    cl2  516   2.847   3.636   3.638
    1TCM     h1  517   2.757   3.611   3.418
    1TCM    cl3  518   2.969   3.715   3.387
    1TCM     c1  519   0.321   0.911   2.461
    1TCM    cl1  520   0.464   0.849   2.547
    1TCM    cl2  521   0.353   0.909   2.286
    1TCM     h1  522   0.234   0.847   2.484
    1TCM    cl3  523   0.288   1.077   2.514
    1TCM     c1  524   4.963   2.030   2.115
    1TCM    cl1  525   4.794   2.062   2.160
    1TCM    cl2  526   4.972   1.873   2.031
    1TCM     h1  527   4.999   2.110   2.047
    1TCM    cl3  528   5.064   2.025   2.261
    1TCM     c1  529   1.240   3.536   2.270
    1TCM    cl1  530   1.289   3.557   2.439
    1TCM    cl2  531   1.183   3.692   2.205
    1TCM     h1  532   1.326   3.501   2.210
    1TCM    cl3  533   1.108   3.417   2.260
    1TCM     c1  534   3.878   1.447   2.045
    1TCM    cl1  535   3.921   1.279   2.004
    1TCM    cl2  536   3.736   1.497   1.949
    1TCM     h1  537   3.854   1.454   2.153
    1TCM    cl3  538   4.015   1.554   2.007
    1TCM     c1  539   0.787   2.261   2.085
    1TCM    cl1  540   0.624   2.248   2.014
    1TCM    cl2  541   0.785   2.377   2.220
    1TCM     h1  542   0.819   2.162   2.122
    1TCM    cl3  543   0.901   2.318   1.961
    1TCM     c1  544   2.227   3.799   1.775
    1TCM    cl1  545   2.224   3.947   1.874
    1TCM    cl2  546   2.130   3.823   1.628
    1TCM     h1  547   2.332   3.775   1.747
    1TCM    cl3  548   2.160   3.664   1.869
    1TCM     c1  549   1.033   4.554   1.176
    1TCM    cl1  550   1.206   4.519   1.154
    1TCM    cl2  551   0.956   4.573   1.016
    1TCM     h1  552   0.985   4.470   1.230
    1TCM    cl3  553   1.014   4.705   1.268
    1TCM     c1  554   0.240   1.276   4.797
    1TCM    cl1  555   0.113   1.213   4.690
    1TCM    cl2  556   0.318   1.140   4.882
    1TCM     h1  557   0.316   1.330   4.737
    1TCM    cl3  558   0.168   1.386   4.917
    1TCM     c1  559   1.335   3.883   4.786
    1TCM    cl1  560   1.173   3.954   4.800
    1TCM    cl2  561   1.457   4.010   4.811
    1TCM     h1  562   1.348   3.804   4.863
    1TCM    cl3  563   1.355   3.813   4.624
    1TCM     c1  564   0.312   0.754   4.847
    1TCM    cl1  565   0.450   0.866   4.855
    1TCM    cl2  566   0.333   0.625   4.968
    1TCM     h1  567   0.218   0.809   4.868
    1TCM    cl3  568   0.304   0.682   4.684
    1TCM     c1  569   1.099   4.300   2.232
    1TCM    cl1  570   1.087   4.253   2.403
    1TCM    cl2  571   1.108   4.154   2.131
    1TCM     h1  572   1.010   4.359   2.203
    1TCM    cl3  573   1.246   4.398   2.207
    1TCM     c1  574   3.701   4.121   0.176
    1TCM    cl1  575   3.600   4.087   0.318
    1TCM    cl2  576   3.661   4.282   0.112
    1TCM     h1  577   3.808   4.117   0.205
    1TCM    cl3  578   3.669   3.998   0.051
    1TCM     c1  579   1.483   1.295   1.260
    1TCM    cl1  580   1.616   1.180   1.286
    1TCM    cl2  581   1.523   1.450   1.336
    1TCM     h1  582   1.468   1.309   1.151
    1TCM    cl3  583   1.334   1.230   1.332
    1TCM     c1  584   3.475   0.639   2.333
    1TCM    cl1  585   3.575   0.749   2.431
    1TCM    cl2  586   3.528   0.645   2.164
    1TCM     h1  587   3.486   0.535   2.372
    1TCM    cl3  588   3.304   0.688   2.344
    1TCM     c1  589   0.175   0.663   2.009
    1TCM    cl1  590   0.203   0.520   1.907
    1TCM    cl2  591   0.257   0.641   2.165
    1TCM     h1  592   0.214   0.753   1.959
    1TCM    cl3  593   0.000   0.683   2.037
    1TCM     c1  594   3.883   2.605   1.119
    1TCM    cl1  595   3.741   2.626   1.224
    1TCM    cl2  596   3.967   2.760   1.101
    1TCM     h1  597   3.951   2.530   1.164
    1TCM    cl3  598   3.830   2.547   0.959
    1TCM     c1  599   4.944   1.743   3.395
    1TCM    cl1  600   4.970   1.609   3.509
    1TCM    cl2  601   5.030   1.709   3.243
    1TCM     h1  602   4.836   1.754   3.375
    1TCM    cl3  603   5.007   1.893   3.466
    1TCM     c1  604   1.993   3.599   2.423
    1TCM    cl1  605   1.857   3.541   2.324
    1TCM    cl2  606   2.025   3.770   2.386
    1TCM     h1  607   1.967   3.589   2.531
    1TCM    cl3  608   2.138   3.502   2.388
    1TCM     c1  609   0.580   0.242   4.873
    1TCM    cl1  610   0.468   0.325   4.762
    1TCM    cl2  611   0.493   0.197   5.021
    1TCM     h1  612   0.619   0.151   4.824
    1TCM    cl3  613   0.714   0.351   4.913
    1TCM     c1  614   4.487   0.567   4.492
    1TCM    cl1  615   4.483   0.410   4.574
    1TCM    cl2  616   4.448   0.546   4.319
    1TCM     h1  617   4.413   0.635   4.538
    1TCM    cl3  618   4.650   0.638   4.507
    1TCM     c1  619   3.828   4.685   1.613
    1TCM    cl1  620   3.737   4.672   1.765
    1TCM    cl2  621   3.780   4.553   1.504
    1TCM     h1  622   3.805   4.782   1.565
    1TCM    cl3  623   4.002   4.674   1.646
    1TCM     c1  624   4.492   4.582   4.901
    1TCM    cl1  625   4.623   4.509   4.806
    1TCM    cl2  626   4.534   4.579   5.074
    1TCM     h1  627   4.477   4.688   4.869
    1TCM    cl3  628   4.341   4.491   4.875
    1TCM     c1  629   4.021   4.329   1.772
    1TCM    cl1  630   4.057   4.483   1.852
    1TCM    cl2  631   4.086   4.331   1.607
    1TCM     h1  632   4.068   4.246   1.829
    1TCM    cl3  633   3.845   4.305   1.766
    1TCM     c1  634   3.835   4.057   3.397
    1TCM    cl1  635   3.680   4.073   3.484
    1TCM    cl2  636   3.939   3.942   3.484
    1TCM     h1  637   3.816   4.019   3.295
    1TCM    cl3  638   3.915   4.215   3.388
    1TCM     c1  639   0.380   0.918   3.401
    1TCM    cl1  640   0.270   0.833   3.291
    1TCM    cl2  641   0.511   0.808   3.452
    1TCM     h1  642   0.424   1.006   3.349
    1TCM    cl3  643   0.290   0.973   3.545
    1TCM     c1  644   3.185   2.633   2.971
    1TCM    cl1  645   3.049   2.589   3.077
    1TCM    cl2  646   3.337   2.577   3.044
    1TCM     h1  647   3.172   2.585   2.872
    1TCM    cl3  648   3.190   2.809   2.951
    1TCM     c1  649   3.692   2.320   2.459
    1TCM    cl1  650   3.819   2.224   2.380
    1TCM    cl2  651   3.765   2.463   2.536
    1TCM     h1  652   3.618   2.352   2.383
    1TCM    cl3  653   3.612   2.220   2.583
    1TCM     c1  654   4.990   0.695   2.438
    1TCM    cl1  655   5.088   0.684   2.586
    1TCM    cl2  656   4.830   0.759   2.478
    1TCM     h1  657   5.040   0.762   2.366
    1TCM    cl3  658   4.973   0.533   2.367
    1TCM     c1  659   5.149   3.692   1.343
    1TCM    cl1  660   5.195   3.810   1.219
    1TCM    cl2  661   4.975   3.709   1.379
    1TCM     h1  662   5.169   3.589   1.305
    1TCM    cl3  663   5.243   3.721   1.490
    1TCM     c1  664   1.504   3.301   0.952
    1TCM    cl1  665   1.505   3.199   1.098
    1TCM    cl2  666   1.666   3.302   0.880
    1TCM     h1  667   1.431   3.260   0.879
    1TCM    cl3  668   1.457   3.467   0.996
    1TCM     c1  669   4.866   0.101   2.177
    1TCM    cl1  670   5.034   0.041   2.174
    1TCM    cl2  671   4.777   0.033   2.039
    1TCM     h1  672   4.818   0.069   2.272
    1TCM    cl3  673   4.866   0.278   2.167
    1TCM     c1  674   2.825   4.421   4.166
    1TCM    cl1  675   2.664   4.350   4.189
    1TCM    cl2  676   2.875   4.504   4.315
    1TCM     h1  677   2.898   4.340   4.143
    1TCM    cl3  678   2.820   4.538   4.032
    1TCM     c1  679   4.632   1.667   0.298
    1TCM    cl1  680   4.544   1.819   0.327
    1TCM    cl2  681   4.719   1.678   0.143
    1TCM     h1  682   4.705   1.651   0.380
    1TCM    cl3  683   4.517   1.531   0.292
    1TCM     c1  684   2.932   4.798   4.439
    1TCM    cl1  685   2.833   4.846   4.578
    1TCM    cl2  686   2.829   4.785   4.295
    1TCM     h1  687   3.011   4.874   4.421
    1TCM    cl3  688   3.008   4.640   4.472
    1TCM     c1  689   3.835   4.107   2.099
    1TCM    cl1  690   3.752   4.203   2.223
    1TCM    cl2  691   3.960   4.206   2.020
    1TCM     h1  692   3.882   4.018   2.146
    1TCM    cl3  693   3.717   4.053   1.977
    1TCM     c1  694   0.885   0.196   3.434
    1TCM    cl1  695   0.984   0.092   3.329
    1TCM    cl2  696   0.717   0.197   3.374
    1TCM     h1  697   0.887   0.156   3.537
    1TCM    cl3  698   0.950   0.361   3.432
    1TCM     c1  699   0.928   1.340   2.680
    1TCM    cl1  700   0.862   1.434   2.544
    1TCM    cl2  701   0.803   1.322   2.805
    1TCM     h1  702   0.959   1.240   2.644
    1TCM    cl3  703   1.069   1.424   2.748
    1TCM     c1  704   1.181   0.761   2.329
    1TCM    cl1  705   1.094   0.640   2.427
    1TCM    cl2  706   1.131   0.746   2.159
    1TCM     h1  707   1.156   0.862   2.367
    1TCM    cl3  708   1.356   0.734   2.343
    1TCM     c1  709   2.933   1.230   3.869
    1TCM    cl1  710   3.009   1.360   3.775
    1TCM    cl2  711   3.026   1.203   4.018
    1TCM     h1  712   2.829   1.260   3.896
    1TCM    cl3  713   2.929   1.081   3.773
    1TCM     c1  714   4.622   5.119   1.281
    1TCM    cl1  715   4.548   5.139   1.120
    1TCM    cl2  716   4.656   5.278   1.351
    1TCM     h1  717   4.552   5.063   1.347
    1TCM    cl3  718   4.773   5.027   1.265
    1TCM     c1  719   0.536   4.435   0.329
    1TCM    cl1  720   0.397   4.445   0.439
    1TCM    cl2  721   0.480   4.455   0.161
    1TCM     h1  722   0.609   4.514   0.354
    1TCM    cl3  723   0.613   4.276   0.347
    1TCM     c1  724   2.420   3.424   2.293
    1TCM    cl1  725   2.449   3.591   2.240
    1TCM    cl2  726   2.379   3.423   2.467
    1TCM     h1  727   2.335   3.381   2.235
    1TCM    cl3  728   2.566   3.326   2.266
    1TCM     c1  729   0.407   3.178   1.109
    1TCM    cl1  730   0.278   3.296   1.141
    1TCM    cl2  731   0.417   3.148   0.934
    1TCM     h1  732   0.504   3.218   1.145
    1TCM    cl3  733   0.371   3.026   1.193
    1TCM     c1  734   3.371   3.644   1.039
    1TCM    cl1  735   3.491   3.755   0.968
    1TCM    cl2  736   3.397   3.632   1.214
    1TCM     h1  737   3.269   3.684   1.019
    1TCM    cl3  738   3.387   3.484   0.965
    1TCM     c1  739   3.203   3.023   4.930
    1TCM    cl1  740   3.323   3.149   4.896
    1TCM    cl2  741   3.092   3.079   5.057
    1TCM     h1  742   3.145   3.001   4.838
    1TCM    cl3  743   3.285   2.875   4.984
    1TCM     c1  744   1.137   1.365   1.885
    1TCM    cl1  745   0.970   1.374   1.945
    1TCM    cl2  746   1.242   1.465   1.988
    1TCM     h1  747   1.171   1.259   1.889
    1TCM    cl3  748   1.144   1.424   1.718
    1TCM     c1  749   1.954   2.593   4.736
    1TCM    cl1  750   2.024   2.432   4.709
    1TCM    cl2  751   1.992   2.647   4.901
    1TCM     h1  752   1.996   2.665   4.663
    1TCM    cl3  753   1.777   2.584   4.715
    1TCM     c1  754   2.159   4.137   4.126
    1TCM    cl1  755   2.031   4.071   4.023
    1TCM    cl2  756   2.121   4.103   4.297
    1TCM     h1  757   2.256   4.090   4.100
    1TCM    cl3  758   2.170   4.313   4.102
    1TCM     c1  759   0.785   0.356   0.179
    1TCM    cl1  760   0.757   0.298   0.013
    1TCM    cl2  761   0.923   0.270   0.250
    1TCM     h1  762   0.807   0.465   0.176
    1TCM    cl3  763   0.640   0.327   0.277
    1TCM     c1  764   1.130   0.605   2.972
    1TCM    cl1  765   1.161   0.650   2.803
    1TCM    cl2  766   1.248   0.686   3.077
    1TCM     h1  767   1.027   0.637   3.000
    1TCM    cl3  768   1.144   0.429   2.990
    1TCM     c1  769   4.495   3.253   3.319
    1TCM    cl1  770   4.624   3.367   3.274
    1TCM    cl2  771   4.519   3.198   3.486
    1TCM     h1  772   4.396   3.304   3.310
    1TCM    cl3  773   4.498   3.113   3.209
    1TCM     c1  774   3.183   4.923   5.266
    1TCM    cl1  775   3.314   4.828   5.340
    1TCM    cl2  776   3.184   5.088   5.333
    1TCM     h1  777   3.199   4.928   5.156
    1TCM    cl3  778   3.027   4.846   5.300
    1TCM     c1  779   1.765   0.101   3.618
    1TCM    cl1  780   1.702   0.181   3.473
    1TCM    cl2  781   1.771   0.218   3.752
    1TCM     h1  782   1.699   0.016   3.646
    1TCM    cl3  783   1.929   0.040   3.586
    1TCM     c1  784   0.979   0.825   4.044
    1TCM    cl1  785   0.929   0.720   4.179
    1TCM    cl2  786   0.889   0.979   4.052
    1TCM     h1  787   1.088   0.846   4.052
    1TCM    cl3  788   0.945   0.744   3.890
    1TCM     c1  789   2.056   5.140   2.409
    1TCM    cl1  790   1.964   5.062   2.279
    1TCM    cl2  791   1.944   5.201   2.533
    1TCM     h1  792   2.125   5.066   2.455
    1TCM    cl3  793   2.151   5.275   2.342
    1TCM     c1  794   1.098   1.252   2.349
    1TCM    cl1  795   1.228   1.131   2.346
    1TCM    cl2  796   1.133   1.373   2.475
    1TCM     h1  797   1.092   1.303   2.250
    1TCM    cl3  798   0.943   1.172   2.385
    1TCM     c1  799   1.573   1.679   0.156
    1TCM    cl1  800   1.453   1.679   0.288
    1TCM    cl2  801   1.488   1.673  -0.000
    1TCM     h1  802   1.634   1.771   0.162
    1TCM    cl3  803   1.679   1.537   0.172
    1TCM     c1  804   4.234   3.109   2.489
    1TCM    cl1  805   4.291   2.975   2.388
    1TCM    cl2  806   4.074   3.163   2.431
    1TCM     h1  807   4.226   3.075   2.594
    1TCM    cl3  808   4.348   3.245   2.479
    1TCM     c1  809   2.921   4.781   1.450
    1TCM    cl1  810   2.778   4.762   1.345
    1TCM    cl2  811   3.057   4.844   1.354
    1TCM     h1  812   2.897   4.853   1.531
    1TCM    cl3  813   2.964   4.624   1.520
    1TCM     c1  814   4.321   2.468   3.327
    1TCM    cl1  815   4.494   2.510   3.320
    1TCM    cl2  816   4.250   2.535   3.476
    1TCM     h1  817   4.269   2.511   3.239
    1TCM    cl3  818   4.302   2.292   3.327
    1TCM     c1  819   4.323   0.803   3.691
    1TCM    cl1  820   4.175   0.900   3.699
    1TCM    cl2  821   4.304   0.674   3.570
    1TCM     h1  822   4.409   0.868   3.662
    1TCM    cl3  823   4.356   0.730   3.850
    1TCM     c1  824   4.253   1.016   3.316
    1TCM    cl1  825   4.429   0.993   3.326
    1TCM    cl2  826   4.176   0.954   3.464
    1TCM     h1  827   4.231   1.124   3.305
    1TCM    cl3  828   4.190   0.928   3.175
    1TCM     c1  829   2.135   0.290   3.298
    1TCM    cl1  830   2.060   0.234   3.449
    1TCM    cl2  831   2.068   0.199   3.161
    1TCM     h1  832   2.114   0.398   3.284
    1TCM    cl3  833   2.311   0.264   3.306
    1TCM     c1  834   0.475   4.573   3.641
    1TCM    cl1  835   0.392   4.679   3.525
    1TCM    cl2  836   0.355   4.491   3.744
    1TCM     h1  837   0.535   4.497   3.586
    1TCM    cl3  838   0.583   4.671   3.744
    1TCM     c1  839   0.272   1.934   4.811
    1TCM    cl1  840   0.241   2.107   4.834
    1TCM    cl2  841   0.382   1.911   4.674
    1TCM     h1  842   0.318   1.892   4.903
    1TCM    cl3  843   0.118   1.850   4.778
    1TCM     c1  844   1.068   5.170   5.223
    1TCM    cl1  845   1.197   5.235   5.327
    1TCM    cl2  846   0.942   5.097   5.324
    1TCM     h1  847   1.025   5.253   5.163
    1TCM    cl3  848   1.136   5.047   5.114
    1TCM     c1  849   0.814   2.121   1.181
    1TCM    cl1  850   0.800   2.296   1.208
    1TCM    cl2  851   0.653   2.053   1.152
    1TCM     h1  852   0.879   2.102   1.093
    1TCM    cl3  853   0.886   2.045   1.325
    1TCM     c1  854   4.829   1.652   2.371
    1TCM    cl1  855   4.973   1.613   2.467
    1TCM    cl2  856   4.856   1.601   2.202
    1TCM     h1  857   4.741   1.598   2.412
    1TCM    cl3  858   4.800   1.827   2.376
    1TCM     c1  859   3.044   1.347   2.751
    1TCM    cl1  860   3.060   1.181   2.689
    1TCM    cl2  861   3.140   1.363   2.900
    1TCM     h1  862   3.081   1.418   2.675
    1TCM    cl3  863   2.873   1.381   2.787
    1TCM     c1  864   3.182   0.539   2.625
    1TCM    cl1  865   3.239   0.707   2.616
    1TCM    cl2  866   3.226   0.470   2.783
    1TCM     h1  867   3.072   0.536   2.613
    1TCM    cl3  868   3.259   0.443   2.496
    1TCM     c1  869   2.410   4.724   1.128
    1TCM    cl1  870   2.288   4.698   1.254
    1TCM    cl2  871   2.341   4.687   0.969
    1TCM     h1  872   2.444   4.830   1.130
    1TCM    cl3  873   2.550   4.618   1.158
    1TCM     c1  874   0.570   3.438   4.084
    1TCM    cl1  875   0.444   3.442   4.209
    1TCM    cl2  876   0.571   3.593   3.997
    1TCM     h1  877   0.668   3.422   4.131
    1TCM    cl3  878   0.535   3.306   3.970
    1TCM     c1  879   2.602   0.110   1.796
    1TCM    cl1  880   2.602   0.235   1.923
    1TCM    cl2  881   2.763   0.035   1.787
    1TCM     h1  882   2.526   0.032   1.820
    1TCM    cl3  883   2.562   0.184   1.639
    1TCM     c1  884   2.649   4.807   3.659
    1TCM    cl1  885   2.589   4.670   3.756
    1TCM    cl2  886   2.532   4.844   3.530
    1TCM     h1  887   2.661   4.896   3.725
    1TCM    cl3  888   2.806   4.765   3.587
    1TCM     c1  889   3.653   3.604   4.858
    1TCM    cl1  890   3.656   3.632   5.033
    1TCM    cl2  891   3.637   3.430   4.826
    1TCM     h1  892   3.567   3.658   4.813
    1TCM    cl3  893   3.805   3.663   4.786
    1TCM     c1  894   1.776   0.303   4.668
    1TCM    cl1  895   1.813   0.163   4.772
    1TCM    cl2  896   1.608   0.292   4.612
    1TCM     h1  897   1.790   0.397   4.727
    1TCM    cl3  898   1.886   0.304   4.529
    1TCM     c1  899   3.426   3.786   1.909
    1TCM    cl1  900   3.340   3.931   1.963
    1TCM    cl2  901   3.527   3.826   1.768
    1TCM     h1  902   3.490   3.748   1.991
    1TCM    cl3  903   3.308   3.661   1.863
    1TCM     c1  904   0.202   2.796   2.231
    1TCM    cl1  905   0.058   2.708   2.288
    1TCM    cl2  906   0.251   2.731   2.073
    1TCM     h1  907   0.178   2.904   2.222
    1TCM    cl3  908   0.334   2.773   2.348
    1TCM     c1  909   1.811   0.936   3.552
    1TCM    cl1  910   1.892   0.834   3.674
    1TCM    cl2  911   1.806   1.104   3.609
    1TCM     h1  912   1.867   0.931   3.457
    1TCM    cl3  913   1.645   0.878   3.526
    1TCM     c1  914   1.444   4.580   3.681
    1TCM    cl1  915   1.404   4.428   3.765
    1TCM    cl2  916   1.370   4.581   3.520
    1TCM     h1  917   1.407   4.666   3.740
    1TCM    cl3  918   1.621   4.593   3.665
    1TCM     c1  919   1.329   3.231   3.552
    1TCM    cl1  920   1.256   3.169   3.402
    1TCM    cl2  921   1.299   3.117   3.685
    1TCM     h1  922   1.439   3.242   3.537
    1TCM    cl3  923   1.258   3.389   3.592
    1TCM     c1  924   4.873   2.353   2.494
    1TCM    cl1  925   4.730   2.458   2.509
    1TCM    cl2  926   4.907   2.324   2.322
    1TCM     h1  927   4.960   2.403   2.542
    1TCM    cl3  928   4.841   2.199   2.576
    1TCM     c1  929   2.529   1.337   1.851
    1TCM    cl1  930   2.403   1.365   1.974
    1TCM    cl2  931   2.454   1.337   1.689
    1TCM     h1  932   2.605   1.417   1.857
    1TCM    cl3  933   2.606   1.179   1.881
    1TCM     c1  934   1.345   0.176   3.714
    1TCM    cl1  935   1.294   0.280   3.578
    1TCM    cl2  936   1.229   0.194   3.848
    1TCM     h1  937   1.347   0.070   3.681
    1TCM    cl3  938   1.507   0.225   3.768
    1TCM     c1  939   4.314   3.777   2.744
    1TCM    cl1  940   4.325   3.650   2.868
    1TCM    cl2  941   4.338   3.936   2.819
    1TCM     h1  942   4.393   3.760   2.667
    1TCM    cl3  943   4.154   3.772   2.666
    1TCM     c1  944   4.469   1.310   4.011
    1TCM    cl1  945   4.308   1.240   3.981
    1TCM    cl2  946   4.587   1.234   3.902
    1TCM     h1  947   4.466   1.419   3.991
    1TCM    cl3  948   4.516   1.280   4.180
    1TCM     c1  949   3.858   1.985   2.620
    1TCM    cl1  950   3.961   1.998   2.475
    1TCM    cl2  951   3.926   2.087   2.749
    1TCM     h1  952   3.756   2.020   2.596
    1TCM    cl3  953   3.853   1.816   2.674
    1TCM     c1  954   4.965   4.082   3.351
    1TCM    cl1  955   5.138   4.109   3.319
    1TCM    cl2  956   4.906   4.206   3.464
    1TCM     h1  957   4.909   4.089   3.256
    1TCM    cl3  958   4.942   3.921   3.422
    1TCM     c1  959   0.471   1.837   0.572
    1TCM    cl1  960   0.301   1.805   0.617
    1TCM    cl2  961   0.574   1.706   0.632
    1TCM     h1  962   0.479   1.844   0.462
    1TCM    cl3  963   0.522   1.991   0.645
    1TCM     c1  964   3.678   1.798   3.652
    1TCM    cl1  965   3.630   1.857   3.813
    1TCM    cl2  966   3.578   1.876   3.528
    1TCM     h1  967   3.785   1.823   3.634
    1TCM    cl3  968   3.656   1.622   3.644
    1TCM     c1  969   1.408   2.523   2.983
    1TCM    cl1  970   1.363   2.368   3.059
    1TCM    cl2  971   1.356   2.657   3.088
    1TCM     h1  972   1.518   2.527   2.970
    1TCM    cl3  973   1.329   2.537   2.825
    1TCM     c1  974   0.319   3.063   0.196
    1TCM    cl1  975   0.179   2.982   0.269
    1TCM    cl2  976   0.280   3.114   0.030
    1TCM     h1  977   0.345   3.153   0.257
    1TCM    cl3  978   0.458   2.952   0.193
    1TCM     c1  979   0.823   4.639   5.034
    1TCM    cl1  980   0.759   4.626   4.869
    1TCM    cl2  981   0.779   4.492   5.126
    1TCM     h1  982   0.933   4.648   5.030
    1TCM    cl3  983   0.753   4.781   5.114
    1TCM     c1  984   4.683   4.863   0.160
    1TCM    cl1  985   4.706   5.008   0.060
    1TCM    cl2  986   4.693   4.908   0.332
    1TCM     h1  987   4.584   4.818   0.139
    1TCM    cl3  988   4.811   4.745   0.122
    1TCM     c1  989   0.833   1.492   0.660
    1TCM    cl1  990   0.661   1.448   0.660
    1TCM    cl2  991   0.919   1.393   0.539
    1TCM     h1  992   0.844   1.599   0.635
    1TCM    cl3  993   0.902   1.462   0.821
    1TCM     c1  994   2.391   0.414   3.559
    1TCM    cl1  995   2.408   0.586   3.599
    1TCM    cl2  996   2.379   0.319   3.708
    1TCM     h1  997   2.299   0.399   3.498
    1TCM    cl3  998   2.533   0.361   3.466
    1TCM     c1  999   0.562   1.439   3.382
    1TCM    cl1 1000   0.714   1.440   3.476
    1TCM    cl2 1001   0.554   1.585   3.282
    1TCM     h1 1002   0.560   1.349   3.317
    1TCM    cl3 1003   0.424   1.435   3.493
    1TCM     c1 1004   0.305   4.489   5.054
    1TCM    cl1 1005   0.407   4.590   5.158
    1TCM    cl2 1006   0.403   4.426   4.919
    1TCM     h1 1007   0.265   4.404   5.113
    1TCM    cl3 1008   0.171   4.586   4.989
    1TCM     c1 1009   4.305   1.419   2.213
    1TCM    cl1 1010   4.395   1.549   2.293
    1TCM    cl2 1011   4.342   1.418   2.039
    1TCM     h1 1012   4.334   1.321   2.257
    1TCM    cl3 1013   4.130   1.444   2.236
    1TCM     c1 1014   1.479   0.670   1.782
    1TCM    cl1 1015   1.566   0.526   1.724
    1TCM    cl2 1016   1.501   0.685   1.957
    1TCM     h1 1017   1.519   0.760   1.731
    1TCM    cl3 1018   1.305   0.654   1.745
    1TCM     c1 1019   0.161   5.112   3.490
    1TCM    cl1 1020   0.271   5.205   3.595
    1TCM    cl2 1021   0.004   5.093   3.571
    1TCM     h1 1022   0.147   5.166   3.395
    1TCM    cl3 1023   0.231   4.951   3.459
    1TCM     c1 1024   1.866   1.753   3.767
    1TCM    cl1 1025   1.758   1.713   3.631
    1TCM    cl2 1026   2.023   1.806   3.704
    1TCM     h1 1027   1.821   1.835   3.826
    1TCM    cl3 1028   1.888   1.610   3.869
    1TCM     c1 1029   2.642   3.591   3.841
    1TCM    cl1 1030   2.473   3.567   3.892
    1TCM    cl2 1031   2.743   3.461   3.910
    1TCM     h1 1032   2.648   3.588   3.731
    1TCM    cl3 1033   2.700   3.748   3.900
    1TCM     c1 1034   0.849   1.377   3.718
    1TCM    cl1 1035   1.025   1.387   3.695
    1TCM    cl2 1036   0.812   1.361   3.891
    1TCM     h1 1037   0.801   1.470   3.679
    1TCM    cl3 1038   0.785   1.236   3.630
    1TCM     c1 1039   0.797   4.423   1.936
    1TCM    cl1 1040   0.778   4.346   1.777
    1TCM    cl2 1041   0.669   4.365   2.045
    1TCM     h1 1042   0.896   4.398   1.978
    1TCM    cl3 1043   0.783   4.600   1.918
    1TCM     c1 1044   3.739   4.168   2.611
    1TCM    cl1 1045   3.598   4.188   2.503
    1TCM    cl2 1046   3.683   4.137   2.777
    1TCM     h1 1047   3.800   4.082   2.576
    1TCM    cl3 1048   3.837   4.316   2.608
    1TCM     c1 1049   0.636   2.547   3.556
    1TCM    cl1 1050   0.739   2.529   3.413
    1TCM    cl2 1051   0.560   2.391   3.595
    1TCM     h1 1052   0.697   2.581   3.642
    1TCM    cl3 1053   0.509   2.668   3.522
    1TCM     c1 1054   1.710   3.953   1.807
    1TCM    cl1 1055   1.853   3.921   1.705
    1TCM    cl2 1056   1.763   4.000   1.970
    1TCM     h1 1057   1.651   4.035   1.762
    1TCM    cl3 1058   1.611   3.806   1.817
    1TCM     c1 1059   2.435   1.647   2.377
    1TCM    cl1 1060   2.423   1.474   2.339
    1TCM    cl2 1061   2.589   1.678   2.461
    1TCM     h1 1062   2.431   1.706   2.284
    1TCM    cl3 1063   2.300   1.694   2.483
    1TCM     c1 1064   3.952   0.132   4.041
    1TCM    cl1 1065   3.878   0.024   4.161
    1TCM    cl2 1066   3.901   0.083   3.877
    1TCM     h1 1067   3.920   0.236   4.060
    1TCM    cl3 1068   4.129   0.122   4.053
    1TCM     c1 1069   0.162   4.561   4.577
    1TCM    cl1 1070   0.260   4.547   4.429
    1TCM    cl2 1071   0.265   4.614   4.712
    1TCM     h1 1072   0.081   4.636   4.560
    1TCM    cl3 1073   0.090   4.403   4.615
    1TCM     c1 1074   0.939   1.834   0.773
    1TCM    cl1 1075   1.083   1.914   0.705
    1TCM    cl2 1076   0.907   1.898   0.935
    1TCM     h1 1077   0.852   1.853   0.707
    1TCM    cl3 1078   0.969   1.659   0.783
    1TCM     c1 1079   1.168   1.864   2.077
    1TCM    cl1 1080   1.127   2.036   2.085
    1TCM    cl2 1081   1.216   1.822   1.911
    1TCM     h1 1082   1.252   1.842   2.147
    1TCM    cl3 1083   1.026   1.767   2.124
    1TCM     c1 1084   3.670   1.387   3.451
    1TCM    cl1 1085   3.514   1.439   3.384
    1TCM    cl2 1086   3.727   1.243   3.364
    1TCM     h1 1087   3.744   1.469   3.439
    1TCM    cl3 1088   3.651   1.349   3.624
    1TCM     c1 1089   3.503   0.329   1.964
    1TCM    cl1 1090   3.365   0.224   1.924
    1TCM    cl2 1091   3.580   0.384   1.813
    1TCM     h1 1092   3.468   0.416   2.022
    1TCM    cl3 1093   3.622   0.237   2.060
    1TCM     c1 1094   4.257   2.649   1.482
    1TCM    cl1 1095   4.084   2.652   1.441
    1TCM    cl2 1096   4.325   2.812   1.463
    1TCM     h1 1097   4.270   2.615   1.586
    1TCM    cl3 1098   4.341   2.537   1.372
    1TCM     c1 1099   2.975   4.252   2.661
    1TCM    cl1 1100   2.960   4.323   2.823
    1TCM    cl2 1101   2.965   4.075   2.672
    1TCM     h1 1102   2.893   4.290   2.596
    1TCM    cl3 1103   3.132   4.298   2.591
    1TCM     c1 1104   4.463   1.113   2.764
    1TCM    cl1 1105   4.352   0.992   2.696
    1TCM    cl2 1106   4.496   1.073   2.935
    1TCM     h1 1107   4.558   1.112   2.707
    1TCM    cl3 1108   4.388   1.274   2.754
    1TCM     c1 1109   1.004   2.063   5.088
    1TCM    cl1 1110   1.085   2.218   5.120
    1TCM    cl2 1111   0.963   1.985   5.243
    1TCM     h1 1112   0.911   2.081   5.030
    1TCM    cl3 1113   1.112   1.957   4.995
    1TCM     c1 1114   2.392   4.604   4.622
    1TCM    cl1 1115   2.296   4.753   4.607
    1TCM    cl2 1116   2.411   4.562   4.793
    1TCM     h1 1117   2.341   4.522   4.569
    1TCM    cl3 1118   2.552   4.630   4.549
    1TCM     c1 1119   2.381   5.197   5.050
    1TCM    cl1 1120   2.513   5.293   4.979
    1TCM    cl2 1121   2.430   5.142   5.212
    1TCM     h1 1122   2.290   5.260   5.058
    1TCM    cl3 1123   2.347   5.056   4.947
    1TCM     c1 1124   2.053   1.136   3.171
    1TCM    cl1 1125   1.953   1.269   3.235
    1TCM    cl2 1126   2.206   1.202   3.109
    1TCM     h1 1127   2.074   1.064   3.252
    1TCM    cl3 1128   1.966   1.054   3.039
    1TCM     c1 1129   1.925   2.223   5.146
    1TCM    cl1 1130   2.026   2.272   5.284
    1TCM    cl2 1131   1.909   2.045   5.145
    1TCM     h1 1132   1.824   2.269   5.156
    1TCM    cl3 1133   2.000   2.276   4.994
    1TCM     c1 1134   2.415   2.099   1.799
    1TCM    cl1 1135   2.585   2.151   1.798
    1TCM    cl2 1136   2.394   1.966   1.915
    1TCM     h1 1137   2.351   2.184   1.828
    1TCM    cl3 1138   2.369   2.043   1.636
    1TCM     c1 1139   4.905   1.622   0.816
    1TCM    cl1 1140   4.843   1.762   0.907
    1TCM    cl2 1141   4.890   1.475   0.916
    1TCM     h1 1142   4.846   1.609   0.723
    1TCM    cl3 1143   5.076   1.648   0.775
    1TCM     c1 1144   3.149   1.662   1.998
    1TCM    cl1 1145   3.316   1.606   1.974
    1TCM    cl2 1146   3.133   1.829   1.938
    1TCM     h1 1147   3.079   1.596   1.943
    1TCM    cl3 1148   3.109   1.658   2.172
    1TCM     c1 1149   4.640   4.579   2.747
    1TCM    cl1 1150   4.540   4.723   2.775
    1TCM    cl2 1151   4.691   4.574   2.577
    1TCM     h1 1152   4.730   4.582   2.813
    1TCM    cl3 1153   4.545   4.433   2.784
    1TCM     c1 1154   3.248   0.404   4.838
    1TCM    cl1 1155   3.146   0.306   4.946
    1TCM    cl2 1156   3.188   0.390   4.671
    1TCM     h1 1157   3.245   0.510   4.870
    1TCM    cl3 1158   3.415   0.345   4.845
    1TCM     c1 1159   3.972   3.985   4.126
    1TCM    cl1 1160   4.120   4.017   4.220
    1TCM    cl2 1161   3.912   4.137   4.057
    1TCM     h1 1162   3.995   3.914   4.044
    1TCM    cl3 1163   3.849   3.914   4.233
    1TCM     c1 1164   2.448   1.005   3.992
    1TCM    cl1 1165   2.561   1.048   3.862
    1TCM    cl2 1166   2.528   0.895   4.106
    1TCM     h1 1167   2.415   1.096   4.045
    1TCM    cl3 1168   2.306   0.923   3.921
    1TCM     c1 1169   2.708   0.416   0.075
    1TCM    cl1 1170   2.534   0.380   0.064
    1TCM    cl2 1171   2.758   0.412   0.246
    1TCM     h1 1172   2.765   0.340   0.018
    1TCM    cl3 1173   2.740   0.577   0.008
    1TCM     c1 1174   2.454   3.409   1.992
    1TCM    cl1 1175   2.533   3.486   1.852
    1TCM    cl2 1176   2.422   3.238   1.955
    1TCM     h1 1177   2.521   3.416   2.080
    1TCM    cl3 1178   2.301   3.492   2.026
    1TCM     c1 1179   1.094   4.938   1.607
    1TCM    cl1 1180   0.998   5.046   1.710
    1TCM    cl2 1181   1.090   4.997   1.439
    1TCM     h1 1182   1.198   4.935   1.643
    1TCM    cl3 1183   1.025   4.774   1.612
    1TCM     c1 1184   4.238   2.311   4.424
    1TCM    cl1 1185   4.335   2.447   4.485
    1TCM    cl2 1186   4.346   2.180   4.372
    1TCM     h1 1187   4.171   2.275   4.504
    1TCM    cl3 1188   4.141   2.366   4.285
    1TCM     c1 1189   1.899   5.080   5.187
    1TCM    cl1 1190   1.755   5.165   5.247
    1TCM    cl2 1191   1.849   4.929   5.107
    1TCM     h1 1192   1.952   5.145   5.114
    1TCM    cl3 1193   2.007   5.043   5.322
    1TCM     c1 1194   3.504   3.863   0.559
    1TCM    cl1 1195   3.447   3.917   0.400
    1TCM    cl2 1196   3.498   3.999   0.673
    1TCM     h1 1197   3.439   3.781   0.596
    1TCM    cl3 1198   3.671   3.804   0.545
    1TCM     c1 1199   4.666   0.991   1.072
    1TCM    cl1 1200   4.583   0.860   0.983
    1TCM    cl2 1201   4.748   0.922   1.214
    1TCM     h1 1202   4.740   1.039   1.006
    1TCM    cl3 1203   4.546   1.111   1.125
    1TCM     c1 1204   4.236   1.922   2.084
    1TCM    cl1 1205   4.330   1.831   2.204
    1TCM    cl2 1206   4.175   2.072   2.158
    1TCM     h1 1207   4.300   1.947   1.997
    1TCM    cl3 1208   4.098   1.824   2.029
    1TCM     c1 1209   4.122   1.729   0.148
    1TCM    cl1 1210   4.249   1.759   0.028
    1TCM    cl2 1211   4.074   1.883   0.224
    1TCM     h1 1212   4.034   1.684   0.098
    1TCM    cl3 1213   4.182   1.618   0.273
    1TCM     c1 1214   4.005   3.256   4.815
    1TCM    cl1 1215   4.065   3.096   4.865
    1TCM    cl2 1216   3.828   3.260   4.831
    1TCM     h1 1217   4.050   3.334   4.880
    1TCM    cl3 1218   4.050   3.286   4.646
    1TCM     c1 1219   1.223   0.525   3.849
    1TCM    cl1 1220   1.185   0.655   3.734
    1TCM    cl2 1221   1.205   0.587   4.015
    1TCM     h1 1222   1.154   0.440   3.834
    1TCM    cl3 1223   1.391   0.471   3.825
    1TCM     c1 1224   3.583   0.354   1.422
    1TCM    cl1 1225   3.559   0.188   1.483
    1TCM    cl2 1226   3.692   0.442   1.532
    1TCM     h1 1227   3.628   0.349   1.321
    1TCM    cl3 1228   3.426   0.438   1.415
    1TCM     c1 1229   1.273   0.199   4.244
    1TCM    cl1 1230   1.223   0.255   4.405
    1TCM    cl2 1231   1.229   0.320   4.122
    1TCM     h1 1232   1.383   0.184   4.243
    1TCM    cl3 1233   1.192   0.045   4.207
    1TCM     c1 1234   2.257   1.079   4.200
    1TCM    cl1 1235   2.381   1.204   4.226
    1TCM    cl2 1236   2.154   1.067   4.344
    1TCM     h1 1237   2.195   1.106   4.112
    1TCM    cl3 1238   2.336   0.922   4.170
    1TCM     c1 1239   3.366   0.751   0.407
    1TCM    cl1 1240   3.391   0.766   0.232
    1TCM    cl2 1241   3.206   0.815   0.451
    1TCM     h1 1242   3.373   0.644   0.436
    1TCM    cl3 1243   3.492   0.844   0.493
    1TCM     c1 1244   1.529   2.362   2.789
    1TCM    cl1 1245   1.685   2.317   2.863
    1TCM    cl2 1246   1.508   2.272   2.637
    1TCM     h1 1247   1.447   2.337   2.859
    1TCM    cl3 1248   1.528   2.536   2.756
    1TCM     c1 1249   4.963   4.021   4.666
    1TCM    cl1 1250   5.114   4.109   4.701
    1TCM    cl2 1251   4.974   3.855   4.730
    1TCM     h1 1252   4.878   4.073   4.714
    1TCM    cl3 1253   4.937   4.015   4.490
    1TCM     c1 1254   0.851   0.974   2.748
    1TCM    cl1 1255   0.838   1.111   2.860
    1TCM    cl2 1256   0.962   0.853   2.816
    1TCM     h1 1257   0.751   0.928   2.733
    1TCM    cl3 1258   0.915   1.030   2.592
    1TCM     c1 1259   4.716   0.978   3.664
    1TCM    cl1 1260   4.796   0.860   3.557
    1TCM    cl2 1261   4.621   1.091   3.565
    1TCM     h1 1262   4.649   0.924   3.734
    1TCM    cl3 1263   4.839   1.067   3.756
    1TCM     c1 1264   5.095   4.824   0.650
    1TCM    cl1 1265   4.951   4.927   0.632
    1TCM    cl2 1266   5.069   4.670   0.564
    1TCM     h1 1267   5.183   4.875   0.608
    1TCM    cl3 1268   5.122   4.791   0.823
    1TCM     c1 1269   0.705   3.369   0.358
    1TCM    cl1 1270   0.786   3.427   0.506
    1TCM    cl2 1271   0.766   3.460   0.218
    1TCM     h1 1272   0.726   3.261   0.344
    1TCM    cl3 1273   0.530   3.394   0.372
    1TCM     c1 1274   1.252   2.584   4.736
    1TCM    cl1 1275   1.388   2.644   4.834
    1TCM    cl2 1276   1.308   2.553   4.570
    1TCM     h1 1277   1.214   2.489   4.780
    1TCM    cl3 1278   1.122   2.705   4.734
    1TCM     c1 1279   1.609   4.113   0.106
    1TCM    cl1 1280   1.717   4.225   0.192
    1TCM    cl2 1281   1.449   4.116   0.183
    1TCM     h1 1282   1.599   4.144   0.000
    1TCM    cl3 1283   1.676   3.948   0.113
    1TCM     c1 1284   0.693   3.247   0.716
    1TCM    cl1 1285   0.686   3.106   0.824
    1TCM    cl2 1286   0.679   3.193   0.548
    1TCM     h1 1287   0.609   3.316   0.740
    1TCM    cl3 1288   0.848   3.331   0.739
    1TCM     c1 1289   4.259   1.648   2.609
    1TCM    cl1 1290   4.173   1.555   2.734
    1TCM    cl2 1291   4.204   1.596   2.449
    1TCM     h1 1292   4.238   1.756   2.622
    1TCM    cl3 1293   4.434   1.620   2.624
    1TCM     c1 1294   2.081   0.615   4.417
    1TCM    cl1 1295   2.037   0.771   4.342
    1TCM    cl2 1296   2.023   0.612   4.585
    1TCM     h1 1297   2.035   0.532   4.360
    1TCM    cl3 1298   2.258   0.597   4.415
    1TCM     c1 1299   0.393   0.159   2.729
    1TCM    cl1 1300   0.503   0.158   2.590
    1TCM    cl2 1301   0.325   0.322   2.750
    1TCM     h1 1302   0.311   0.086   2.712
    1TCM    cl3 1303   0.483   0.113   2.876
    1TCM     c1 1304   1.849   4.579   4.430
    1TCM    cl1 1305   1.904   4.431   4.512
    1TCM    cl2 1306   1.985   4.693   4.417
    1TCM     h1 1307   1.813   4.554   4.328
    1TCM    cl3 1308   1.718   4.654   4.523
    1TCM     c1 1309   4.251   4.679   1.501
    1TCM    cl1 1310   4.339   4.822   1.443
    1TCM    cl2 1311   4.219   4.695   1.675
    1TCM     h1 1312   4.155   4.670   1.447
    1TCM    cl3 1313   4.349   4.534   1.472
    1TCM     c1 1314   1.036   2.608   0.587
    1TCM    cl1 1315   0.860   2.630   0.579
    1TCM    cl2 1316   1.085   2.473   0.481
    1TCM     h1 1317   1.087   2.701   0.554
    1TCM    cl3 1318   1.084   2.572   0.755
    1TCM     c1 1319   1.399   1.045   4.288
    1TCM    cl1 1320   1.387   1.158   4.425
    1TCM    cl2 1321   1.395   1.136   4.136
    1TCM     h1 1322   1.495   0.989   4.295
    1TCM    cl3 1323   1.263   0.932   4.293
    1TCM     c1 1324   5.219   1.043   0.833
    1TCM    cl1 1325   5.340   1.077   0.708
    1TCM    cl2 1326   5.248   1.148   0.974
    1TCM     h1 1327   5.117   1.062   0.793
    1TCM    cl3 1328   5.231   0.872   0.883
    1TCM     c1 1329   1.268   4.600   1.445
    1TCM    cl1 1330   1.381   4.685   1.338
    1TCM    cl2 1331   1.270   4.676   1.606
    1TCM     h1 1332   1.165   4.606   1.403
    1TCM    cl3 1333   1.316   4.430   1.460
    1TCM     c1 1334   5.122   2.788   2.627
    1TCM    cl1 1335   4.953   2.764   2.576
    1TCM    cl2 1336   5.219   2.843   2.488
    1TCM     h1 1337   5.126   2.865   2.707
    1TCM    cl3 1338   5.188   2.635   2.688
    1TCM     c1 1339   0.837   2.606   0.175
    1TCM    cl1 1340   0.991   2.534   0.228
    1TCM    cl2 1341   0.817   2.581   0.001
    1TCM     h1 1342   0.754   2.558   0.230
    1TCM    cl3 1343   0.839   2.781   0.210
    1TCM     c1 1344   3.658   4.769   3.355
    1TCM    cl1 1345   3.580   4.812   3.201
    1TCM    cl2 1346   3.661   4.911   3.462
    1TCM     h1 1347   3.602   4.687   3.403
    1TCM    cl3 1348   3.825   4.716   3.323
    1TCM     c1 1349   2.224   0.812   2.401
    1TCM    cl1 1350   2.054   0.772   2.368
    1TCM    cl2 1351   2.263   0.768   2.569
    1TCM     h1 1352   2.290   0.757   2.332
    1TCM    cl3 1353   2.249   0.987   2.379
    1TCM     c1 1354   0.694   4.576   4.492
    1TCM    cl1 1355   0.865   4.615   4.458
    1TCM    cl2 1356   0.596   4.724   4.481
    1TCM     h1 1357   0.658   4.502   4.418
    1TCM    cl3 1358   0.680   4.507   4.655
    1TCM     c1 1359   2.056   4.861   3.924
    1TCM    cl1 1360   2.006   4.815   4.089
    1TCM    cl2 1361   1.928   4.817   3.809
    1TCM     h1 1362   2.073   4.971   3.921
    1TCM    cl3 1363   2.206   4.776   3.882
    1TCM     c1 1364   1.204   0.291   1.256
    1TCM    cl1 1365   1.355   0.385   1.266
    1TCM    cl2 1366   1.123   0.327   1.102
    1TCM     h1 1367   1.228   0.183   1.261
    1TCM    cl3 1368   1.097   0.335   1.391
    1TCM     c1 1369   2.903   2.105   2.863
    1TCM    cl1 1370   2.900   2.281   2.836
    1TCM    cl2 1371   2.951   2.023   2.713
    1TCM     h1 1372   2.976   2.081   2.943
    1TCM    cl3 1373   2.741   2.050   2.912
    1TCM     c1 1374   1.015   3.615   1.106
    1TCM    cl1 1375   0.853   3.663   1.158
    1TCM    cl2 1376   1.136   3.723   1.180
    1TCM     h1 1377   1.035   3.510   1.138
    1TCM    cl3 1378   1.027   3.626   0.929
    1TCM     c1 1379   3.900   2.353   2.164
    1TCM    cl1 1380   3.960   2.483   2.269
    1TCM    cl2 1381   3.958   2.380   1.998
    1TCM     h1 1382   3.938   2.256   2.201
    1TCM    cl3 1383   3.722   2.353   2.165
    1TCM     c1 1384   0.757   3.852   3.494
    1TCM    cl1 1385   0.923   3.876   3.554
    1TCM    cl2 1386   0.702   4.000   3.413
    1TCM     h1 1387   0.756   3.768   3.422
    1TCM    cl3 1388   0.650   3.816   3.631
    1TCM     c1 1389   2.747   3.494   4.295
    1TCM    cl1 1390   2.652   3.488   4.144
    1TCM    cl2 1391   2.755   3.661   4.354
    1TCM     h1 1392   2.699   3.430   4.371
    1TCM    cl3 1393   2.912   3.435   4.263
    1TCM     c1 1394   1.146   2.834   4.160
    1TCM    cl1 1395   1.256   2.963   4.107
    1TCM    cl2 1396   1.236   2.681   4.174
    1TCM     h1 1397   1.102   2.860   4.258
    1TCM    cl3 1398   1.016   2.814   4.040
    1TCM     c1 1399   1.532   2.983   3.474
    1TCM    cl1 1400   1.606   3.028   3.630
    1TCM    cl2 1401   1.364   2.931   3.501
    1TCM     h1 1402   1.533   3.070   3.406
    1TCM    cl3 1403   1.625   2.849   3.401
    1TCM     c1 1404   3.808   4.790   3.972
    1TCM    cl1 1405   3.823   4.641   4.068
    1TCM    cl2 1406   3.758   4.749   3.806
    1TCM     h1 1407   3.733   4.857   4.018
    1TCM    cl3 1408   3.966   4.873   3.967
    1TCM     c1 1409   0.184   3.221   0.511
    1TCM    cl1 1410   0.075   3.115   0.420
    1TCM    cl2 1411   0.188   3.170   0.681
    1TCM     h1 1412   0.287   3.214   0.468
    1TCM    cl3 1413   0.127   3.389   0.501
    1TCM     c1 1414   1.450   2.340   5.142
    1TCM    cl1 1415   1.487   2.253   5.292
    1TCM    cl2 1416   1.403   2.224   5.016
    1TCM     h1 1417   1.367   2.411   5.160
    1TCM    cl3 1418   1.595   2.430   5.089
    1TCM     c1 1419   0.292   1.909   3.052
    1TCM    cl1 1420   0.257   1.799   2.916
    1TCM    cl2 1421   0.276   1.820   3.205
    1TCM     h1 1422   0.395   1.948   3.043
    1TCM    cl3 1423   0.177   2.044   3.050
    1TCM     c1 1424   3.641   0.275   5.041
    1TCM    cl1 1425   3.611   0.169   4.901
    1TCM    cl2 1426   3.679   0.439   4.985
    1TCM     h1 1427   3.550   0.278   5.105
    1TCM    cl3 1428   3.778   0.211   5.135
    1TCM     c1 1429   1.772   2.770   2.125
    1TCM    cl1 1430   1.762   2.914   2.020
    1TCM    cl2 1431   1.608   2.712   2.161
    1TCM     h1 1432   1.829   2.691   2.073
    1TCM    cl3 1433   1.855   2.813   2.276
    1TCM     c1 1434   4.202   0.617   4.288
    1TCM    cl1 1435   4.204   0.709   4.440
    1TCM    cl2 1436   4.330   0.676   4.181
    1TCM     h1 1437   4.218   0.509   4.310
    1TCM    cl3 1438   4.044   0.637   4.209
    1TCM     c1 1439   0.344   3.828   1.611
    1TCM    cl1 1440   0.394   3.754   1.458
    1TCM    cl2 1441   0.217   3.728   1.686
    1TCM     h1 1442   0.431   3.834   1.680
    1TCM    cl3 1443   0.281   3.991   1.580
    1TCM     c1 1444   0.230   1.620   0.921
    1TCM    cl1 1445   0.330   1.740   0.836
    1TCM    cl2 1446   0.113   1.704   1.026
    1TCM     h1 1447   0.175   1.558   0.847
    1TCM    cl3 1448   0.334   1.516   1.021
    1TCM     c1 1449   3.688   2.592   2.888
    1TCM    cl1 1450   3.533   2.566   2.972
    1TCM    cl2 1451   3.796   2.687   2.993
    1TCM     h1 1452   3.735   2.494   2.866
    1TCM    cl3 1453   3.659   2.680   2.736
    1TCM     c1 1454   0.278   4.859   2.873
    1TCM    cl1 1455   0.211   5.023   2.853
    1TCM    cl2 1456   0.163   4.759   2.966
    1TCM     h1 1457   0.294   4.813   2.773
    1TCM    cl3 1458   0.432   4.868   2.960
    1TCM     c1 1459   0.125   4.630   2.462
    1TCM    cl1 1460   0.088   4.537   2.315
    1TCM    cl2 1461   0.034   4.564   2.599
    1TCM     h1 1462   0.234   4.624   2.483
    1TCM    cl3 1463   0.079   4.800   2.437
    1TCM     c1 1464   0.536   2.481   2.315
    1TCM    cl1 1465   0.395   2.424   2.407
    1TCM    cl2 1466   0.516   2.654   2.278
    1TCM     h1 1467   0.628   2.466   2.376
    1TCM    cl3 1468   0.549   2.389   2.164
    1TCM     c1 1469   0.662   4.049   2.904
    1TCM    cl1 1470   0.566   3.926   2.819
    1TCM    cl2 1471   0.792   4.107   2.797
    1TCM     h1 1472   0.596   4.135   2.931
    1TCM    cl3 1473   0.732   3.980   3.051
    1TCM     c1 1474   2.385   0.656   3.993
    1TCM    cl1 1475   2.226   0.708   4.053
    1TCM    cl2 1476   2.364   0.558   3.845
    1TCM     h1 1477   2.447   0.745   3.969
    1TCM    cl3 1478   2.467   0.559   4.117
    1TCM     c1 1479   1.858   2.171   2.207
    1TCM    cl1 1480   1.982   2.044   2.218
    1TCM    cl2 1481   1.781   2.193   2.366
    1TCM     h1 1482   1.905   2.266   2.176
    1TCM    cl3 1483   1.735   2.124   2.088
    1TCM     c1 1484   0.905   3.178   2.424
    1TCM    cl1 1485   0.999   3.206   2.275
    1TCM    cl2 1486   0.736   3.228   2.397
    1TCM     h1 1487   0.908   3.070   2.450
    1TCM    cl3 1488   0.975   3.273   2.557
    1TCM     c1 1489   4.720   3.704   3.113
    1TCM    cl1 1490   4.839   3.654   3.236
    1TCM    cl2 1491   4.741   3.876   3.077
    1TCM     h1 1492   4.736   3.644   3.021
    1TCM    cl3 1493   4.556   3.676   3.175
    1TCM     c1 1494   4.262   1.095   4.520
    1TCM    cl1 1495   4.166   1.162   4.386
    1TCM    cl2 1496   4.250   0.918   4.519
    1TCM     h1 1497   4.368   1.125   4.508
    1TCM    cl3 1498   4.200   1.158   4.674
    1TCM     c1 1499   0.149   3.135   4.659
    1TCM    cl1 1500   0.235   3.185   4.806
    1TCM    cl2 1501   0.254   3.162   4.517
    1TCM     h1 1502   0.124   3.027   4.665
    1TCM    cl3 1503   0.000   3.230   4.642
    1TCM     c1 1504   1.146   1.840   0.373
    1TCM    cl1 1505   1.224   1.923   0.236
    1TCM    cl2 1506   1.229   1.884   0.524
    1TCM     h1 1507   1.039   1.872   0.379
    1TCM    cl3 1508   1.154   1.664   0.350
    1TCM     c1 1509   1.682   2.204   1.843
    1TCM    cl1 1510   1.827   2.272   1.921
    1TCM    cl2 1511   1.707   2.199   1.667
    1TCM     h1 1512   1.664   2.102   1.881
    1TCM    cl3 1513   1.541   2.307   1.880
    1TCM     c1 1514   2.556   4.488   3.946
    1TCM    cl1 1515   2.392   4.486   3.877
    1TCM    cl2 1516   2.611   4.656   3.966
    1TCM     h1 1517   2.555   4.437   4.045
    1TCM    cl3 1518   2.667   4.402   3.837
    1TCM     c1 1519   3.318   0.580   1.743
    1TCM    cl1 1520   3.441   0.666   1.838
    1TCM    cl2 1521   3.360   0.587   1.571
    1TCM     h1 1522   3.313   0.474   1.776
    1TCM    cl3 1523   3.159   0.657   1.769
    1TCM     c1 1524   2.456   4.814   4.902
    1TCM    cl1 1525   2.537   4.947   4.987
    1TCM    cl2 1526   2.499   4.820   4.729
    1TCM     h1 1527   2.489   4.717   4.945
    1TCM    cl3 1528   2.280   4.830   4.919
    1TCM     c1 1529   2.870   1.864   3.692
    1TCM    cl1 1530   2.695   1.869   3.659
    1TCM    cl2 1531   2.959   1.873   3.538
    1TCM     h1 1532   2.898   1.949   3.756
    1TCM    cl3 1533   2.910   1.712   3.774
    1TCM     c1 1534   0.872   1.698   4.907
    1TCM    cl1 1535   1.035   1.656   4.964
    1TCM    cl2 1536   0.765   1.723   5.047
    1TCM     h1 1537   0.876   1.792   4.847
    1TCM    cl3 1538   0.808   1.566   4.807
    1TCM     c1 1539   3.154   1.112   3.141
    1TCM    cl1 1540   3.082   1.074   3.300
    1TCM    cl2 1541   3.331   1.122   3.157
    1TCM     h1 1542   3.128   1.032   3.069
    1TCM    cl3 1543   3.090   1.268   3.083
    1TCM     c1 1544   3.746   0.814   1.709
    1TCM    cl1 1545   3.674   0.682   1.805
    1TCM    cl2 1546   3.759   0.763   1.539
    1TCM     h1 1547   3.681   0.904   1.716
    1TCM    cl3 1548   3.908   0.851   1.773
    1TCM     c1 1549   0.476   0.378   0.677
    1TCM    cl1 1550   0.592   0.272   0.759
    1TCM    cl2 1551   0.560   0.522   0.616
    1TCM     h1 1552   0.429   0.324   0.593
    1TCM    cl3 1553   0.350   0.428   0.793
    1TCM     c1 1554   0.919   3.783   3.844
    1TCM    cl1 1555   1.076   3.715   3.895
    1TCM    cl2 1556   0.836   3.852   3.985
    1TCM     h1 1557   0.937   3.862   3.768
    1TCM    cl3 1558   0.820   3.654   3.773
    1TCM     c1 1559   5.229   4.238   4.443
    1TCM    cl1 1560   5.183   4.394   4.515
    1TCM    cl2 1561   5.340   4.153   4.553
    1TCM     h1 1562   5.138   4.176   4.428
    1TCM    cl3 1563   5.309   4.266   4.287
    1TCM     c1 1564   3.758   1.789   0.941
    1TCM    cl1 1565   3.872   1.840   1.068
    1TCM    cl2 1566   3.836   1.804   0.782
    1TCM     h1 1567   3.729   1.683   0.958
    1TCM    cl3 1568   3.614   1.892   0.946
    1TCM     c1 1569   3.437   4.488   3.772
    1TCM    cl1 1570   3.547   4.563   3.655
    1TCM    cl2 1571   3.528   4.442   3.918
    1TCM     h1 1572   3.357   4.560   3.799
    1TCM    cl3 1573   3.364   4.343   3.700
    1TCM     c1 1574   1.742   4.741   3.264
    1TCM    cl1 1575   1.742   4.598   3.370
    1TCM    cl2 1576   1.691   4.693   3.100
    1TCM     h1 1577   1.671   4.816   3.304
    1TCM    cl3 1578   1.905   4.810   3.257
    1TCM     c1 1579   2.556   0.562   2.625
    1TCM    cl1 1580   2.640   0.476   2.494
    1TCM    cl2 1581   2.539   0.734   2.582
    1TCM     h1 1582   2.455   0.517   2.640
    1TCM    cl3 1583   2.650   0.547   2.775
    1TCM     c1 1584   3.332   2.129   4.222
    1TCM    cl1 1585   3.428   2.214   4.345
    1TCM    cl2 1586   3.246   2.247   4.121
    1TCM     h1 1587   3.400   2.068   4.159
    1TCM    cl3 1588   3.214   2.023   4.302
    1TCM     c1 1589   3.016   2.571   0.581
    1TCM    cl1 1590   2.878   2.519   0.680
    1TCM    cl2 1591   3.164   2.574   0.681
    1TCM     h1 1592   3.030   2.501   0.496
    1TCM    cl3 1593   2.985   2.734   0.517
    1TCM     c1 1594   1.599   0.426   5.036
    1TCM    cl1 1595   1.735   0.495   4.944
    1TCM    cl2 1596   1.660   0.300   5.146
    1TCM     h1 1597   1.550   0.507   5.095
    1TCM    cl3 1598   1.482   0.355   4.923
    1TCM     c1 1599   0.751   1.632   1.668
    1TCM    cl1 1600   0.788   1.753   1.543
    1TCM    cl2 1601   0.679   1.713   1.809
    1TCM     h1 1602   0.680   1.558   1.628
    1TCM    cl3 1603   0.901   1.550   1.718
    1TCM     c1 1604   4.967   3.179   0.280
    1TCM    cl1 1605   4.887   3.211   0.435
    1TCM    cl2 1606   4.998   3.004   0.263
    1TCM     h1 1607   4.902   3.213   0.197
    1TCM    cl3 1608   5.122   3.267   0.273
    1TCM     c1 1609   0.679   1.713   4.023
    1TCM    cl1 1610   0.697   1.571   3.917
    1TCM    cl2 1611   0.511   1.725   4.078
    1TCM     h1 1612   0.746   1.702   4.111
    1TCM    cl3 1613   0.723   1.860   3.933
    1TCM     c1 1614   0.971   0.787   0.428
    1TCM    cl1 1615   1.080   0.675   0.511
    1TCM    cl2 1616   0.941   0.928   0.532
    1TCM     h1 1617   1.017   0.821   0.333
    1TCM    cl3 1618   0.817   0.706   0.393
    1TCM     c1 1619   3.547   4.888   4.925
    1TCM    cl1 1620   3.391   4.911   4.842
    1TCM    cl2 1621   3.548   4.729   5.004
    1TCM     h1 1622   3.629   4.893   4.851
    1TCM    cl3 1623   3.569   5.016   5.047
    1TCM     c1 1624   3.099   3.915   3.673
    1TCM    cl1 1625   2.954   3.942   3.771
    1TCM    cl2 1626   3.209   3.805   3.759
    1TCM     h1 1627   3.070   3.870   3.576
    1TCM    cl3 1628   3.181   4.070   3.644
    1TCM     c1 1629   2.917   4.270   3.260
    1TCM    cl1 1630   2.947   4.108   3.327
    1TCM    cl2 1631   2.975   4.276   3.092
    1TCM     h1 1632   2.808   4.292   3.263
    1TCM    cl3 1633   3.004   4.391   3.358
    1TCM     c1 1634   3.513   1.332   2.679
    1TCM    cl1 1635   3.546   1.501   2.632
    1TCM    cl2 1636   3.429   1.329   2.836
    1TCM     h1 1637   3.449   1.284   2.602
    1TCM    cl3 1638   3.667   1.243   2.692
    1TCM     c1 1639   4.569   2.099   5.144
    1TCM    cl1 1640   4.415   2.182   5.109
    1TCM    cl2 1641   4.565   2.034   5.309
    1TCM     h1 1642   4.583   2.016   5.072
    1TCM    cl3 1643   4.703   2.214   5.129
    1TCM     c1 1644   3.312   2.240   0.841
    1TCM    cl1 1645   3.354   2.409   0.878
    1TCM    cl2 1646   3.270   2.155   0.992
    1TCM     h1 1647   3.225   2.238   0.772
    1TCM    cl3 1648   3.450   2.159   0.765
    1TCM     c1 1649   4.638   4.828   1.536
    1TCM    cl1 1650   4.734   4.826   1.386
    1TCM    cl2 1651   4.732   4.906   1.665
    1TCM     h1 1652   4.544   4.885   1.518
    1TCM    cl3 1653   4.599   4.661   1.583
    1TCM     c1 1654   4.679   0.718   3.260
    1TCM    cl1 1655   4.574   0.638   3.141
    1TCM    cl2 1656   4.589   0.741   3.412
    1TCM     h1 1657   4.768   0.655   3.279
    1TCM    cl3 1658   4.731   0.876   3.197
    1TCM     c1 1659   3.568   2.222   0.449
    1TCM    cl1 1660   3.602   2.053   0.492
    1TCM    cl2 1661   3.517   2.230   0.279
    1TCM     h1 1662   3.486   2.261   0.514
    1TCM    cl3 1663   3.714   2.320   0.472
    1TCM     c1 1664   1.758   0.160   2.738
    1TCM    cl1 1665   1.875   0.293   2.727
    1TCM    cl2 1666   1.840   0.015   2.802
    1TCM     h1 1667   1.676   0.188   2.806
    1TCM    cl3 1668   1.693   0.124   2.577
    1TCM     c1 1669   1.312   4.631   5.112
    1TCM    cl1 1670   1.209   4.736   5.212
    1TCM    cl2 1671   1.481   4.684   5.125
    1TCM     h1 1672   1.303   4.527   5.147
    1TCM    cl3 1673   1.260   4.642   4.942
    1TCM     c1 1674   5.136   0.288   4.508
    1TCM    cl1 1675   5.082   0.154   4.405
    1TCM    cl2 1676   5.132   0.237   4.678
    1TCM     h1 1677   5.240   0.316   4.480
    1TCM    cl3 1678   5.029   0.428   4.484
    1TCM     c1 1679   4.331   4.874   0.274
    1TCM    cl1 1680   4.359   4.841   0.102
    1TCM    cl2 1681   4.339   4.721   0.366
    1TCM     h1 1682   4.408   4.944   0.312
    1TCM    cl3 1683   4.170   4.947   0.295
    1TCM     c1 1684   0.627   2.543   3.913
    1TCM    cl1 1685   0.510   2.631   3.812
    1TCM    cl2 1686   0.567   2.536   4.080
    1TCM     h1 1687   0.639   2.440   3.874
    1TCM    cl3 1688   0.783   2.627   3.910
    1TCM     c1 1689   4.155   1.276   1.663
    1TCM    cl1 1690   4.194   1.396   1.789
    1TCM    cl2 1691   4.163   1.113   1.732
    1TCM     h1 1692   4.052   1.295   1.626
    1TCM    cl3 1693   4.271   1.290   1.530
    1TCM     c1 1694   1.365   4.913   0.341
    1TCM    cl1 1695   1.525   4.837   0.349
    1TCM    cl2 1696   1.336   4.972   0.175
    1TCM     h1 1697   1.287   4.839   0.367
    1TCM    cl3 1698   1.357   5.050   0.454
    1TCM     c1 1699   3.303   1.044   4.029
    1TCM    cl1 1700   3.265   1.203   3.958
    1TCM    cl2 1701   3.264   1.046   4.203
    1TCM     h1 1702   3.242   0.966   3.979
    1TCM    cl3 1703   3.476   1.009   4.007
    1TCM     c1 1704   4.653   3.550   3.716
    1TCM    cl1 1705   4.537   3.643   3.619
    1TCM    cl2 1706   4.774   3.476   3.609
    1TCM     h1 1707   4.704   3.618   3.788
    1TCM    cl3 1708   4.567   3.423   3.806
    1TCM     c1 1709   1.356   0.887   0.626
    1TCM    cl1 1710   1.474   0.825   0.509
    1TCM    cl2 1711   1.328   0.766   0.752
    1TCM     h1 1712   1.395   0.981   0.671
    1TCM    cl3 1713   1.203   0.922   0.542
    1TCM     c1 1714   1.050   2.331   1.004
    1TCM    cl1 1715   1.079   2.489   1.081
    1TCM    cl2 1716   1.200   2.236   1.007
    1TCM     h1 1717   0.971   2.277   1.059
    1TCM    cl3 1718   1.000   2.356   0.835
    1TCM     c1 1719   3.659   3.013   2.593
    1TCM    cl1 1720   3.615   2.991   2.764
    1TCM    cl2 1721   3.546   3.128   2.517
    1TCM     h1 1722   3.763   3.054   2.586
    1TCM    cl3 1723   3.651   2.857   2.509
    1TCM     c1 1724   3.239   3.674   2.776
    1TCM    cl1 1725   3.146   3.749   2.645
    1TCM    cl2 1726   3.128   3.610   2.899
    1TCM     h1 1727   3.301   3.591   2.736
    1TCM    cl3 1728   3.345   3.796   2.851
    1TCM     c1 1729   1.351   1.152   0.257
    1TCM    cl1 1730   1.352   1.286   0.374
    1TCM    cl2 1731   1.228   1.033   0.305
    1TCM     h1 1732   1.327   1.191   0.156
    1TCM    cl3 1733   1.511   1.074   0.255
    1TCM     c1 1734   3.100   0.217   0.898
    1TCM    cl1 1735   3.128   0.064   0.985
    1TCM    cl2 1736   2.950   0.206   0.804
    1TCM     h1 1737   3.092   0.300   0.971
    1TCM    cl3 1738   3.237   0.248   0.789
    1TCM     c1 1739   1.943   3.369   1.005
    1TCM    cl1 1740   1.990   3.416   1.170
    1TCM    cl2 1741   1.874   3.205   1.008
    1TCM     h1 1742   1.867   3.441   0.967
    1TCM    cl3 1743   2.085   3.373   0.899
    1TCM     c1 1744   2.960   3.784   1.995
    1TCM    cl1 1745   2.868   3.931   1.957
    1TCM    cl2 1746   2.999   3.781   2.168
    1TCM     h1 1747   2.899   3.695   1.969
    1TCM    cl3 1748   3.110   3.782   1.900
    1TCM     c1 1749   4.657   0.599   4.120
    1TCM    cl1 1750   4.701   0.635   3.951
    1TCM    cl2 1751   4.702   0.736   4.223
    1TCM     h1 1752   4.548   0.581   4.126
    1TCM    cl3 1753   4.744   0.453   4.174
    1TCM     c1 1754   4.550   2.890   4.829
    1TCM    cl1 1755   4.498   2.755   4.931
    1TCM    cl2 1756   4.727   2.908   4.839
    1TCM     h1 1757   4.521   2.870   4.723
    1TCM    cl3 1758   4.472   3.040   4.884
    1TCM     c1 1759   1.081   4.700   2.387
    1TCM    cl1 1760   1.107   4.564   2.275
    1TCM    cl2 1761   1.096   4.641   2.555
    1TCM     h1 1762   1.158   4.778   2.368
    1TCM    cl3 1763   0.919   4.768   2.362
    1TCM     c1 1764   5.127   0.224   0.368
    1TCM    cl1 1765   5.038   0.332   0.257
    1TCM    cl2 1766   5.256   0.315   0.449
    1TCM     h1 1767   5.057   0.183   0.444
    1TCM    cl3 1768   5.198   0.089   0.275
    1TCM     c1 1769   4.619   0.500   3.682
    1TCM    cl1 1770   4.454   0.464   3.737
    1TCM    cl2 1771   4.616   0.539   3.508
    1TCM     h1 1772   4.659   0.587   3.738
    1TCM    cl3 1773   4.723   0.359   3.708
    1TCM     c1 1774   3.604   5.115   4.456
    1TCM    cl1 1775   3.606   5.004   4.317
    1TCM    cl2 1776   3.669   5.273   4.406
    1TCM     h1 1777   3.500   5.128   4.492
    1TCM    cl3 1778   3.705   5.049   4.587
    1TCM     c1 1779   1.474   1.903   1.716
    1TCM    cl1 1780   1.298   1.896   1.738
    1TCM    cl2 1781   1.522   2.070   1.675
    1TCM     h1 1782   1.525   1.873   1.810
    1TCM    cl3 1783   1.522   1.794   1.585
    1TCM     c1 1784   3.359   1.733   2.817
    1TCM    cl1 1785   3.421   1.767   2.654
    1TCM    cl2 1786   3.231   1.610   2.807
    1TCM     h1 1787   3.441   1.695   2.881
    1TCM    cl3 1788   3.292   1.882   2.888
    1TCM     c1 1789   3.624   0.427   0.533
    1TCM    cl1 1790   3.454   0.420   0.585
    1TCM    cl2 1791   3.631   0.433   0.355
    1TCM     h1 1792   3.672   0.517   0.575
    1TCM    cl3 1793   3.710   0.282   0.591
    1TCM     c1 1794   0.665   1.357   2.028
    1TCM    cl1 1795   0.533   1.372   1.910
    1TCM    cl2 1796   0.598   1.364   2.193
    1TCM     h1 1797   0.717   1.260   2.013
    1TCM    cl3 1798   0.780   1.491   2.006
    1TCM     c1 1799   2.787   3.806   1.361
    1TCM    cl1 1800   2.851   3.670   1.456
    1TCM    cl2 1801   2.614   3.780   1.330
    1TCM     h1 1802   2.800   3.900   1.418
    1TCM    cl3 1803   2.874   3.817   1.207
    1TCM     c1 1804   2.352   2.587   4.510
    1TCM    cl1 1805   2.243   2.600   4.370
    1TCM    cl2 1806   2.276   2.487   4.635
    1TCM     h1 1807   2.448   2.541   4.478
    1TCM    cl3 1808   2.384   2.750   4.575
    1TCM     c1 1809   0.614   2.353   0.914
    1TCM    cl1 1810   0.579   2.264   0.764
    1TCM    cl2 1811   0.544   2.266   1.052
    1TCM     h1 1812   0.724   2.362   0.927
    1TCM    cl3 1813   0.543   2.516   0.904
    1TCM     c1 1814   2.425   0.449   1.753
    1TCM    cl1 1815   2.311   0.315   1.730
    1TCM    cl2 1816   2.498   0.437   1.915
    1TCM     h1 1817   2.504   0.444   1.676
    1TCM    cl3 1818   2.338   0.604   1.739
    1TCM     c1 1819   2.454   3.630   0.156
    1TCM    cl1 1820   2.619   3.600   0.099
    1TCM    cl2 1821   2.349   3.668   0.017
    1TCM     h1 1822   2.415   3.540   0.208
    1TCM    cl3 1823   2.454   3.768   0.269
    1TCM     c1 1824   0.157   3.457   4.967
    1TCM    cl1 1825   0.325   3.458   5.028
    1TCM    cl2 1826   0.064   3.332   5.053
    1TCM     h1 1827   0.112   3.557   4.985
    1TCM    cl3 1828   0.158   3.423   4.793
    1TCM     c1 1829   4.115   1.758   1.731
    1TCM    cl1 1830   4.221   1.619   1.763
    1TCM    cl2 1831   4.133   1.807   1.561
    1TCM     h1 1832   4.010   1.729   1.751
    1TCM    cl3 1833   4.161   1.893   1.837
    1TCM     c1 1834   2.270   2.856   2.919
    1TCM    cl1 1835   2.286   2.728   2.796
    1TCM    cl2 1836   2.305   3.014   2.844
    1TCM     h1 1837   2.167   2.856   2.959
    1TCM    cl3 1838   2.385   2.826   3.051
    1TCM     c1 1839   4.496   2.890   0.769
    1TCM    cl1 1840   4.354   2.841   0.675
    1TCM    cl2 1841   4.580   3.023   0.685
    1TCM     h1 1842   4.464   2.924   0.870
    1TCM    cl3 1843   4.607   2.752   0.786
    1TCM     c1 1844   5.092   4.334   1.788
    1TCM    cl1 1845   5.070   4.503   1.838
    1TCM    cl2 1846   5.134   4.328   1.615
    1TCM     h1 1847   5.174   4.288   1.848
    1TCM    cl3 1848   4.941   4.244   1.815
    1TCM     c1 1849   3.259   1.715   3.789
    1TCM    cl1 1850   3.412   1.673   3.709
    1TCM    cl2 1851   3.292   1.775   3.953
    1TCM     h1 1852   3.207   1.793   3.731
    1TCM    cl3 1853   3.156   1.570   3.799
    1TCM     c1 1854   0.953   3.797   2.433
    1TCM    cl1 1855   0.988   3.631   2.487
    1TCM    cl2 1856   0.933   3.800   2.257
    1TCM     h1 1857   0.861   3.834   2.482
    1TCM    cl3 1858   1.089   3.903   2.478
    1TCM     c1 1859   3.052   4.168   2.284
    1TCM    cl1 1860   3.048   4.028   2.174
    1TCM    cl2 1861   3.067   4.111   2.452
    1TCM     h1 1862   3.138   4.232   2.259
    1TCM    cl3 1863   2.901   4.261   2.266
    1TCM     c1 1864   1.387   3.086   2.275
    1TCM    cl1 1865   1.362   2.945   2.169
    1TCM    cl2 1866   1.419   3.030   2.441
    1TCM     h1 1867   1.473   3.145   2.239
    1TCM    cl3 1868   1.240   3.187   2.274
    1TCM     c1 1869   4.609   0.171   5.174
    1TCM    cl1 1870   4.620   0.146   4.998
    1TCM    cl2 1871   4.752   0.100   5.252
    1TCM     h1 1872   4.606   0.280   5.195
    1TCM    cl3 1873   4.462   0.094   5.236
    1TCM     c1 1874   4.172   4.965   2.376
    1TCM    cl1 1875   4.207   5.124   2.303
    1TCM    cl2 1876   4.097   4.989   2.535
    1TCM     h1 1877   4.103   4.909   2.310
    1TCM    cl3 1878   4.324   4.875   2.395
    1TCM     c1 1879   1.375   5.051   3.078
    1TCM    cl1 1880   1.532   4.987   3.023
    1TCM    cl2 1881   1.398   5.141   3.230
    1TCM     h1 1882   1.335   5.120   3.000
    1TCM    cl3 1883   1.262   4.918   3.104
    1TCM     c1 1884   3.378   5.007   3.767
    1TCM    cl1 1885   3.346   4.841   3.711
    1TCM    cl2 1886   3.408   5.112   3.626
    1TCM     h1 1887   3.290   5.044   3.823
    1TCM    cl3 1888   3.521   5.007   3.873
    1TCM     c1 1889   3.634   2.185   4.871
    1TCM    cl1 1890   3.555   2.322   4.954
    1TCM    cl2 1891   3.792   2.154   4.946
    1TCM     h1 1892   3.570   2.095   4.881
    1TCM    cl3 1893   3.656   2.225   4.700
    1TCM     c1 1894   4.844   4.255   2.537
    1TCM    cl1 1895   4.943   4.366   2.440
    1TCM    cl2 1896   4.866   4.292   2.710
    1TCM     h1 1897   4.737   4.268   2.510
    1TCM    cl3 1898   4.894   4.087   2.506
    1TCM     c1 1899   5.002   3.113   2.456
    1TCM    cl1 1900   5.074   2.979   2.364
    1TCM    cl2 1901   5.054   3.103   2.626
    1TCM     h1 1902   5.036   3.210   2.413
    1TCM    cl3 1903   4.825   3.102   2.447
    1TCM     c1 1904   1.363   2.397   0.913
    1TCM    cl1 1905   1.198   2.457   0.881
    1TCM    cl2 1906   1.400   2.264   0.800
    1TCM     h1 1907   1.435   2.480   0.898
    1TCM    cl3 1908   1.373   2.338   1.080
    1TCM     c1 1909   1.121   1.978   4.051
    1TCM    cl1 1910   1.229   1.880   3.950
    1TCM    cl2 1911   1.181   1.981   4.218
    1TCM     h1 1912   1.117   2.082   4.011
    1TCM    cl3 1913   0.957   1.908   4.048
    1TCM     c1 1914   4.103   3.546   1.356
    1TCM    cl1 1915   4.187   3.399   1.411
    1TCM    cl2 1916   4.064   3.531   1.183
    1TCM     h1 1917   4.009   3.559   1.414
    1TCM    cl3 1918   4.208   3.687   1.381
    1TCM     c1 1919   0.244   5.165   2.132
    1TCM    cl1 1920   0.331   5.010   2.128
    1TCM    cl2 1921   0.338   5.287   2.043
    1TCM     h1 1922   0.145   5.153   2.084
    1TCM    cl3 1923   0.223   5.218   2.300
    1TCM     c1 1924   1.170   2.568   1.889
    1TCM    cl1 1925   1.287   2.688   1.947
    1TCM    cl2 1926   1.171   2.565   1.711
    1TCM     h1 1927   1.197   2.468   1.928
    1TCM    cl3 1928   1.007   2.611   1.946
    1TCM     c1 1929   0.903   2.377   4.155
    1TCM    cl1 1930   0.889   2.265   4.017
    1TCM    cl2 1931   0.947   2.287   4.301
    1TCM     h1 1932   0.982   2.452   4.133
    1TCM    cl3 1933   0.748   2.460   4.180
    1TCM     c1 1934   1.098   0.913   5.179
    1TCM    cl1 1935   1.215   0.893   5.047
    1TCM    cl2 1936   1.184   0.914   5.335
    1TCM     h1 1937   1.043   1.008   5.166
    1TCM    cl3 1938   0.982   0.778   5.176
    1TCM     c1 1939   3.677   2.971   1.028
    1TCM    cl1 1940   3.816   3.069   0.975
    1TCM    cl2 1941   3.726   2.800   1.039
    1TCM     h1 1942   3.643   3.007   1.127
    1TCM    cl3 1943   3.545   2.988   0.910
    1TCM     c1 1944   3.670   5.006   3.003
    1TCM    cl1 1945   3.503   5.048   2.958
    1TCM    cl2 1946   3.688   5.017   3.180
    1TCM     h1 1947   3.692   4.903   2.970
    1TCM    cl3 1948   3.783   5.119   2.924
    1TCM     c1 1949   4.639   3.185   5.176
    1TCM    cl1 1950   4.542   3.269   5.300
    1TCM    cl2 1951   4.709   3.305   5.065
    1TCM     h1 1952   4.721   3.129   5.226
    1TCM    cl3 1953   4.536   3.073   5.085
    1TCM     c1 1954   4.468   2.830   2.980
    1TCM    cl1 1955   4.377   2.979   3.015
    1TCM    cl2 1956   4.534   2.838   2.815
    1TCM     h1 1957   4.551   2.819   3.053
    1TCM    cl3 1958   4.359   2.690   2.993
    1TCM     c1 1959   2.277   4.506   3.618
    1TCM    cl1 1960   2.437   4.575   3.655
    1TCM    cl2 1961   2.170   4.527   3.759
    1TCM     h1 1962   2.234   4.559   3.530
    1TCM    cl3 1963   2.294   4.333   3.581
    1TCM     c1 1964   3.642   2.248   0.927
    1TCM    cl1 1965   3.627   2.301   0.757
    1TCM    cl2 1966   3.516   2.128   0.963
    1TCM     h1 1967   3.742   2.203   0.942
    1TCM    cl3 1968   3.623   2.389   1.034
    1TCM     c1 1969   2.753   1.897   2.428
    1TCM    cl1 1970   2.778   1.743   2.512
    1TCM    cl2 1971   2.671   1.868   2.273
    1TCM     h1 1972   2.691   1.964   2.491
    1TCM    cl3 1973   2.911   1.975   2.398
    1TCM     c1 1974   2.966   2.810   3.632
    1TCM    cl1 1975   3.084   2.919   3.708
    1TCM    cl2 1976   3.026   2.760   3.472
    1TCM     h1 1977   2.952   2.721   3.696
    1TCM    cl3 1978   2.811   2.895   3.614
    1TCM     c1 1979   5.034   1.930   1.669
    1TCM    cl1 1980   4.966   2.060   1.771
    1TCM    cl2 1981   5.052   1.989   1.503
    1TCM     h1 1982   5.133   1.901   1.709
    1TCM    cl3 1983   4.925   1.790   1.671
    1TCM     c1 1984   1.659   1.361   3.588
    1TCM    cl1 1985   1.646   1.536   3.559
    1TCM    cl2 1986   1.509   1.281   3.536
    1TCM     h1 1987   1.745   1.320   3.531
    1TCM    cl3 1988   1.684   1.332   3.762
    1TCM     c1 1989   3.415   4.186   2.226
    1TCM    cl1 1990   3.293   4.222   2.102
    1TCM    cl2 1991   3.364   4.042   2.318
    1TCM     h1 1992   3.513   4.166   2.178
    1TCM    cl3 1993   3.430   4.324   2.337
    1TCM     c1 1994   2.075   3.573   0.466
    1TCM    cl1 1995   1.964   3.473   0.561
    1TCM    cl2 1996   2.238   3.567   0.537
    1TCM     h1 1997   2.079   3.535   0.361
    1TCM    cl3 1998   2.017   3.742   0.465
    1TCM     c1 1999   4.651   2.153   3.246
    1TCM    cl1 2000   4.642   2.086   3.410
    1TCM    cl2 2001   4.522   2.273   3.223
    1TCM     h1 2002   4.749   2.202   3.231
    1TCM    cl3 2003   4.631   2.022   3.127
    1TCM     c1 2004   2.451   3.930   1.485
    1TCM    cl1 2005   2.335   3.877   1.360
    1TCM    cl2 2006   2.581   4.024   1.408
    1TCM     h1 2007   2.398   3.994   1.559
    1TCM    cl3 2008   2.520   3.788   1.566
    1TCM     c1 2009   1.031   4.925   4.701
    1TCM    cl1 2010   1.061   5.096   4.666
    1TCM    cl2 2011   0.924   4.856   4.576
    1TCM     h1 2012   1.128   4.870   4.701
    1TCM    cl3 2013   0.954   4.909   4.860
    1TCM     c1 2014   3.703   3.203   3.758
    1TCM    cl1 2015   3.762   3.058   3.842
    1TCM    cl2 2016   3.679   3.166   3.586
    1TCM     h1 2017   3.606   3.234   3.802
    1TCM    cl3 2018   3.822   3.333   3.775
    1TCM     c1 2019   3.754   3.872   1.255
    1TCM    cl1 2020   3.860   4.006   1.206
    1TCM    cl2 2021   3.675   3.911   1.409
    1TCM     h1 2022   3.677   3.856   1.177
    1TCM    cl3 2023   3.850   3.723   1.273
    1TCM     c1 2024   2.539   1.302   3.958
    1TCM    cl1 2025   2.602   1.446   4.041
    1TCM    cl2 2026   2.563   1.319   3.782
    1TCM     h1 2027   2.594   1.212   3.993
    1TCM    cl3 2028   2.366   1.284   3.992
    1TCM     c1 2029   2.137   3.673   4.871
    1TCM    cl1 2030   2.256   3.753   4.976
    1TCM    cl2 2031   2.027   3.575   4.969
    1TCM     h1 2032   2.079   3.750   4.815
    1TCM    cl3 2033   2.222   3.568   4.755
    1TCM     c1 2034   4.341   3.859   3.240
    1TCM    cl1 2035   4.372   4.032   3.268
    1TCM    cl2 2036   4.396   3.815   3.078
    1TCM     h1 2037   4.395   3.799   3.316
    1TCM    cl3 2038   4.166   3.828   3.254
    1TCM     c1 2039   3.085   1.579   4.980
    1TCM    cl1 2040   3.024   1.466   5.104
    1TCM    cl2 2041   3.261   1.596   4.998
    1TCM     h1 2042   3.061   1.538   4.879
    1TCM    cl3 2043   3.007   1.737   5.001
    1TCM     c1 2044   0.675   0.635   4.117
    1TCM    cl1 2045   0.557   0.632   3.984
    1TCM    cl2 2046   0.617   0.533   4.250
    1TCM     h1 2047   0.772   0.596   4.080
    1TCM    cl3 2048   0.695   0.802   4.174
    1TCM     c1 2049   3.520   0.927   1.960
    1TCM    cl1 2050   3.620   1.074   1.954
    1TCM    cl2 2051   3.364   0.958   1.879
    1TCM     h1 2052   3.572   0.845   1.908
    1TCM    cl3 2053   3.490   0.882   2.129
    1TCM     c1 2054   2.868   0.085   2.595
    1TCM    cl1 2055   2.891   0.024   2.430
    1TCM    cl2 2056   2.738   0.206   2.597
    1TCM     h1 2057   2.841   0.000   2.662
    1TCM    cl3 2058   3.019   0.159   2.653
    1TCM     c1 2059   2.725   4.587   2.460
    1TCM    cl1 2060   2.618   4.581   2.602
    1TCM    cl2 2061   2.665   4.475   2.335
    1TCM     h1 2062   2.726   4.691   2.419
    1TCM    cl3 2063   2.890   4.541   2.508
    1TCM     c1 2064   0.896   0.994   2.137
    1TCM    cl1 2065   0.922   0.831   2.071
    1TCM    cl2 2066   1.054   1.066   2.179
    1TCM     h1 2067   0.846   1.057   2.062
    1TCM    cl3 2068   0.796   0.984   2.283
    1TCM     c1 2069   2.392   4.322   3.093
    1TCM    cl1 2070   2.435   4.494   3.097
    1TCM    cl2 2071   2.367   4.271   2.924
    1TCM     h1 2072   2.474   4.262   3.138
    1TCM    cl3 2073   2.242   4.296   3.185
    1TCM     c1 2074   4.259   1.858   4.787
    1TCM    cl1 2075   4.223   1.854   4.961
    1TCM    cl2 2076   4.122   1.790   4.696
    1TCM     h1 2077   4.275   1.963   4.755
    1TCM    cl3 2078   4.405   1.763   4.754
    1TCM     c1 2079   0.345   0.555   0.270
    1TCM    cl1 2080   0.431   0.698   0.209
    1TCM    cl2 2081   0.290   0.456   0.133
    1TCM     h1 2082   0.412   0.496   0.335
    1TCM    cl3 2083   0.203   0.608   0.365
    1TCM     c1 2084   3.969   3.879   5.217
    1TCM    cl1 2085   3.946   4.046   5.274
    1TCM    cl2 2086   4.140   3.853   5.175
    1TCM     h1 2087   3.940   3.808   5.298
    1TCM    cl3 2088   3.868   3.851   5.074
    1TCM     c1 2089   1.945   2.570   2.739
    1TCM    cl1 2090   1.878   2.444   2.846
    1TCM    cl2 2091   1.892   2.540   2.572
    1TCM     h1 2092   1.908   2.670   2.771
    1TCM    cl3 2093   2.122   2.567   2.746
    1TCM     c1 2094   2.094   4.093   1.577
    1TCM    cl1 2095   1.974   4.221   1.544
    1TCM    cl2 2096   2.242   4.167   1.642
    1TCM     h1 2097   2.052   4.022   1.650
    1TCM    cl3 2098   2.132   4.008   1.426
    1TCM     c1 2099   4.067   3.645   1.880
    1TCM    cl1 2100   4.188   3.641   1.749
    1TCM    cl2 2101   4.138   3.578   2.028
    1TCM     h1 2102   4.035   3.750   1.898
    1TCM    cl3 2103   3.925   3.547   1.833
    1TCM     c1 2104   2.662   4.735   0.684
    1TCM    cl1 2105   2.535   4.742   0.560
    1TCM    cl2 2106   2.778   4.868   0.658
    1TCM     h1 2107   2.617   4.745   0.784
    1TCM    cl3 2108   2.748   4.579   0.672
    1TCM     c1 2109   2.816   2.345   4.710
    1TCM    cl1 2110   2.812   2.384   4.537
    1TCM    cl2 2111   2.937   2.446   4.792
    1TCM     h1 2112   2.716   2.363   4.755
    1TCM    cl3 2113   2.859   2.173   4.731
    1TCM     c1 2114   1.544   3.342   2.673
    1TCM    cl1 2115   1.716   3.362   2.633
    1TCM    cl2 2116   1.469   3.502   2.696
    1TCM     h1 2117   1.492   3.288   2.591
    1TCM    cl3 2118   1.528   3.248   2.823
    1TCM     c1 2119   0.704   4.163   4.856
    1TCM    cl1 2120   0.794   4.034   4.774
    1TCM    cl2 2121   0.773   4.190   5.018
    1TCM     h1 2122   0.711   4.256   4.797
    1TCM    cl3 2123   0.534   4.115   4.872
    1TCM     c1 2124   0.187   2.493   1.818
    1TCM    cl1 2125   0.270   2.460   1.972
    1TCM    cl2 2126   0.258   2.637   1.742
    1TCM     h1 2127   0.199   2.405   1.750
    1TCM    cl3 2128   0.014   2.521   1.849
    1TCM     c1 2129   4.452   0.911   4.262
    1TCM    cl1 2130   4.486   1.079   4.311
    1TCM    cl2 2131   4.540   0.800   4.370
    1TCM     h1 2132   4.343   0.891   4.269
    1TCM    cl3 2133   4.506   0.886   4.095
    1TCM     c1 2134   3.971   1.125   0.458
    1TCM    cl1 2135   4.078   1.129   0.600
    1TCM    cl2 2136   4.043   1.022   0.332
    1TCM     h1 2137   3.872   1.085   0.487
    1TCM    cl3 2138   3.951   1.290   0.394
    1TCM     c1 2139   1.849   1.781   4.074
    1TCM    cl1 2140   1.878   1.839   4.240
    1TCM    cl2 2141   1.987   1.826   3.970
    1TCM     h1 2142   1.838   1.670   4.075
    1TCM    cl3 2143   1.700   1.855   4.010
    1TCM     c1 2144   0.251   1.935   2.059
    1TCM    cl1 2145   0.299   1.764   2.050
    1TCM    cl2 2146   0.185   1.970   2.221
    1TCM     h1 2147   0.340   1.999   2.041
    1TCM    cl3 2148   0.127   1.969   1.936
    1TCM     c1 2149   1.650   0.594   3.468
    1TCM    cl1 2150   1.596   0.475   3.347
    1TCM    cl2 2151   1.767   0.517   3.579
    1TCM     h1 2152   1.699   0.679   3.417
    1TCM    cl3 2153   1.510   0.652   3.561
    1TCM     c1 2154   2.276   4.233   1.176
    1TCM    cl1 2155   2.168   4.098   1.135
    1TCM    cl2 2156   2.262   4.361   1.054
    1TCM     h1 2157   2.249   4.273   1.276
    1TCM    cl3 2158   2.444   4.174   1.181
    1TCM     c1 2159   3.426   1.774   4.331
    1TCM    cl1 2160   3.449   1.940   4.390
    1TCM    cl2 2161   3.268   1.713   4.386
    1TCM     h1 2162   3.428   1.774   4.220
    1TCM    cl3 2163   3.555   1.670   4.394
    1TCM     c1 2164   2.265   3.725   4.209
    1TCM    cl1 2165   2.280   3.813   4.056
    1TCM    cl2 2166   2.188   3.830   4.330
    1TCM     h1 2167   2.203   3.635   4.194
    1TCM    cl3 2168   2.427   3.677   4.266
    1TCM     c1 2169   3.174   0.982   4.962
    1TCM    cl1 2170   3.295   1.039   4.845
    1TCM    cl2 2171   3.117   0.820   4.915
    1TCM     h1 2172   3.221   0.976   5.063
    1TCM    cl3 2173   3.037   1.095   4.966
    1TCM     c1 2174   3.371   2.796   2.733
    1TCM    cl1 2175   3.363   2.939   2.839
    1TCM    cl2 2176   3.419   2.847   2.569
    1TCM     h1 2177   3.447   2.725   2.773
    1TCM    cl3 2178   3.212   2.718   2.727
    1TCM     c1 2179   4.718   4.252   0.898
    1TCM    cl1 2180   4.800   4.103   0.949
    1TCM    cl2 2181   4.747   4.380   1.019
    1TCM     h1 2182   4.757   4.284   0.800
    1TCM    cl3 2183   4.543   4.222   0.886
    1TCM     c1 2184   2.157   2.914   4.522
    1TCM    cl1 2185   2.103   2.780   4.417
    1TCM    cl2 2186   2.159   2.859   4.691
    1TCM     h1 2187   2.259   2.945   4.492
    1TCM    cl3 2188   2.045   3.051   4.506
    1TCM     c1 2189   2.546   4.101   4.497
    1TCM    cl1 2190   2.380   4.060   4.547
    1TCM    cl2 2191   2.547   4.144   4.325
    1TCM     h1 2192   2.583   4.186   4.557
    1TCM    cl3 2193   2.651   3.960   4.523
    1TCM     c1 2194   4.394   5.141   2.668
    1TCM    cl1 2195   4.466   5.065   2.524
    1TCM    cl2 2196   4.502   5.268   2.729
    1TCM     h1 2197   4.296   5.186   2.641
    1TCM    cl3 2198   4.370   5.018   2.794
    1TCM     c1 2199   1.940   3.601   2.045
    1TCM    cl1 2200   1.868   3.705   1.921
    1TCM    cl2 2201   2.037   3.700   2.157
    1TCM     h1 2202   1.860   3.549   2.102
    1TCM    cl3 2203   2.045   3.479   1.968
    1TCM     c1 2204   3.554   0.819   0.943
    1TCM    cl1 2205   3.556   0.641   0.934
    1TCM    cl2 2206   3.654   0.873   1.079
    1TCM     h1 2207   3.594   0.861   0.848
    1TCM    cl3 2208   3.387   0.875   0.967
    1TCM     c1 2209   0.259   3.720   3.005
    1TCM    cl1 2210   0.138   3.820   2.921
    1TCM    cl2 2211   0.271   3.773   3.175
    1TCM     h1 2212   0.228   3.614   3.002
    1TCM    cl3 2213   0.417   3.739   2.926
    1TCM     c1 2214   2.880   2.752   4.919
    1TCM    cl1 2215   2.870   2.754   4.742
    1TCM    cl2 2216   3.051   2.743   4.969
    1TCM     h1 2217   2.835   2.845   4.960
    1TCM    cl3 2218   2.792   2.612   4.983
    1TCM     c1 2219   4.823   3.308   4.713
    1TCM    cl1 2220   4.652   3.338   4.672
    1TCM    cl2 2221   4.834   3.167   4.821
    1TCM     h1 2222   4.880   3.288   4.620
    1TCM    cl3 2223   4.890   3.450   4.795
    1TCM     c1 2224   2.844   5.253   3.946
    1TCM    cl1 2225   2.873   5.340   4.098
    1TCM    cl2 2226   2.923   5.340   3.812
    1TCM     h1 2227   2.886   5.151   3.953
    1TCM    cl3 2228   2.669   5.243   3.915
    1TCM     c1 2229   1.768   3.529   4.666
    1TCM    cl1 2230   1.657   3.566   4.800
    1TCM    cl2 2231   1.702   3.596   4.515
    1TCM     h1 2232   1.867   3.573   4.686
    1TCM    cl3 2233   1.784   3.352   4.650
    1TCM     c1 2234   0.822   2.823   0.742
    1TCM    cl1 2235   0.898   2.943   0.850
    1TCM    cl2 2236   0.881   2.848   0.576
    1TCM     h1 2237   0.849   2.721   0.776
    1TCM    cl3 2238   0.646   2.843   0.747
    1TCM     c1 2239   3.028   0.203   3.294
    1TCM    cl1 2240   3.016   0.158   3.122
    1TCM    cl2 2241   2.963   0.072   3.394
    1TCM     h1 2242   3.134   0.220   3.320
    1TCM    cl3 2243   2.934   0.351   3.323
    1TCM     c1 2244   2.689   1.785   3.268
    1TCM    cl1 2245   2.835   1.685   3.251
    1TCM    cl2 2246   2.557   1.686   3.336
    1TCM     h1 2247   2.710   1.870   3.336
    1TCM    cl3 2248   2.640   1.847   3.109
    1TCM     c1 2249   3.152   5.196   4.038
    1TCM    cl1 2250   3.136   5.153   4.210
    1TCM    cl2 2251   3.076   5.071   3.938
    1TCM     h1 2252   3.102   5.294   4.020
    1TCM    cl3 2253   3.324   5.209   3.996
    1TCM     c1 2254   2.983   3.312   0.107
    1TCM    cl1 2255   3.112   3.388   0.010
    1TCM    cl2 2256   3.056   3.202   0.227
    1TCM     h1 2257   2.925   3.390   0.159
    1TCM    cl3 2258   2.876   3.219   0.000
    1TCM     c1 2259   0.252   0.505   4.231
    1TCM    cl1 2260   0.405   0.478   4.143
    1TCM    cl2 2261   0.287   0.584   4.386
    1TCM     h1 2262   0.186   0.570   4.170
    1TCM    cl3 2263   0.172   0.349   4.260
    1TCM     c1 2264   1.171   1.884   0.982
    1TCM    cl1 2265   1.342   1.915   0.941
    1TCM    cl2 2266   1.136   1.950   1.143
    1TCM     h1 2267   1.106   1.932   0.907
    1TCM    cl3 2268   1.142   1.708   0.982
    1TCM     c1 2269   0.693   1.481   0.180
    1TCM    cl1 2270   0.691   1.552   0.343
    1TCM    cl2 2271   0.526   1.461   0.122
    1TCM     h1 2272   0.748   1.548   0.111
    1TCM    cl3 2273   0.773   1.322   0.185
    1TCM     c1 2274   4.659   2.987   1.949
    1TCM    cl1 2275   4.823   2.976   2.015
    1TCM    cl2 2276   4.647   2.887   1.802
    1TCM     h1 2277   4.586   2.951   2.024
    1TCM    cl3 2278   4.622   3.157   1.908
    1TCM     c1 2279   3.094   5.094   4.718
    1TCM    cl1 2280   2.948   4.994   4.726
    1TCM    cl2 2281   3.147   5.109   4.548
    1TCM     h1 2282   3.073   5.194   4.759
    1TCM    cl3 2283   3.224   5.017   4.813
    1TCM     c1 2284   2.546   4.928   1.577
    1TCM    cl1 2285   2.592   4.770   1.510
    1TCM    cl2 2286   2.594   4.936   1.748
    1TCM     h1 2287   2.597   5.009   1.521
    1TCM    cl3 2288   2.370   4.950   1.564
    1TCM     c1 2289   2.709   4.012   4.877
    1TCM    cl1 2290   2.822   4.089   4.763
    1TCM    cl2 2291   2.759   4.049   5.043
    1TCM     h1 2292   2.606   4.052   4.860
    1TCM    cl3 2293   2.708   3.836   4.852
    1TCM     c1 2294   4.013   3.992   2.747
    1TCM    cl1 2295   3.946   4.155   2.772
    1TCM    cl2 2296   3.998   3.946   2.576
    1TCM     h1 2297   4.120   3.991   2.776
    1TCM    cl3 2298   3.924   3.875   2.848
    1TCM     c1 2299   2.345   1.209   2.393
    1TCM    cl1 2300   2.517   1.245   2.414
    1TCM    cl2 2301   2.322   1.115   2.243
    1TCM     h1 2302   2.308   1.149   2.480
    1TCM    cl3 2303   2.253   1.360   2.383
    1TCM     c1 2304   4.894   2.382   0.650
    1TCM    cl1 2305   4.824   2.523   0.734
    1TCM    cl2 2306   5.034   2.322   0.742
    1TCM     h1 2307   4.818   2.303   0.643
    1TCM    cl3 2308   4.947   2.431   0.488
    1TCM     c1 2309   4.219   0.586   3.224
    1TCM    cl1 2310   4.099   0.613   3.353
    1TCM    cl2 2311   4.378   0.646   3.279
    1TCM     h1 2312   4.226   0.478   3.202
    1TCM    cl3 2313   4.170   0.675   3.078
    1TCM     c1 2314   4.861   2.339   0.169
    1TCM    cl1 2315   4.786   2.217   0.063
    1TCM    cl2 2316   4.835   2.293   0.339
    1TCM     h1 2317   4.970   2.344   0.148
    1TCM    cl3 2318   4.787   2.498   0.139
    1TCM     c1 2319   3.527   1.206   1.057
    1TCM    cl1 2320   3.458   1.335   0.957
    1TCM    cl2 2321   3.657   1.124   0.966
    1TCM     h1 2322   3.569   1.249   1.150
    1TCM    cl3 2323   3.401   1.088   1.098
    1TCM     c1 2324   2.672   4.388   4.628
    1TCM    cl1 2325   2.811   4.292   4.682
    1TCM    cl2 2326   2.523   4.323   4.702
    1TCM     h1 2327   2.685   4.493   4.659
    1TCM    cl3 2328   2.659   4.379   4.451
    1TCM     c1 2329   1.608   5.240   0.677
    1TCM    cl1 2330   1.638   5.105   0.565
    1TCM    cl2 2331   1.474   5.339   0.614
    1TCM     h1 2332   1.581   5.200   0.777
    1TCM    cl3 2333   1.754   5.340   0.691
    1TCM     c1 2334   1.420   3.294   4.493
    1TCM    cl1 2335   1.319   3.370   4.368
    1TCM    cl2 2336   1.358   3.337   4.654
    1TCM     h1 2337   1.418   3.183   4.481
    1TCM    cl3 2338   1.588   3.351   4.477
    1TCM     c1 2339   1.224   2.424   2.468
    1TCM    cl1 2340   1.392   2.406   2.524
    1TCM    cl2 2341   1.211   2.368   2.299
    1TCM     h1 2342   1.157   2.364   2.532
    1TCM    cl3 2343   1.177   2.595   2.477
    1TCM     c1 2344   1.357   1.307   0.666
    1TCM    cl1 2345   1.354   1.481   0.702
    1TCM    cl2 2346   1.321   1.216   0.815
    1TCM     h1 2347   1.280   1.284   0.589
    1TCM    cl3 2348   1.518   1.262   0.606
    1TCM     c1 2349   0.355   5.214   3.200
    1TCM    cl1 2350   0.231   5.340   3.182
    1TCM    cl2 2351   0.290   5.058   3.143
    1TCM     h1 2352   0.445   5.241   3.140
    1TCM    cl3 2353   0.401   5.199   3.372
    1TCM     c1 2354   2.803   3.979   0.342
    1TCM    cl1 2355   2.688   4.098   0.276
    1TCM    cl2 2356   2.926   3.942   0.219
    1TCM     h1 2357   2.852   4.021   0.432
    1TCM    cl3 2358   2.716   3.830   0.385
    1TCM     c1 2359   5.099   1.868   0.947
    1TCM    cl1 2360   5.227   1.878   1.070
    1TCM    cl2 2361   5.166   1.907   0.787
    1TCM     h1 2362   5.057   1.765   0.946
    1TCM    cl3 2363   4.970   1.984   0.987
    1TCM     c1 2364   0.082   2.544   0.775
    1TCM    cl1 2365   0.244   2.506   0.837
    1TCM    cl2 2366   0.023   2.409   0.675
    1TCM     h1 2367   0.012   2.560   0.860
    1TCM    cl3 2368   0.089   2.692   0.676
    1TCM     c1 2369   3.197   4.747   4.124
    1TCM    cl1 2370   3.113   4.889   4.191
    1TCM    cl2 2371   3.291   4.797   3.981
    1TCM     h1 2372   3.266   4.705   4.200
    1TCM    cl3 2373   3.078   4.624   4.077
    1TCM     c1 2374   0.490   3.254   3.499
    1TCM    cl1 2375   0.538   3.109   3.591
    1TCM    cl2 2376   0.474   3.213   3.327
    1TCM     h1 2377   0.392   3.290   3.537
    1TCM    cl3 2378   0.613   3.381   3.519
    1TCM     c1 2379   5.018   1.581   0.390
    1TCM    cl1 2380   5.075   1.436   0.304
    1TCM    cl2 2381   5.094   1.725   0.318
    1TCM     h1 2382   4.908   1.588   0.381
    1TCM    cl3 2383   5.064   1.569   0.562
    1TCM     c1 2384   4.829   5.012   4.348
    1TCM    cl1 2385   4.938   4.987   4.486
    1TCM    cl2 2386   4.835   4.871   4.240
    1TCM     h1 2387   4.725   5.026   4.384
    1TCM    cl3 2388   4.880   5.157   4.258
    1TCM     c1 2389   4.100   0.944   2.056
    1TCM    cl1 2390   4.035   1.065   1.943
    1TCM    cl2 2391   4.057   0.781   2.000
    1TCM     h1 2392   4.210   0.954   2.061
    1TCM    cl3 2393   4.030   0.971   2.218
    1TCM     c1 2394   2.328   4.782   2.402
    1TCM    cl1 2395   2.403   4.671   2.519
    1TCM    cl2 2396   2.390   4.747   2.239
    1TCM     h1 2397   2.218   4.768   2.403
    1TCM    cl3 2398   2.366   4.950   2.445
    1TCM     c1 2399   0.712   4.199   3.316
    1TCM    cl1 2400   0.642   4.117   3.174
    1TCM    cl2 2401   0.748   4.368   3.276
    1TCM     h1 2402   0.639   4.195   3.400
    1TCM    cl3 2403   0.862   4.116   3.364
    1TCM     c1 2404   2.170   4.732   0.399
    1TCM    cl1 2405   2.170   4.695   0.573
    1TCM    cl2 2406   2.114   4.590   0.308
    1TCM     h1 2407   2.103   4.818   0.379
    1TCM    cl3 2408   2.336   4.774   0.348
    1TCM     c1 2409   3.634   1.222   2.337
    1TCM    cl1 2410   3.658   1.104   2.467
    1TCM    cl2 2411   3.594   1.381   2.408
    1TCM     h1 2412   3.726   1.231   2.276
    1TCM    cl3 2413   3.500   1.169   2.233
    1TCM     c1 2414   3.720   4.060   0.855
    1TCM    cl1 2415   3.729   3.914   0.754
    1TCM    cl2 2416   3.723   4.014   1.027
    1TCM     h1 2417   3.807   4.126   0.833
    1TCM    cl3 2418   3.569   4.148   0.820
    1TCM     c1 2419   1.673   4.331   2.118
    1TCM    cl1 2420   1.759   4.250   1.986
    1TCM    cl2 2421   1.785   4.359   2.253
    1TCM     h1 2422   1.633   4.428   2.082
    1TCM    cl3 2423   1.538   4.228   2.173
    1TCM     c1 2424   4.982   2.789   3.031
    1TCM    cl1 2425   5.155   2.821   3.055
    1TCM    cl2 2426   4.940   2.816   2.861
    1TCM     h1 2427   4.960   2.684   3.059
    1TCM    cl3 2428   4.887   2.899   3.134
    1TCM     c1 2429   2.918   5.163   3.589
    1TCM    cl1 2430   3.021   5.157   3.734
    1TCM    cl2 2431   2.918   5.328   3.523
    1TCM     h1 2432   2.958   5.093   3.512
    1TCM    cl3 2433   2.752   5.116   3.632
    1TCM     c1 2434   1.002   4.447   0.297
    1TCM    cl1 2435   1.007   4.490   0.124
    1TCM    cl2 2436   1.072   4.286   0.320
    1TCM     h1 2437   1.060   4.521   0.355
    1TCM    cl3 2438   0.833   4.447   0.353
    1TCM     c1 2439   3.178   2.767   0.898
    1TCM    cl1 2440   3.332   2.682   0.873
    1TCM    cl2 2441   3.180   2.847   1.057
    1TCM     h1 2442   3.164   2.843   0.819
    1TCM    cl3 2443   3.044   2.650   0.892
    1TCM     c1 2444   0.631   2.013   2.543
    1TCM    cl1 2445   0.478   2.018   2.453
    1TCM    cl2 2446   0.621   1.888   2.669
    1TCM     h1 2447   0.714   1.989   2.474
    1TCM    cl3 2448   0.660   2.171   2.619
    1TCM     c1 2449   2.632   0.768   4.985
    1TCM    cl1 2450   2.733   0.886   5.072
    1TCM    cl2 2451   2.521   0.854   4.876
    1TCM     h1 2452   2.698   0.701   4.926
    1TCM    cl3 2453   2.539   0.672   5.101
    1TCM     c1 2454   0.389   4.377   4.228
    1TCM    cl1 2455   0.493   4.253   4.154
    1TCM    cl2 2456   0.441   4.407   4.395
    1TCM     h1 2457   0.396   4.471   4.169
    1TCM    cl3 2458   0.220   4.320   4.228
    1TCM     c1 2459   5.132   4.010   1.572
    1TCM    cl1 2460   5.278   4.007   1.674
    1TCM    cl2 2461   5.013   3.894   1.635
    1TCM     h1 2462   5.089   4.112   1.573
    1TCM    cl3 2463   5.176   3.966   1.405
    1TCM     c1 2464   0.597   4.203   3.734
    1TCM    cl1 2465   0.677   4.330   3.638
    1TCM    cl2 2466   0.590   4.254   3.904
    1TCM     h1 2467   0.494   4.188   3.696
    1TCM    cl3 2468   0.688   4.051   3.721
    1TCM     c1 2469   5.195   5.050   3.605
    1TCM    cl1 2470   5.204   5.102   3.435
    1TCM    cl2 2471   5.320   5.134   3.699
    1TCM     h1 2472   5.095   5.074   3.646
    1TCM    cl3 2473   5.222   4.874   3.615
    1TCM     c1 2474   3.779   2.719   1.930
    1TCM    cl1 2475   3.955   2.694   1.924
    1TCM    cl2 2476   3.733   2.774   2.093
    1TCM     h1 2477   3.750   2.796   1.856
    1TCM    cl3 2478   3.696   2.566   1.894
    1TCM     c1 2479   4.053   1.207   5.175
    1TCM    cl1 2480   4.101   1.360   5.252
    1TCM    cl2 2481   4.168   1.080   5.221
    1TCM     h1 2482   3.951   1.179   5.208
    1TCM    cl3 2483   4.054   1.227   4.998
    1TCM     c1 2484   1.189   2.133   4.432
    1TCM    cl1 2485   1.331   2.147   4.538
    1TCM    cl2 2486   1.134   1.964   4.429
    1TCM     h1 2487   1.107   2.197   4.471
    1TCM    cl3 2488   1.232   2.185   4.268
    1TCM     c1 2489   0.430   0.295   2.119
    1TCM    cl1 2490   0.457   0.220   1.960
    1TCM    cl2 2491   0.544   0.226   2.237
    1TCM     h1 2492   0.446   0.404   2.112
    1TCM    cl3 2493   0.263   0.263   2.173
    1TCM     c1 2494   3.834   0.437   1.093
    1TCM    cl1 2495   3.972   0.536   1.145
    1TCM    cl2 2496   3.683   0.526   1.122
    1TCM     h1 2497   3.843   0.414   0.985
    1TCM    cl3 2498   3.831   0.285   1.186
    1TCM     c1 2499   3.183   2.263   3.650
    1TCM    cl1 2500   3.322   2.345   3.576
    1TCM    cl2 2501   3.178   2.300   3.824
    1TCM     h1 2502   3.089   2.298   3.602
    1TCM    cl3 2503   3.200   2.087   3.627
    1TCM     c1 2504   3.741   2.901   3.540
    1TCM    cl1 2505   3.884   2.998   3.497
    1TCM    cl2 2506   3.792   2.736   3.580
    1TCM     h1 2507   3.691   2.947   3.628
    1TCM    cl3 2508   3.629   2.898   3.403
    1TCM     c1 2509   3.246   4.440   1.767
    1TCM    cl1 2510   3.203   4.610   1.795
    1TCM    cl2 2511   3.239   4.406   1.592
    1TCM     h1 2512   3.348   4.420   1.804
    1TCM    cl3 2513   3.130   4.334   1.852
    1TCM     c1 2514   0.517   1.329   4.229
    1TCM    cl1 2515   0.431   1.173   4.228
    1TCM    cl2 2516   0.512   1.400   4.066
    1TCM     h1 2517   0.469   1.398   4.301
    1TCM    cl3 2518   0.687   1.303   4.277
    1TCM     c1 2519   0.364   1.866   1.586
    1TCM    cl1 2520   0.534   1.832   1.627
    1TCM    cl2 2521   0.279   1.713   1.555
    1TCM     h1 2522   0.316   1.918   1.671
    1TCM    cl3 2523   0.357   1.969   1.441
    1TCM     c1 2524   0.078   2.908   1.379
    1TCM    cl1 2525   0.194   2.859   1.255
    1TCM    cl2 2526   0.001   3.061   1.331
    1TCM     h1 2527   0.000   2.830   1.391
    1TCM    cl3 2528   0.162   2.930   1.534
    1TCM     c1 2529   0.804   3.707   0.068
    1TCM    cl1 2530   0.777   3.545   0.000
    1TCM    cl2 2531   0.683   3.819   0.002
    1TCM     h1 2532   0.795   3.702   0.179
    1TCM    cl3 2533   0.967   3.763   0.025
    1TCM     c1 2534   3.745   1.255   1.481
    1TCM    cl1 2535   3.820   1.134   1.375
    1TCM    cl2 2536   3.812   1.240   1.645
    1TCM     h1 2537   3.766   1.357   1.441
    1TCM    cl3 2538   3.570   1.229   1.486
    1TCM     c1 2539   3.549   1.714   4.770
    1TCM    cl1 2540   3.375   1.678   4.780
    1TCM    cl2 2541   3.628   1.667   4.923
    1TCM     h1 2542   3.594   1.656   4.686
    1TCM    cl3 2543   3.572   1.888   4.742
    1TCM     c1 2544   0.722   3.961   4.300
    1TCM    cl1 2545   0.567   4.049   4.307
    1TCM    cl2 2546   0.849   4.069   4.236
    1TCM     h1 2547   0.750   3.928   4.402
    1TCM    cl3 2548   0.706   3.819   4.194
    1TCM     c1 2549   3.627   3.219   5.182
    1TCM    cl1 2550   3.589   3.131   5.032
    1TCM    cl2 2551   3.516   3.166   5.311
    1TCM     h1 2552   3.731   3.197   5.213
    1TCM    cl3 2553   3.608   3.393   5.155
    1TCM     c1 2554   0.977   2.722   1.513
    1TCM    cl1 2555   0.918   2.571   1.586
    1TCM    cl2 2556   1.153   2.710   1.487
    1TCM     h1 2557   0.927   2.739   1.416
    1TCM    cl3 2558   0.943   2.858   1.622
    1TCM     c1 2559   4.403   5.076   5.200
    1TCM    cl1 2560   4.282   5.096   5.329
    1TCM    cl2 2561   4.564   5.120   5.262
    1TCM     h1 2562   4.404   4.970   5.167
    1TCM    cl3 2563   4.361   5.181   5.063
    1TCM     c1 2564   4.407   1.115   0.302
    1TCM    cl1 2565   4.249   1.131   0.222
    1TCM    cl2 2566   4.384   1.053   0.467
    1TCM     h1 2567   4.471   1.045   0.245
    1TCM    cl3 2568   4.486   1.274   0.310
    1TCM     c1 2569   3.088   0.845   3.487
    1TCM    cl1 2570   3.047   0.827   3.314
    1TCM    cl2 2571   3.199   0.982   3.507
    1TCM     h1 2572   2.995   0.864   3.545
    1TCM    cl3 2573   3.165   0.696   3.545
    1TCM     c1 2574   4.362   1.447   4.888
    1TCM    cl1 2575   4.498   1.539   4.821
    1TCM    cl2 2576   4.351   1.289   4.806
    1TCM     h1 2577   4.378   1.431   4.997
    1TCM    cl3 2578   4.211   1.537   4.862
    1TCM     c1 2579   4.771   2.155   3.824
    1TCM    cl1 2580   4.676   2.005   3.823
    1TCM    cl2 2581   4.688   2.279   3.728
    1TCM     h1 2582   4.783   2.191   3.929
    1TCM    cl3 2583   4.932   2.123   3.754
    1TCM     c1 2584   0.106   4.931   3.850
    1TCM    cl1 2585   0.002   4.910   3.707
    1TCM    cl2 2586   0.238   4.812   3.845
    1TCM     h1 2587   0.149   5.034   3.850
    1TCM    cl3 2588   0.010   4.906   3.997
    1TCM     c1 2589   3.372   0.745   3.820
    1TCM    cl1 2590   3.223   0.673   3.758
    1TCM    cl2 2591   3.508   0.702   3.713
    1TCM     h1 2592   3.362   0.855   3.824
    1TCM    cl3 2593   3.404   0.683   3.984
    1TCM     c1 2594   3.877   3.792   1.598
    1TCM    cl1 2595   3.971   3.874   1.472
    1TCM    cl2 2596   3.901   3.875   1.753
    1TCM     h1 2597   3.770   3.794   1.571
    1TCM    cl3 2598   3.931   3.623   1.612
    1TCM     c1 2599   0.540   0.175   1.379
    1TCM    cl1 2600   0.636   0.045   1.452
    1TCM    cl2 2601   0.396   0.105   1.301
    1TCM     h1 2602   0.508   0.246   1.458
    1TCM    cl3 2603   0.637   0.260   1.257
    1TCM     c1 2604   2.164   3.968   3.691
    1TCM    cl1 2605   2.294   3.941   3.809
    1TCM    cl2 2606   2.211   3.898   3.534
    1TCM     h1 2607   2.071   3.920   3.727
    1TCM    cl3 2608   2.136   4.143   3.672
    1TCM     c1 2609   4.523   3.949   1.341
    1TCM    cl1 2610   4.552   3.928   1.515
    1TCM    cl2 2611   4.653   4.048   1.271
    1TCM     h1 2612   4.522   3.849   1.291
    1TCM    cl3 2613   4.366   4.029   1.316
    1TCM     c1 2614   3.153   4.305   4.503
    1TCM    cl1 2615   3.187   4.382   4.660
    1TCM    cl2 2616   3.211   4.137   4.506
    1TCM     h1 2617   3.044   4.306   4.484
    1TCM    cl3 2618   3.237   4.394   4.374
    1TCM     c1 2619   2.076   1.870   4.792
    1TCM    cl1 2620   1.939   1.977   4.828
    1TCM    cl2 2621   2.048   1.788   4.637
    1TCM     h1 2622   2.169   1.931   4.785
    1TCM    cl3 2623   2.093   1.750   4.921
    1TCM     c1 2624   1.512   3.525   2.013
    1TCM    cl1 2625   1.588   3.563   1.857
    1TCM    cl2 2626   1.500   3.673   2.111
    1TCM     h1 2627   1.410   3.484   1.996
    1TCM    cl3 2628   1.610   3.405   2.099
    1TCM     c1 2629   1.828   0.113   1.513
    1TCM    cl1 2630   1.893   0.097   1.678
    1TCM    cl2 2631   1.954   0.177   1.406
    1TCM     h1 2632   1.796   0.013   1.477
    1TCM    cl3 2633   1.689   0.223   1.515
    1TCM     c1 2634   4.180   4.352   3.798
    1TCM    cl1 2635   4.098   4.420   3.655
    1TCM    cl2 2636   4.096   4.406   3.945
    1TCM     h1 2637   4.178   4.241   3.793
    1TCM    cl3 2638   4.349   4.408   3.802
    1TCM     c1 2639   0.664   1.032   3.735
    1TCM    cl1 2640   0.640   1.038   3.559
    1TCM    cl2 2641   0.584   0.887   3.801
    1TCM     h1 2642   0.772   1.028   3.757
    1TCM    cl3 2643   0.593   1.178   3.809
    1TCM     c1 2644   1.689   4.459   0.702
    1TCM    cl1 2645   1.815   4.582   0.679
    1TCM    cl2 2646   1.577   4.513   0.829
    1TCM     h1 2647   1.633   4.445   0.607
    1TCM    cl3 2648   1.763   4.305   0.750
    1TCM     c1 2649   3.245   0.382   0.145
    1TCM    cl1 2650   3.131   0.297   0.252
    1TCM    cl2 2651   3.277   0.281   0.002
    1TCM     h1 2652   3.201   0.478   0.113
    1TCM    cl3 2653   3.397   0.411   0.232
    1TCM     c1 2654   3.786   0.937   3.282
    1TCM    cl1 2655   3.772   0.964   3.107
    1TCM    cl2 2656   3.957   0.927   3.328
    1TCM     h1 2657   3.738   1.021   3.337
    1TCM    cl3 2658   3.704   0.785   3.325
    1TCM     c1 2659   0.147   4.591   4.009
    1TCM    cl1 2660   0.287   4.510   3.935
    1TCM    cl2 2661   0.203   4.707   4.131
    1TCM     h1 2662   0.089   4.645   3.931
    1TCM    cl3 2663   0.042   4.470   4.087
    1TCM     c1 2664   4.443   1.691   5.242
    1TCM    cl1 2665   4.574   1.671   5.124
    1TCM    cl2 2666   4.288   1.707   5.156
    1TCM     h1 2667   4.439   1.602   5.308
    1TCM    cl3 2668   4.472   1.836   5.339
    1TCM     c1 2669   0.502   0.658   2.779
    1TCM    cl1 2670   0.641   0.624   2.672
    1TCM    cl2 2671   0.360   0.568   2.721
    1TCM     h1 2672   0.527   0.626   2.882
    1TCM    cl3 2673   0.467   0.832   2.777
    1TCM     c1 2674   0.532   1.891   2.184
    1TCM    cl1 2675   0.629   1.791   2.294
    1TCM    cl2 2676   0.531   1.818   2.022
    1TCM     h1 2677   0.428   1.897   2.222
    1TCM    cl3 2678   0.601   2.055   2.175
    1TCM     c1 2679   3.551   2.204   1.691
    1TCM    cl1 2680   3.412   2.105   1.640
    1TCM    cl2 2681   3.664   2.221   1.555
    1TCM     h1 2682   3.515   2.304   1.722
    1TCM    cl3 2683   3.633   2.125   1.827
    1TCM     c1 2684   2.711   0.911   4.428
    1TCM    cl1 2685   2.612   1.011   4.319
    1TCM    cl2 2686   2.605   0.803   4.522
    1TCM     h1 2687   2.782   0.851   4.368
    1TCM    cl3 2688   2.801   1.016   4.540
    1TCM     c1 2689   4.648   2.533   4.930
    1TCM    cl1 2690   4.664   2.626   5.081
    1TCM    cl2 2691   4.525   2.406   4.951
    1TCM     h1 2692   4.618   2.601   4.848
    1TCM    cl3 2693   4.804   2.458   4.890
    1TCM     c1 2694   3.821   0.754   2.844
    1TCM    cl1 2695   3.716   0.761   2.701
    1TCM    cl2 2696   3.887   0.916   2.878
    1TCM     h1 2697   3.761   0.719   2.932
    1TCM    cl3 2698   3.954   0.640   2.815
    1TCM     c1 2699   3.327   2.242   3.298
    1TCM    cl1 2700   3.334   2.068   3.264
    1TCM    cl2 2701   3.313   2.332   3.146
    1TCM     h1 2702   3.238   2.263   3.362
    1TCM    cl3 2703   3.474   2.292   3.384
    1TCM     c1 2704   3.868   1.672   1.472
    1TCM    cl1 2705   3.972   1.807   1.420
    1TCM    cl2 2706   3.770   1.722   1.611
    1TCM     h1 2707   3.802   1.642   1.388
    1TCM    cl3 2708   3.970   1.533   1.518
    1TCM     c1 2709   0.418   3.445   1.597
    1TCM    cl1 2710   0.254   3.415   1.660
    1TCM    cl2 2711   0.447   3.338   1.457
    1TCM     h1 2712   0.426   3.551   1.565
    1TCM    cl3 2713   0.538   3.411   1.724
    1TCM     c1 2714   2.474   3.685   4.603
    1TCM    cl1 2715   2.456   3.628   4.771
    1TCM    cl2 2716   2.353   3.810   4.569
    1TCM     h1 2717   2.576   3.727   4.590
    1TCM    cl3 2718   2.452   3.548   4.491
    1TCM     c1 2719   1.819   1.761   1.976
    1TCM    cl1 2720   1.882   1.623   2.070
    1TCM    cl2 2721   1.792   1.710   1.808
    1TCM     h1 2722   1.723   1.795   2.021
    1TCM    cl3 2723   1.937   1.894   1.980
    1TCM     c1 2724   4.496   2.499   0.318
    1TCM    cl1 2725   4.655   2.573   0.341
    1TCM    cl2 2726   4.491   2.342   0.403
    1TCM     h1 2727   4.417   2.566   0.360
    1TCM    cl3 2728   4.466   2.473   0.145
    1TCM     c1 2729   3.107   4.609   3.595
    1TCM    cl1 2730   2.946   4.576   3.526
    1TCM    cl2 2731   3.216   4.473   3.557
    1TCM     h1 2732   3.147   4.702   3.551
    1TCM    cl3 2733   3.093   4.627   3.771
    1TCM     c1 2734   5.002   3.897   5.240
    1TCM    cl1 2735   4.871   3.791   5.297
    1TCM    cl2 2736   4.974   4.062   5.300
    1TCM     h1 2737   5.099   3.859   5.279
    1TCM    cl3 2738   5.005   3.897   5.063
    1TCM     c1 2739   1.173   2.673   3.335
    1TCM    cl1 2740   1.055   2.576   3.425
    1TCM    cl2 2741   1.147   2.651   3.160
    1TCM     h1 2742   1.161   2.780   3.361
    1TCM    cl3 2743   1.338   2.619   3.377
    1TCM     c1 2744   3.358   4.592   4.682
    1TCM    cl1 2745   3.475   4.648   4.561
    1TCM    cl2 2746   3.337   4.717   4.806
    1TCM     h1 2747   3.260   4.573   4.632
    1TCM    cl3 2748   3.417   4.442   4.757
    1TCM     c1 2749   0.131   3.550   3.576
    1TCM    cl1 2750   0.257   3.566   3.452
    1TCM    cl2 2751  -0.000   3.447   3.514
    1TCM     h1 2752   0.174   3.505   3.667
    1TCM    cl3 2753   0.065   3.711   3.615
    1TCM     c1 2754   2.484   4.840   3.271
    1TCM    cl1 2755   2.648   4.816   3.335
    1TCM    cl2 2756   2.369   4.853   3.406
    1TCM     h1 2757   2.481   4.934   3.211
    1TCM    cl3 2758   2.440   4.702   3.168
    1TCM     c1 2759   5.002   2.731   4.194
    1TCM    cl1 2760   5.172   2.781   4.202
    1TCM    cl2 2761   4.898   2.875   4.188
    1TCM     h1 2762   4.985   2.669   4.104
    1TCM    cl3 2763   4.962   2.636   4.339
    1TCM     c1 2764   2.831   2.327   3.498
    1TCM    cl1 2765   2.658   2.358   3.525
    1TCM    cl2 2766   2.873   2.366   3.330
    1TCM     h1 2767   2.891   2.389   3.567
    1TCM    cl3 2768   2.865   2.155   3.528
    1TCM     c1 2769   1.997   0.878   3.961
    1TCM    cl1 2770   2.018   0.821   4.128
    1TCM    cl2 2771   1.971   1.054   3.962
    1TCM     h1 2772   2.088   0.854   3.902
    1TCM    cl3 2773   1.856   0.798   3.888
    1TCM     c1 2774   0.911   0.379   0.869
    1TCM    cl1 2775   0.890   0.538   0.946
    1TCM    cl2 2776   0.931   0.400   0.693
    1TCM     h1 2777   1.001   0.329   0.911
    1TCM    cl3 2778   0.768   0.278   0.900
    1TCM     c1 2779   4.154   1.434   3.656
    1TCM    cl1 2780   4.052   1.579   3.661
    1TCM    cl2 2781   4.182   1.375   3.821
    1TCM     h1 2782   4.103   1.355   3.597
    1TCM    cl3 2783   4.310   1.473   3.579
    1TCM     c1 2784   3.259   4.973   3.368
    1TCM    cl1 2785   3.422   4.990   3.436
    1TCM    cl2 2786   3.148   4.915   3.495
    1TCM     h1 2787   3.224   5.071   3.331
    1TCM    cl3 2788   3.262   4.855   3.235
    1TCM     c1 2789   2.092   2.583   3.091
    1TCM    cl1 2790   2.090   2.478   2.948
    1TCM    cl2 2791   1.949   2.690   3.088
    1TCM     h1 2792   2.089   2.520   3.183
    1TCM    cl3 2793   2.240   2.682   3.091
    1TCM     c1 2794   1.470   0.735   5.257
    1TCM    cl1 2795   1.495   0.900   5.319
    1TCM    cl2 2796   1.437   0.742   5.082
    1TCM     h1 2797   1.561   0.674   5.275
    1TCM    cl3 2798   1.332   0.660   5.340
    1TCM     c1 2799   2.301   4.372   4.354
    1TCM    cl1 2800   2.190   4.497   4.292
    1TCM    cl2 2801   2.251   4.325   4.518
    1TCM     h1 2802   2.298   4.283   4.288
    1TCM    cl3 2803   2.467   4.437   4.359
    1TCM     c1 2804   0.786   3.739   5.078
    1TCM    cl1 2805   0.790   3.882   4.974
    1TCM    cl2 2806   0.617   3.694   5.111
    1TCM     h1 2807   0.837   3.654   5.028
    1TCM    cl3 2808   0.868   3.774   5.232
    1TCM     c1 2809   5.094   3.055   1.872
    1TCM    cl1 2810   5.078   3.197   1.767
    1TCM    cl2 2811   5.088   3.105   2.043
    1TCM     h1 2812   5.011   2.984   1.851
    1TCM    cl3 2813   5.250   2.975   1.840
    1TCM     c1 2814   3.350   1.217   3.621
    1TCM    cl1 2815   3.404   1.359   3.712
    1TCM    cl2 2816   3.391   1.237   3.449
    1TCM     h1 2817   3.400   1.126   3.660
    1TCM    cl3 2818   3.174   1.199   3.638
    1TCM     c1 2819   0.077   1.324   1.829
    1TCM    cl1 2820   0.252   1.290   1.842
    1TCM    cl2 2821   0.005   1.320   1.992
    1TCM     h1 2822   0.062   1.424   1.785
    1TCM    cl3 2823   0.000   1.201   1.727
    1TCM     c1 2824   1.529   0.099   1.312
    1TCM    cl1 2825   1.398   0.016   1.225
    1TCM    cl2 2826   1.685   0.056   1.239
    1TCM     h1 2827   1.514   0.208   1.306
    1TCM    cl3 2828   1.528   0.049   1.483
    1TCM     c1 2829   2.779   2.962   3.879
    1TCM    cl1 2830   2.828   2.813   3.964
    1TCM    cl2 2831   2.923   3.044   3.816
    1TCM     h1 2832   2.711   2.936   3.795
    1TCM    cl3 2833   2.694   3.070   3.992
    1TCM     c1 2834   5.137   3.304   1.219
    1TCM    cl1 2835   5.201   3.431   1.112
    1TCM    cl2 2836   5.024   3.376   1.336
    1TCM     h1 2837   5.084   3.228   1.158
    1TCM    cl3 2838   5.272   3.227   1.306
    1TCM     c1 2839   1.889   0.289   0.188
    1TCM    cl1 2840   1.757   0.170   0.197
    1TCM    cl2 2841   2.014   0.229   0.076
    1TCM     h1 2842   1.849   0.385   0.150
    1TCM    cl3 2843   1.959   0.313   0.349
    1TCM     c1 2844   1.049   1.984   3.111
    1TCM    cl1 2845   1.079   1.831   3.026
    1TCM    cl2 2846   1.181   2.016   3.225
    1TCM     h1 2847   1.043   2.067   3.037
    1TCM    cl3 2848   0.895   1.973   3.200
    1TCM     c1 2849   2.676   3.869   2.487
    1TCM    cl1 2850   2.826   3.823   2.404
    1TCM    cl2 2851   2.712   3.995   2.608
    1TCM     h1 2852   2.603   3.908   2.414
    1TCM    cl3 2853   2.607   3.727   2.569
    1TCM     c1 2854   1.510   0.614   2.924
    1TCM    cl1 2855   1.440   0.752   2.836
    1TCM    cl2 2856   1.470   0.627   3.097
    1TCM     h1 2857   1.469   0.520   2.883
    1TCM    cl3 2858   1.687   0.615   2.903
    1TCM     c1 2859   5.127   5.025   2.856
    1TCM    cl1 2860   5.040   4.876   2.816
    1TCM    cl2 2861   5.166   5.027   3.030
    1TCM     h1 2862   5.221   5.030   2.797
    1TCM    cl3 2863   5.025   5.166   2.817
    1TCM     c1 2864   2.608   3.890   3.213
    1TCM    cl1 2865   2.487   3.964   3.320
    1TCM    cl2 2866   2.622   3.987   3.064
    1TCM     h1 2867   2.706   3.887   3.264
    1TCM    cl3 2868   2.558   3.725   3.171
    1TCM     c1 2869   5.117   4.992   0.209
    1TCM    cl1 2870   4.941   5.017   0.218
    1TCM    cl2 2871   5.164   4.958   0.041
    1TCM     h1 2872   5.169   5.083   0.245
    1TCM    cl3 2873   5.162   4.853   0.312
    1TCM     c1 2874   1.541   4.067   5.168
    1TCM    cl1 2875   1.392   4.052   5.072
    1TCM    cl2 2876   1.631   3.914   5.161
    1TCM     h1 2877   1.604   4.148   5.126
    1TCM    cl3 2878   1.500   4.105   5.336
    1TCM     c1 2879   0.451   2.035   3.478
    1TCM    cl1 2880   0.350   2.117   3.356
    1TCM    cl2 2881   0.386   1.872   3.508
    1TCM     h1 2882   0.555   2.028   3.441
    1TCM    cl3 2883   0.448   2.129   3.630
    1TCM     c1 2884   4.655   0.456   4.867
    1TCM    cl1 2885   4.672   0.442   5.044
    1TCM    cl2 2886   4.656   0.627   4.821
    1TCM     h1 2887   4.739   0.403   4.817
    1TCM    cl3 2888   4.501   0.382   4.817
    1TCM     c1 2889   4.346   2.425   2.467
    1TCM    cl1 2890   4.261   2.287   2.539
    1TCM    cl2 2891   4.478   2.477   2.575
    1TCM     h1 2892   4.389   2.395   2.369
    1TCM    cl3 2893   4.233   2.559   2.443
    1TCM     c1 2894   3.494   4.729   1.651
    1TCM    cl1 2895   3.507   4.563   1.713
    1TCM    cl2 2896   3.568   4.737   1.489
    1TCM     h1 2897   3.387   4.757   1.644
    1TCM    cl3 2898   3.579   4.840   1.760
    1TCM     c1 2899   5.218   5.185   0.756
    1TCM    cl1 2900   5.270   5.339   0.827
    1TCM    cl2 2901   5.041   5.184   0.738
    1TCM     h1 2902   5.266   5.172   0.656
    1TCM    cl3 2903   5.268   5.051   0.862
    1TCM     c1 2904   3.976   5.149   0.254
    1TCM    cl1 2905   4.020   5.089   0.416
    1TCM    cl2 2906   4.123   5.187   0.163
    1TCM     h1 2907   3.918   5.070   0.200
    1TCM    cl3 2908   3.876   5.295   0.271
    1TCM     c1 2909   0.695   5.234   2.419
    1TCM    cl1 2910   0.596   5.340   2.522
    1TCM    cl2 2911   0.660   5.270   2.248
    1TCM     h1 2912   0.802   5.252   2.439
    1TCM    cl3 2913   0.655   5.064   2.453
    1TCM     c1 2914   2.880   5.160   4.393
    1TCM    cl1 2915   2.801   5.265   4.273
    1TCM    cl2 2916   2.981   5.040   4.309
    1TCM     h1 2917   2.944   5.222   4.460
    1TCM    cl3 2918   2.756   5.077   4.489
    1TCM     c1 2919   4.419   4.188   1.833
    1TCM    cl1 2920   4.281   4.162   1.724
    1TCM    cl2 2921   4.360   4.207   2.000
    1TCM     h1 2922   4.487   4.101   1.828
    1TCM    cl3 2923   4.506   4.335   1.784
    1TCM     c1 2924   3.250   3.706   4.874
    1TCM    cl1 2925   3.337   3.672   5.025
    1TCM    cl2 2926   3.328   3.620   4.740
    1TCM     h1 2927   3.145   3.671   4.884
    1TCM    cl3 2928   3.251   3.881   4.842
    1TCM     c1 2929   2.770   0.539   4.346
    1TCM    cl1 2930   2.674   0.536   4.496
    1TCM    cl2 2931   2.713   0.411   4.237
    1TCM     h1 2932   2.758   0.638   4.297
    1TCM    cl3 2933   2.942   0.513   4.385
    1TCM     c1 2934   3.385   3.342   1.812
    1TCM    cl1 2935   3.399   3.496   1.725
    1TCM    cl2 2936   3.337   3.373   1.981
    1TCM     h1 2937   3.309   3.278   1.763
    1TCM    cl3 2938   3.543   3.259   1.810
    1TCM     c1 2939   0.171   3.111   3.452
    1TCM    cl1 2940   0.251   3.076   3.297
    1TCM    cl2 2941   0.288   3.091   3.585
    1TCM     h1 2942   0.133   3.215   3.452
    1TCM    cl3 2943   0.035   2.998   3.475
    1TCM     c1 2944   1.511   3.841   3.102
    1TCM    cl1 2945   1.601   3.869   3.252
    1TCM    cl2 2946   1.515   3.988   3.001
    1TCM     h1 2947   1.557   3.757   3.046
    1TCM    cl3 2948   1.342   3.801   3.141
    1TCM     c1 2949   2.836   4.212   1.754
    1TCM    cl1 2950   2.693   4.107   1.735
    1TCM    cl2 2951   2.886   4.214   1.924
    1TCM     h1 2952   2.919   4.173   1.691
    1TCM    cl3 2953   2.795   4.377   1.702
    1TCM     c1 2954   5.144   1.663   2.951
    1TCM    cl1 2955   5.091   1.657   2.781
    1TCM    cl2 2956   5.320   1.684   2.958
    1TCM     h1 2957   5.095   1.749   3.001
    1TCM    cl3 2958   5.098   1.513   3.033
    1TCM     c1 2959   4.461   3.410   2.921
    1TCM    cl1 2960   4.292   3.428   2.867
    1TCM    cl2 2961   4.464   3.342   3.086
    1TCM     h1 2962   4.515   3.342   2.852
    1TCM    cl3 2963   4.540   3.569   2.921
    1TCM     c1 2964   2.704   4.905   2.645
    1TCM    cl1 2965   2.836   4.786   2.636
    1TCM    cl2 2966   2.718   4.999   2.795
    1TCM     h1 2967   2.711   4.974   2.558
    1TCM    cl3 2968   2.548   4.820   2.641
    1TCM     c1 2969   3.022   3.345   2.410
    1TCM    cl1 2970   3.179   3.414   2.455
    1TCM    cl2 2971   2.968   3.416   2.256
    1TCM     h1 2972   3.032   3.235   2.399
    1TCM    cl3 2973   2.903   3.381   2.537
    1TCM     c1 2974   1.918   3.510   4.155
    1TCM    cl1 2975   1.903   3.655   4.052
    1TCM    cl2 2976   1.943   3.559   4.324
    1TCM     h1 2977   1.825   3.450   4.147
    1TCM    cl3 2978   2.056   3.412   4.100
    1TCM     c1 2979   4.917   1.944   0.563
    1TCM    cl1 2980   4.976   1.875   0.410
    1TCM    cl2 2981   4.762   1.867   0.607
    1TCM     h1 2982   4.991   1.925   0.643
    1TCM    cl3 2983   4.893   2.119   0.544
    1TCM     c1 2984   2.053   3.166   2.121
    1TCM    cl1 2985   2.172   3.247   2.225
    1TCM    cl2 2986   2.121   3.143   1.959
    1TCM     h1 2987   2.027   3.067   2.165
    1TCM    cl3 2988   1.906   3.266   2.111
    1TCM     c1 2989   1.993   0.950   4.969
    1TCM    cl1 2990   2.042   1.117   4.935
    1TCM    cl2 2991   2.112   0.838   4.899
    1TCM     h1 2992   1.987   0.934   5.078
    1TCM    cl3 2993   1.834   0.919   4.896
    1TCM     c1 2994   0.323   5.096   4.006
    1TCM    cl1 2995   0.446   5.163   4.115
    1TCM    cl2 2996   0.350   5.157   3.841
    1TCM     h1 2997   0.329   4.986   4.006
    1TCM    cl3 2998   0.161   5.146   4.061
    1TCM     c1 2999   1.661   4.496   1.725
    1TCM    cl1 3000   1.652   4.630   1.609
    1TCM    cl2 3001   1.828   4.479   1.784
    1TCM     h1 3002   1.593   4.516   1.810
    1TCM    cl3 3003   1.611   4.345   1.645
    1TCM     c1 3004   4.901   1.008   4.251
    1TCM    cl1 3005   4.827   0.881   4.352
    1TCM    cl2 3006   4.842   0.992   4.084
    1TCM     h1 3007   4.873   1.108   4.291
    1TCM    cl3 3008   5.077   0.990   4.254
    1TCM     c1 3009   2.216   5.281   3.920
    1TCM    cl1 3010   2.299   5.340   4.066
    1TCM    cl2 3011   2.301   5.340   3.775
    1TCM     h1 3012   2.216   5.170   3.920
    1TCM    cl3 3013   2.048   5.340   3.919
    1TCM     c1 3014   2.636   4.391   1.403
    1TCM    cl1 3015   2.563   4.543   1.458
    1TCM    cl2 3016   2.613   4.374   1.228
    1TCM     h1 3017   2.744   4.392   1.426
    1TCM    cl3 3018   2.558   4.254   1.486
    1TCM     c1 3019   1.645   0.893   4.016
    1TCM    cl1 3020   1.768   0.822   4.122
    1TCM    cl2 3021   1.687   1.062   3.982
    1TCM     h1 3022   1.640   0.836   3.921
    1TCM    cl3 3023   1.486   0.887   4.097
    1TCM     c1 3024   2.616   2.742   2.862
    1TCM    cl1 3025   2.522   2.634   2.757
    1TCM    cl2 3026   2.614   2.680   3.029
    1TCM     h1 3027   2.721   2.747   2.826
    1TCM    cl3 3028   2.544   2.905   2.859
    1TCM     c1 3029   1.991   3.194   3.478
    1TCM    cl1 3030   1.963   3.173   3.304
    1TCM    cl2 3031   2.034   3.364   3.510
    1TCM     h1 3032   1.899   3.168   3.534
    1TCM    cl3 3033   2.125   3.089   3.530
    1TCM     c1 3034   3.877   4.294   3.004
    1TCM    cl1 3035   3.787   4.386   3.126
    1TCM    cl2 3036   3.885   4.387   2.852
    1TCM     h1 3037   3.980   4.275   3.040
    1TCM    cl3 3038   3.795   4.139   2.974
    1TCM     c1 3039   2.736   5.181   0.549
    1TCM    cl1 3040   2.852   5.257   0.438
    1TCM    cl2 3041   2.577   5.259   0.533
    1TCM     h1 3042   2.727   5.073   0.525
    1TCM    cl3 3043   2.794   5.199   0.716
    1TCM     c1 3044   1.651   3.808   4.112
    1TCM    cl1 3045   1.773   3.937   4.104
    1TCM    cl2 3046   1.699   3.690   4.236
    1TCM     h1 3047   1.553   3.852   4.138
    1TCM    cl3 3048   1.640   3.727   3.954
    1TCM     c1 3049   1.985   2.449   1.437
    1TCM    cl1 3050   1.842   2.345   1.455
    1TCM    cl2 3051   2.002   2.553   1.580
    1TCM     h1 3052   2.076   2.386   1.426
    1TCM    cl3 3053   1.967   2.550   1.292
    1TCM     c1 3054   3.056   0.115   3.842
    1TCM    cl1 3055   3.194   0.027   3.911
    1TCM    cl2 3056   2.976   0.208   3.971
    1TCM     h1 3057   3.091   0.185   3.763
    1TCM    cl3 3058   2.940   0.000   3.772
    1TCM     c1 3059   2.128   1.298   2.082
    1TCM    cl1 3060   2.122   1.438   2.191
    1TCM    cl2 3061   2.008   1.319   1.953
    1TCM     h1 3062   2.229   1.290   2.037
    1TCM    cl3 3063   2.092   1.149   2.173
    1TCM     c1 3064   1.491   2.088   2.078
    1TCM    cl1 3065   1.609   1.969   2.139
    1TCM    cl2 3066   1.359   2.106   2.195
    1TCM     h1 3067   1.542   2.186   2.063
    1TCM    cl3 3068   1.426   2.032   1.922
    1TCM     c1 3069   3.611   2.506   4.372
    1TCM    cl1 3070   3.691   2.660   4.409
    1TCM    cl2 3071   3.731   2.388   4.315
    1TCM     h1 3072   3.561   2.467   4.463
    1TCM    cl3 3073   3.489   2.532   4.245
    1TCM     c1 3074   0.781   0.441   1.992
    1TCM    cl1 3075   0.642   0.399   1.890
    1TCM    cl2 3076   0.743   0.401   2.162
    1TCM     h1 3077   0.870   0.384   1.960
    1TCM    cl3 3078   0.813   0.615   1.979
    1TCM     c1 3079   0.082   2.887   3.896
    1TCM    cl1 3080   0.218   3.001   3.912
    1TCM    cl2 3081   0.023   2.843   4.058
    1TCM     h1 3082   0.001   2.935   3.838
    1TCM    cl3 3083   0.137   2.740   3.812
    1TCM     c1 3084   4.296   4.861   0.793
    1TCM    cl1 3085   4.327   4.861   0.968
    1TCM    cl2 3086   4.333   5.022   0.727
    1TCM     h1 3087   4.360   4.785   0.744
    1TCM    cl3 3088   4.125   4.823   0.763
    1TCM     c1 3089   0.276   4.324   1.082
    1TCM    cl1 3090   0.275   4.148   1.054
    1TCM    cl2 3091   0.122   4.394   1.028
    1TCM     h1 3092   0.290   4.344   1.191
    1TCM    cl3 3093   0.410   4.397   0.991
    1TCM     c1 3094   1.216   2.235   4.769
    1TCM    cl1 3095   1.076   2.131   4.734
    1TCM    cl2 3096   1.183   2.330   4.915
    1TCM     h1 3097   1.306   2.172   4.785
    1TCM    cl3 3098   1.244   2.344   4.632
    1TCM     c1 3099   0.595   4.077   1.312
    1TCM    cl1 3100   0.516   4.129   1.162
    1TCM    cl2 3101   0.558   4.193   1.442
    1TCM     h1 3102   0.557   3.977   1.341
    1TCM    cl3 3103   0.771   4.069   1.288
    1TCM     c1 3104   1.544   3.850   0.428
    1TCM    cl1 3105   1.532   3.697   0.339
    1TCM    cl2 3106   1.710   3.868   0.492
    1TCM     h1 3107   1.522   3.934   0.360
    1TCM    cl3 3108   1.429   3.850   0.563
    1TCM     c1 3109   3.187   1.840   2.514
    1TCM    cl1 3110   3.138   1.916   2.360
    1TCM    cl2 3111   3.044   1.772   2.594
    1TCM     h1 3112   3.260   1.760   2.494
    1TCM    cl3 3113   3.260   1.964   2.619
    1TCM     c1 3114   1.924   2.760   2.520
    1TCM    cl1 3115   2.061   2.746   2.633
    1TCM    cl2 3116   1.773   2.722   2.606
    1TCM     h1 3117   1.919   2.863   2.481
    1TCM    cl3 3118   1.947   2.646   2.386
    1TCM     c1 3119   3.415   5.128   2.095
    1TCM    cl1 3120   3.350   5.246   1.979
    1TCM    cl2 3121   3.281   5.043   2.175
    1TCM     h1 3122   3.479   5.055   2.041
    1TCM    cl3 3123   3.512   5.213   2.217
    1TCM     c1 3124   1.038   2.526   4.450
    1TCM    cl1 3125   1.143   2.654   4.517
    1TCM    cl2 3126   1.128   2.436   4.325
    1TCM     h1 3127   1.008   2.457   4.530
    1TCM    cl3 3128   0.894   2.600   4.377
    1TCM     c1 3129   4.590   3.909   4.945
    1TCM    cl1 3130   4.670   3.778   5.033
    1TCM    cl2 3131   4.644   3.910   4.776
    1TCM     h1 3132   4.480   3.895   4.949
    1TCM    cl3 3133   4.631   4.065   5.021
    1TCM     c1 3134   4.922   1.881   4.163
    1TCM    cl1 3135   5.088   1.822   4.184
    1TCM    cl2 3136   4.871   1.856   3.994
    1TCM     h1 3137   4.854   1.825   4.231
    1TCM    cl3 3138   4.915   2.054   4.202
    1TCM     c1 3139   4.093   2.320   2.898
    1TCM    cl1 3140   4.037   2.155   2.932
    1TCM    cl2 3141   3.952   2.424   2.867
    1TCM     h1 3142   4.149   2.359   2.985
    1TCM    cl3 3143   4.198   2.319   2.754
    1TCM     c1 3144   1.468   2.830   5.168
    1TCM    cl1 3145   1.451   2.999   5.221
    1TCM    cl2 3146   1.312   2.747   5.185
    1TCM     h1 3147   1.501   2.827   5.063
    1TCM    cl3 3148   1.589   2.749   5.270
    1TCM     c1 3149   3.662   2.149   3.128
    1TCM    cl1 3150   3.500   2.219   3.108
    1TCM    cl2 3151   3.720   2.183   3.293
    1TCM     h1 3152   3.657   2.039   3.113
    1TCM    cl3 3153   3.773   2.222   3.010
    1TCM     c1 3154   2.820   4.963   0.976
    1TCM    cl1 3155   2.816   5.141   0.984
    1TCM    cl2 3156   2.654   4.901   0.965
    1TCM     h1 3157   2.877   4.931   0.887
    1TCM    cl3 3158   2.898   4.899   1.123
    1TCM     c1 3159   1.659   3.847   0.888
    1TCM    cl1 3160   1.822   3.793   0.934
    1TCM    cl2 3161   1.620   3.786   0.726
    1TCM     h1 3162   1.585   3.808   0.961
    1TCM    cl3 3163   1.654   4.024   0.888
    1TCM     c1 3164   5.073   3.221   5.124
    1TCM    cl1 3165   5.005   3.344   5.234
    1TCM    cl2 3166   4.958   3.087   5.107
    1TCM     h1 3167   5.092   3.267   5.025
    1TCM    cl3 3168   5.226   3.160   5.191
    1TCM     c1 3169   2.922   5.038   3.110
    1TCM    cl1 3170   3.093   5.071   3.146
    1TCM    cl2 3171   2.903   5.009   2.935
    1TCM     h1 3172   2.889   4.948   3.166
    1TCM    cl3 3173   2.822   5.177   3.158
    1TCM     c1 3174   4.818   3.850   3.638
    1TCM    cl1 3175   4.710   3.842   3.779
    1TCM    cl2 3176   4.723   3.885   3.492
    1TCM     h1 3177   4.893   3.930   3.653
    1TCM    cl3 3178   4.901   3.694   3.619
    1TCM     c1 3179   1.712   0.836   3.178
    1TCM    cl1 3180   1.840   0.744   3.260
    1TCM    cl2 3181   1.729   1.009   3.217
    1TCM     h1 3182   1.720   0.822   3.069
    1TCM    cl3 3183   1.553   0.779   3.233
    1TCM     c1 3184   3.306   2.742   4.570
    1TCM    cl1 3185   3.262   2.911   4.605
    1TCM    cl2 3186   3.302   2.716   4.394
    1TCM     h1 3187   3.407   2.721   4.608
    1TCM    cl3 3188   3.189   2.633   4.648
    1TCM     c1 3189   2.387   4.216   0.584
    1TCM    cl1 3190   2.251   4.172   0.477
    1TCM    cl2 3191   2.345   4.177   0.752
    1TCM     h1 3192   2.477   4.159   0.554
    1TCM    cl3 3193   2.418   4.390   0.570
    1TCM     c1 3194   1.945   2.622   3.796
    1TCM    cl1 3195   1.849   2.484   3.740
    1TCM    cl2 3196   1.913   2.652   3.968
    1TCM     h1 3197   2.053   2.601   3.782
    1TCM    cl3 3198   1.901   2.767   3.702
    1TCM     c1 3199   2.401   1.797   4.156
    1TCM    cl1 3200   2.476   1.753   4.311
    1TCM    cl2 3201   2.256   1.897   4.187
    1TCM     h1 3202   2.473   1.855   4.095
    1TCM    cl3 3203   2.353   1.650   4.069
    1TCM     c1 3204   1.205   0.951   2.698
    1TCM    cl1 3205   1.381   0.931   2.681
    1TCM    cl2 3206   1.139   1.020   2.548
    1TCM     h1 3207   1.158   0.852   2.717
    1TCM    cl3 3208   1.171   1.060   2.834
    1TCM     c1 3209   2.842   4.399   5.141
    1TCM    cl1 3210   2.862   4.283   5.274
    1TCM    cl2 3211   2.689   4.367   5.056
    1TCM     h1 3212   2.841   4.503   5.181
    1TCM    cl3 3213   2.977   4.382   5.027
    1TCM     c1 3214   2.272   4.490   1.640
    1TCM    cl1 3215   2.271   4.629   1.750
    1TCM    cl2 3216   2.278   4.548   1.472
    1TCM     h1 3217   2.361   4.427   1.660
    1TCM    cl3 3218   2.124   4.394   1.663
    1TCM     c1 3219   0.905   2.460   5.137
    1TCM    cl1 3220   0.824   2.368   5.265
    1TCM    cl2 3221   0.962   2.348   5.011
    1TCM     h1 3222   0.834   2.533   5.092
    1TCM    cl3 3223   1.044   2.548   5.205
    1TCM     c1 3224   1.642   1.072   1.940
    1TCM    cl1 3225   1.551   1.080   1.787
    1TCM    cl2 3226   1.630   0.907   2.007
    1TCM     h1 3227   1.748   1.097   1.922
    1TCM    cl3 3228   1.573   1.188   2.056
    1TCM     c1 3229   0.457   3.632   3.692
    1TCM    cl1 3230   0.299   3.685   3.753
    1TCM    cl2 3231   0.463   3.655   3.516
    1TCM     h1 3232   0.537   3.691   3.740
    1TCM    cl3 3233   0.480   3.460   3.730
    1TCM     c1 3234   5.165   2.883   4.577
    1TCM    cl1 3235   5.054   2.868   4.439
    1TCM    cl2 3236   5.249   2.728   4.603
    1TCM     h1 3237   5.239   2.963   4.557
    1TCM    cl3 3238   5.072   2.924   4.723
    1TCM     c1 3239   0.256   0.064   3.757
    1TCM    cl1 3240   0.387   0.003   3.861
    1TCM    cl2 3241   0.277   0.001   3.592
    1TCM     h1 3242   0.158   0.031   3.797
    1TCM    cl3 3243   0.261   0.242   3.754
    1TCM     c1 3244   3.256   4.026   1.560
    1TCM    cl1 3245   3.377   4.155   1.578
    1TCM    cl2 3246   3.300   3.888   1.663
    1TCM     h1 3247   3.156   4.065   1.590
    1TCM    cl3 3248   3.250   3.973   1.390
    1TCM     c1 3249   4.672   4.330   3.839
    1TCM    cl1 3250   4.606   4.475   3.918
    1TCM    cl2 3251   4.770   4.238   3.956
    1TCM     h1 3252   4.588   4.266   3.803
    1TCM    cl3 3253   4.773   4.378   3.701
    1TCM     c1 3254   0.974   3.699   0.398
    1TCM    cl1 3255   1.031   3.592   0.528
    1TCM    cl2 3256   0.987   3.616   0.242
    1TCM     h1 3257   0.868   3.726   0.417
    1TCM    cl3 3258   1.073   3.847   0.395
    1TCM     c1 3259   5.131   2.333   5.097
    1TCM    cl1 3260   5.064   2.266   5.248
    1TCM    cl2 3261   5.308   2.347   5.112
    1TCM     h1 3262   5.107   2.266   5.012
    1TCM    cl3 3263   5.062   2.494   5.069
    1TCM     c1 3264   0.999   5.030   2.503
    1TCM    cl1 3265   0.995   5.141   2.642
    1TCM    cl2 3266   1.035   5.121   2.355
    1TCM     h1 3267   1.077   4.953   2.519
    1TCM    cl3 3268   0.841   4.950   2.487
    1TCM     c1 3269   1.035   1.250   4.222
    1TCM    cl1 3270   0.931   1.332   4.340
    1TCM    cl2 3271   0.986   1.298   4.057
    1TCM     h1 3272   1.141   1.280   4.239
    1TCM    cl3 3273   1.018   1.074   4.240
    1TCM     c1 3274   3.915   2.700   4.212
    1TCM    cl1 3275   3.793   2.628   4.104
    1TCM    cl2 3276   3.910   2.619   4.370
    1TCM     h1 3277   4.016   2.688   4.167
    1TCM    cl3 3278   3.880   2.873   4.233
    1TCM     c1 3279   2.323   3.526   5.206
    1TCM    cl1 3280   2.455   3.421   5.148
    1TCM    cl2 3281   2.172   3.482   5.123
    1TCM     h1 3282   2.311   3.513   5.315
    1TCM    cl3 3283   2.363   3.696   5.171
    1TCM     c1 3284   1.288   0.571   1.003
    1TCM    cl1 3285   1.299   0.507   0.837
    1TCM    cl2 3286   1.273   0.748   0.997
    1TCM     h1 3287   1.200   0.528   1.054
    1TCM    cl3 3288   1.436   0.528   1.092
    1TCM     c1 3289   0.411   3.668   0.563
    1TCM    cl1 3290   0.473   3.653   0.397
    1TCM    cl2 3291   0.406   3.507   0.639
    1TCM     h1 3292   0.477   3.735   0.622
    1TCM    cl3 3293   0.247   3.736   0.558
    1TCM     c1 3294   3.205   1.608   3.494
    1TCM    cl1 3295   3.273   1.765   3.447
    1TCM    cl2 3296   3.195   1.503   3.351
    1TCM     h1 3297   3.270   1.561   3.570
    1TCM    cl3 3298   3.042   1.631   3.561
    1TCM     c1 3299   2.743   4.691   0.285
    1TCM    cl1 3300   2.742   4.865   0.248
    1TCM    cl2 3301   2.820   4.603   0.151
    1TCM     h1 3302   2.800   4.674   0.378
    1TCM    cl3 3303   2.576   4.633   0.306
    1TCM     c1 3304   3.768   3.384   3.375
    1TCM    cl1 3305   3.941   3.403   3.340
    1TCM    cl2 3306   3.681   3.533   3.329
    1TCM     h1 3307   3.727   3.299   3.316
    1TCM    cl3 3308   3.745   3.353   3.548
    1TCM     c1 3309   2.986   3.955   0.920
    1TCM    cl1 3310   2.884   4.084   0.853
    1TCM    cl2 3311   2.883   3.820   0.974
    1TCM     h1 3312   3.057   3.920   0.843
    1TCM    cl3 3313   3.077   4.019   1.059
    1TCM     c1 3314   4.498   4.338   1.181
    1TCM    cl1 3315   4.483   4.463   1.055
    1TCM    cl2 3316   4.639   4.235   1.146
    1TCM     h1 3317   4.510   4.386   1.280
    1TCM    cl3 3318   4.351   4.238   1.182
    1TCM     c1 3319   4.541   3.091   0.263
    1TCM    cl1 3320   4.385   3.138   0.335
    1TCM    cl2 3321   4.641   3.010   0.386
    1TCM     h1 3322   4.523   3.021   0.178
    1TCM    cl3 3323   4.626   3.236   0.204
    1TCM     c1 3324   2.893   1.016   2.298
    1TCM    cl1 3325   2.940   0.848   2.265
    1TCM    cl2 3326   2.717   1.034   2.275
    1TCM     h1 3327   2.919   1.042   2.403
    1TCM    cl3 3328   2.979   1.126   2.187
    1TCM     c1 3329   3.451   4.595   2.978
    1TCM    cl1 3330   3.390   4.729   2.878
    1TCM    cl2 3331   3.405   4.621   3.148
    1TCM     h1 3332   3.408   4.499   2.942
    1TCM    cl3 3333   3.628   4.588   2.965
    1TCM     c1 3334   3.711   3.557   3.966
    1TCM    cl1 3335   3.814   3.629   4.092
    1TCM    cl2 3336   3.723   3.380   3.973
    1TCM     h1 3337   3.605   3.588   3.984
    1TCM    cl3 3338   3.763   3.615   3.806
    1TCM     c1 3339   4.171   0.315   0.213
    1TCM    cl1 3340   4.320   0.303   0.310
    1TCM    cl2 3341   4.201   0.248   0.051
    1TCM     h1 3342   4.090   0.257   0.262
    1TCM    cl3 3343   4.122   0.485   0.199
    1TCM     c1 3344   3.061   3.367   3.887
    1TCM    cl1 3345   2.943   3.245   3.941
    1TCM    cl2 3346   3.217   3.288   3.854
    1TCM     h1 3347   3.024   3.416   3.795
    1TCM    cl3 3348   3.082   3.489   4.015
    1TCM     c1 3349   0.601   2.708   1.873
    1TCM    cl1 3350   0.765   2.679   1.811
    1TCM    cl2 3351   0.505   2.559   1.858
    1TCM     h1 3352   0.607   2.737   1.980
    1TCM    cl3 3353   0.525   2.838   1.780
    1TCM     c1 3354   5.194   4.298   3.021
    1TCM    cl1 3355   5.204   4.457   2.942
    1TCM    cl2 3356   5.246   4.312   3.191
    1TCM     h1 3357   5.089   4.261   3.017
    1TCM    cl3 3358   5.300   4.183   2.936
    1TCM     c1 3359   2.338   3.597   1.495
    1TCM    cl1 3360   2.449   3.497   1.399
    1TCM    cl2 3361   2.397   3.606   1.663
    1TCM     h1 3362   2.334   3.699   1.452
    1TCM    cl3 3363   2.176   3.525   1.492
    1TCM     c1 3364   5.076   1.387   2.444
    1TCM    cl1 3365   5.185   1.496   2.355
    1TCM    cl2 3366   5.139   1.220   2.435
    1TCM     h1 3367   5.071   1.419   2.550
    1TCM    cl3 3368   4.914   1.393   2.372
    1TCM     c1 3369   4.193   3.121   3.998
    1TCM    cl1 3370   4.036   3.062   4.058
    1TCM    cl2 3371   4.316   2.994   4.019
    1TCM     h1 3372   4.184   3.147   3.891
    1TCM    cl3 3373   4.242   3.266   4.090
    1TCM     c1 3374   1.605   3.555   3.467
    1TCM    cl1 3375   1.691   3.648   3.342
    1TCM    cl2 3376   1.619   3.381   3.431
    1TCM     h1 3377   1.651   3.576   3.566
    1TCM    cl3 3378   1.434   3.602   3.470
    1TCM     c1 3379   2.525   3.511   2.724
    1TCM    cl1 3380   2.489   3.368   2.625
    1TCM    cl2 3381   2.536   3.464   2.895
    1TCM     h1 3382   2.622   3.555   2.691
    1TCM    cl3 3383   2.396   3.632   2.704
    1TCM     c1 3384   1.891   3.080   0.285
    1TCM    cl1 3385   1.786   2.980   0.388
    1TCM    cl2 3386   1.827   3.081   0.119
    1TCM     h1 3387   1.894   3.183   0.325
    1TCM    cl3 3388   2.056   3.012   0.284
    1TCM     c1 3389   4.823   0.836   2.890
    1TCM    cl1 3390   4.777   0.672   2.937
    1TCM    cl2 3391   4.723   0.888   2.752
    1TCM     h1 3392   4.807   0.905   2.975
    1TCM    cl3 3393   4.995   0.839   2.843
    1TCM     c1 3394   4.871   2.042   1.250
    1TCM    cl1 3395   4.763   2.071   1.112
    1TCM    cl2 3396   4.841   2.166   1.375
    1TCM     h1 3397   4.851   1.942   1.292
    1TCM    cl3 3398   5.040   2.052   1.197
    1TCM     c1 3399   3.140   4.011   0.460
    1TCM    cl1 3400   3.255   3.884   0.506
    1TCM    cl2 3401   3.229   4.153   0.402
    1TCM     h1 3402   3.073   3.974   0.380
    1TCM    cl3 3403   3.042   4.057   0.602
    1TCM     c1 3404   2.676   4.100   3.649
    1TCM    cl1 3405   2.824   4.131   3.742
    1TCM    cl2 3406   2.718   4.064   3.480
    1TCM     h1 3407   2.622   4.013   3.692
    1TCM    cl3 3408   2.571   4.243   3.654
    1TCM     c1 3409   2.088   4.508   2.269
    1TCM    cl1 3410   2.235   4.442   2.344
    1TCM    cl2 3411   1.959   4.518   2.390
    1TCM     h1 3412   2.110   4.609   2.228
    1TCM    cl3 3413   2.037   4.401   2.136
    1TCM     c1 3414   1.552   1.651   0.525
    1TCM    cl1 3415   1.606   1.526   0.640
    1TCM    cl2 3416   1.648   1.640   0.376
    1TCM     h1 3417   1.445   1.635   0.502
    1TCM    cl3 3418   1.573   1.812   0.599
    1TCM     c1 3419   0.272   2.797   4.366
    1TCM    cl1 3420   0.379   2.867   4.242
    1TCM    cl2 3421   0.257   2.622   4.339
    1TCM     h1 3422   0.315   2.815   4.466
    1TCM    cl3 3423   0.112   2.872   4.355
    1TCM     c1 3424   0.531   1.636   4.715
    1TCM    cl1 3425   0.645   1.768   4.676
    1TCM    cl2 3426   0.591   1.545   4.855
    1TCM     h1 3427   0.432   1.679   4.738
    1TCM    cl3 3428   0.518   1.527   4.575
    1TCM     c1 3429   5.089   2.909   0.670
    1TCM    cl1 3430   5.145   2.809   0.806
    1TCM    cl2 3431   5.105   2.817   0.519
    1TCM     h1 3432   4.983   2.936   0.686
    1TCM    cl3 3433   5.188   3.056   0.660
    1TCM     c1 3434   2.204   4.261   4.836
    1TCM    cl1 3435   2.235   4.110   4.926
    1TCM    cl2 3436   2.195   4.397   4.951
    1TCM     h1 3437   2.286   4.279   4.764
    1TCM    cl3 3438   2.050   4.247   4.748
    1TCM     c1 3439   2.679   3.296   3.193
    1TCM    cl1 3440   2.821   3.302   3.299
    1TCM    cl2 3441   2.731   3.261   3.026
    1TCM     h1 3442   2.610   3.217   3.227
    1TCM    cl3 3443   2.596   3.453   3.197
    1TCM     c1 3444   2.991   4.379   0.366
    1TCM    cl1 3445   3.048   4.363   0.534
    1TCM    cl2 3446   3.080   4.510   0.286
    1TCM     h1 3447   3.009   4.284   0.312
    1TCM    cl3 3448   2.818   4.416   0.366
    1TCM     c1 3449   3.459   4.477   0.473
    1TCM    cl1 3450   3.521   4.369   0.346
    1TCM    cl2 3451   3.530   4.432   0.630
    1TCM     h1 3452   3.486   4.582   0.449
    1TCM    cl3 3453   3.282   4.462   0.483
    1TCM     c1 3454   2.401   3.730   1.032
    1TCM    cl1 3455   2.564   3.788   1.075
    1TCM    cl2 3456   2.356   3.594   1.138
    1TCM     h1 3457   2.328   3.813   1.045
    1TCM    cl3 3458   2.401   3.676   0.862
    1TCM     c1 3459   4.085   3.941   3.750
    1TCM    cl1 3460   4.195   3.910   3.614
    1TCM    cl2 3461   4.179   3.985   3.894
    1TCM     h1 3462   4.016   4.024   3.723
    1TCM    cl3 3463   3.990   3.794   3.783
    1TCM     c1 3464   5.219   4.784   4.201
    1TCM    cl1 3465   5.065   4.746   4.121
    1TCM    cl2 3466   5.187   4.843   4.366
    1TCM     h1 3467   5.282   4.693   4.206
    1TCM    cl3 3468   5.304   4.910   4.109
    1TCM     c1 3469   4.183   0.294   3.516
    1TCM    cl1 3470   4.181   0.261   3.690
    1TCM    cl2 3471   4.036   0.383   3.471
    1TCM     h1 3472   4.272   0.355   3.490
    1TCM    cl3 3473   4.189   0.140   3.426
    1TCM     c1 3474   2.531   2.821   3.534
    1TCM    cl1 3475   2.513   2.892   3.372
    1TCM    cl2 3476   2.542   2.951   3.655
    1TCM     h1 3477   2.443   2.757   3.556
    1TCM    cl3 3478   2.678   2.722   3.539
    1TCM     c1 3479   5.027   4.618   2.601
    1TCM    cl1 3480   5.022   4.779   2.524
    1TCM    cl2 3481   5.003   4.636   2.776
    1TCM     h1 3482   4.945   4.555   2.559
    1TCM    cl3 3483   5.184   4.542   2.569
    1TCM     c1 3484   2.408   0.734   2.065
    1TCM    cl1 3485   2.379   0.598   1.954
    1TCM    cl2 3486   2.438   0.671   2.229
    1TCM     h1 3487   2.497   0.791   2.031
    1TCM    cl3 3488   2.266   0.840   2.068
    1TCM     c1 3489   0.270   2.396   3.029
    1TCM    cl1 3490   0.121   2.469   2.966
    1TCM    cl2 3491   0.312   2.253   2.932
    1TCM     h1 3492   0.353   2.470   3.023
    1TCM    cl3 3493   0.246   2.348   3.198
    1TCM     c1 3494   1.099   4.058   1.113
    1TCM    cl1 3495   1.102   4.059   0.935
    1TCM    cl2 3496   1.232   3.957   1.174
    1TCM     h1 3497   1.111   4.162   1.150
    1TCM    cl3 3498   0.944   3.993   1.169
    1TCM     c1 3499   0.988   2.878   5.024
    1TCM    cl1 3500   1.146   2.958   5.018
    1TCM    cl2 3501   1.004   2.721   5.106
    1TCM     h1 3502   0.916   2.941   5.080
    1TCM    cl3 3503   0.928   2.852   4.859
    1TCM     c1 3504   0.692   0.673   0.868
    1TCM    cl1 3505   0.780   0.571   0.752
    1TCM    cl2 3506   0.604   0.569   0.983
    1TCM     h1 3507   0.763   0.737   0.923
    1TCM    cl3 3508   0.575   0.775   0.780
    1TCM     c1 3509   5.030   2.207   3.266
    1TCM    cl1 3510   4.923   2.339   3.319
    1TCM    cl2 3511   5.087   2.239   3.101
    1TCM     h1 3512   5.117   2.200   3.335
    1TCM    cl3 3513   4.940   2.054   3.270
    1TCM     c1 3514   2.508   0.998   3.504
    1TCM    cl1 3515   2.621   1.062   3.383
    1TCM    cl2 3516   2.539   1.076   3.661
    1TCM     h1 3517   2.404   1.019   3.473
    1TCM    cl3 3518   2.531   0.822   3.520
    1TCM     c1 3519   5.128   1.007   2.240
    1TCM    cl1 3520   5.126   1.180   2.200
    1TCM    cl2 3521   5.258   0.927   2.150
    1TCM     h1 3522   5.144   0.994   2.349
    1TCM    cl3 3523   4.971   0.934   2.196
    1TCM     c1 3524   3.936   0.522   4.502
    1TCM    cl1 3525   3.902   0.439   4.655
    1TCM    cl2 3526   3.956   0.697   4.532
    1TCM     h1 3527   4.030   0.482   4.458
    1TCM    cl3 3528   3.801   0.497   4.389
    1TCM     c1 3529   5.110   0.885   5.066
    1TCM    cl1 3530   5.205   0.803   4.940
    1TCM    cl2 3531   5.188   0.861   5.224
    1TCM     h1 3532   5.105   0.994   5.043
    1TCM    cl3 3533   4.946   0.817   5.070
    1TCM     c1 3534   5.224   3.656   4.669
    1TCM    cl1 3535   5.140   3.508   4.720
    1TCM    cl2 3536   5.182   3.789   4.780
    1TCM     h1 3537   5.334   3.639   4.672
    1TCM    cl3 3538   5.174   3.699   4.504
    1TCM     c1 3539   2.005   1.342   3.868
    1TCM    cl1 3540   1.926   1.355   4.027
    1TCM    cl2 3541   1.896   1.260   3.754
    1TCM     h1 3542   2.028   1.444   3.830
    1TCM    cl3 3543   2.156   1.250   3.884
   5.54000   5.54000   5.54000
