[ defaults ]
; nbfunc	comb-rule	gen-pairs	fudgeLJ	fudgeQQ
     1	     2	yes   	0.500000	0.833333

[ atomtypes ]
;type, bondingtype, atomic_number, mass, charge, ptype, sigma, epsilon
em_helix_mom_octamer_0	     6	12.01078	0.0000000000000000	A    	0.3399669508423535	0.4577296
em_helix_mom_octamer_1	     8	15.99943	0.0000000000000000	A    	0.3025106490435313	0.7048581468486769
em_helix_mom_octamer_2	     6	12.01078	0.0000000000000000	A    	0.3480646886945065	0.3635030558377792
em_helix_mom_octamer_3	     6	12.01078	0.0000000000000000	A    	0.3480646886945065	0.3635030558377792
em_helix_mom_octamer_4	     6	12.01078	0.0000000000000000	A    	0.3480646886945065	0.3635030558377792
em_helix_mom_octamer_5	     6	12.01078	0.0000000000000000	A    	0.3480646886945065	0.3635030558377792
em_helix_mom_octamer_6	     6	12.01078	0.0000000000000000	A    	0.3480646886945065	0.3635030558377792
em_helix_mom_octamer_7	     6	12.01078	0.0000000000000000	A    	0.3480646886945065	0.3635030558377792
em_helix_mom_octamer_8	     6	12.01078	0.0000000000000000	A    	0.3480646886945065	0.3635030558377792
em_helix_mom_octamer_9	     6	12.01078	0.0000000000000000	A    	0.3480646886945065	0.3635030558377792
em_helix_mom_octamer_10	     8	15.99943	0.0000000000000000	A    	0.3039812205065809	0.8795023257036865
em_helix_mom_octamer_11	     6	12.01078	0.0000000000000000	A    	0.3480646886945065	0.3635030558377792
em_helix_mom_octamer_12	     6	12.01078	0.0000000000000000	A    	0.3480646886945065	0.3635030558377792
em_helix_mom_octamer_13	     6	12.01078	0.0000000000000000	A    	0.3480646886945065	0.3635030558377792
em_helix_mom_octamer_14	     6	12.01078	0.0000000000000000	A    	0.3480646886945065	0.3635030558377792
em_helix_mom_octamer_15	     6	12.01078	0.0000000000000000	A    	0.3480646886945065	0.3635030558377792
em_helix_mom_octamer_16	     6	12.01078	0.0000000000000000	A    	0.3480646886945065	0.3635030558377792
em_helix_mom_octamer_17	     6	12.01078	0.0000000000000000	A    	0.3480646886945065	0.3635030558377792
em_helix_mom_octamer_18	     6	12.01078	0.0000000000000000	A    	0.3399669508423535	0.4577296
em_helix_mom_octamer_19	     6	12.01078	0.0000000000000000	A    	0.3399669508423535	0.4577296
em_helix_mom_octamer_20	     7	14.00672	0.0000000000000000	A    	0.3206876023663901	0.7016212989374017
em_helix_mom_octamer_21	     6	12.01078	0.0000000000000000	A    	0.3480646886945065	0.3635030558377792
em_helix_mom_octamer_22	     6	12.01078	0.0000000000000000	A    	0.3480646886945065	0.3635030558377792
em_helix_mom_octamer_23	     6	12.01078	0.0000000000000000	A    	0.3480646886945065	0.3635030558377792
em_helix_mom_octamer_24	     6	12.01078	0.0000000000000000	A    	0.3480646886945065	0.3635030558377792
em_helix_mom_octamer_25	     1	1.007947	0.0000000000000000	A    	0.2583225710839196	0.068656285380106
em_helix_mom_octamer_26	     1	1.007947	0.0000000000000000	A    	0.2583225710839196	0.068656285380106
em_helix_mom_octamer_27	     1	1.007947	0.0000000000000000	A    	0.2583225710839196	0.068656285380106
em_helix_mom_octamer_28	     1	1.007947	0.0000000000000000	A    	0.2572581535063279	0.06531785996356952
em_helix_mom_octamer_29	     1	1.007947	0.0000000000000000	A    	0.2572581535063279	0.06531785996356952
em_helix_mom_octamer_30	     1	1.007947	0.0000000000000000	A    	0.2572581535063279	0.06531785996356952
em_helix_mom_octamer_31	     1	1.007947	0.0000000000000000	A    	0.2572581535063279	0.06531785996356952
em_helix_mom_octamer_32	     1	1.007947	0.0000000000000000	A    	0.2572581535063279	0.06531785996356952
em_helix_mom_octamer_33	     1	1.007947	0.0000000000000000	A    	0.2572581535063279	0.06531785996356952
em_helix_mom_octamer_34	     1	1.007947	0.0000000000000000	A    	0.2572581535063279	0.06531785996356952
em_helix_mom_octamer_35	     1	1.007947	0.0000000000000000	A    	0.2583225710839196	0.068656285380106
em_helix_mom_octamer_36	     1	1.007947	0.0000000000000000	A    	0.2644543413268124	0.06602135607582665
em_helix_mom_octamer_37	     1	1.007947	0.0000000000000000	A    	0.2644543413268124	0.06602135607582665
em_helix_mom_octamer_38	     1	1.007947	0.0000000000000000	A    	0.2644543413268124	0.06602135607582665
em_helix_mom_octamer_39	     1	1.007947	0.0000000000000000	A    	0.1103427677297317	0.05895596890015097
em_helix_mom_octamer_40	     1	1.007947	0.0000000000000000	A    	0.2572581535063279	0.06531785996356952
em_helix_mom_octamer_41	     1	1.007947	0.0000000000000000	A    	0.2572581535063279	0.06531785996356952
em_helix_mom_octamer_42	     1	1.007947	0.0000000000000000	A    	0.2572581535063279	0.06531785996356952
em_helix_mom_octamer_43	     1	1.007947	0.0000000000000000	A    	0.2572581535063279	0.06531785996356952
em_helix_mom_octamer_44	     6	12.01078	0.0000000000000000	A    	0.3399669508423535	0.4577296
em_helix_mom_octamer_45	     8	15.99943	0.0000000000000000	A    	0.3025106490435313	0.7048581468486769
em_helix_mom_octamer_46	     6	12.01078	0.0000000000000000	A    	0.3480646886945065	0.3635030558377792
em_helix_mom_octamer_47	     6	12.01078	0.0000000000000000	A    	0.3480646886945065	0.3635030558377792
em_helix_mom_octamer_48	     6	12.01078	0.0000000000000000	A    	0.3480646886945065	0.3635030558377792
em_helix_mom_octamer_49	     6	12.01078	0.0000000000000000	A    	0.3480646886945065	0.3635030558377792
em_helix_mom_octamer_50	     6	12.01078	0.0000000000000000	A    	0.3480646886945065	0.3635030558377792
em_helix_mom_octamer_51	     6	12.01078	0.0000000000000000	A    	0.3480646886945065	0.3635030558377792
em_helix_mom_octamer_52	     6	12.01078	0.0000000000000000	A    	0.3480646886945065	0.3635030558377792
em_helix_mom_octamer_53	     6	12.01078	0.0000000000000000	A    	0.3480646886945065	0.3635030558377792
em_helix_mom_octamer_54	     8	15.99943	0.0000000000000000	A    	0.3039812205065809	0.8795023257036865
em_helix_mom_octamer_55	     6	12.01078	0.0000000000000000	A    	0.3480646886945065	0.3635030558377792
em_helix_mom_octamer_56	     6	12.01078	0.0000000000000000	A    	0.3480646886945065	0.3635030558377792
em_helix_mom_octamer_57	     6	12.01078	0.0000000000000000	A    	0.3480646886945065	0.3635030558377792
em_helix_mom_octamer_58	     6	12.01078	0.0000000000000000	A    	0.3480646886945065	0.3635030558377792
em_helix_mom_octamer_59	     6	12.01078	0.0000000000000000	A    	0.3480646886945065	0.3635030558377792
em_helix_mom_octamer_60	     6	12.01078	0.0000000000000000	A    	0.3480646886945065	0.3635030558377792
em_helix_mom_octamer_61	     6	12.01078	0.0000000000000000	A    	0.3480646886945065	0.3635030558377792
em_helix_mom_octamer_62	     6	12.01078	0.0000000000000000	A    	0.3399669508423535	0.4577296
em_helix_mom_octamer_63	     6	12.01078	0.0000000000000000	A    	0.3399669508423535	0.4577296
em_helix_mom_octamer_64	     7	14.00672	0.0000000000000000	A    	0.3206876023663901	0.7016212989374017
em_helix_mom_octamer_65	     6	12.01078	0.0000000000000000	A    	0.3480646886945065	0.3635030558377792
em_helix_mom_octamer_66	     6	12.01078	0.0000000000000000	A    	0.3480646886945065	0.3635030558377792
em_helix_mom_octamer_67	     6	12.01078	0.0000000000000000	A    	0.3480646886945065	0.3635030558377792
em_helix_mom_octamer_68	     6	12.01078	0.0000000000000000	A    	0.3480646886945065	0.3635030558377792
em_helix_mom_octamer_69	     1	1.007947	0.0000000000000000	A    	0.2583225710839196	0.068656285380106
em_helix_mom_octamer_70	     1	1.007947	0.0000000000000000	A    	0.2583225710839196	0.068656285380106
em_helix_mom_octamer_71	     1	1.007947	0.0000000000000000	A    	0.2583225710839196	0.068656285380106
em_helix_mom_octamer_72	     1	1.007947	0.0000000000000000	A    	0.2572581535063279	0.06531785996356952
em_helix_mom_octamer_73	     1	1.007947	0.0000000000000000	A    	0.2572581535063279	0.06531785996356952
em_helix_mom_octamer_74	     1	1.007947	0.0000000000000000	A    	0.2572581535063279	0.06531785996356952
em_helix_mom_octamer_75	     1	1.007947	0.0000000000000000	A    	0.2572581535063279	0.06531785996356952
em_helix_mom_octamer_76	     1	1.007947	0.0000000000000000	A    	0.2572581535063279	0.06531785996356952
em_helix_mom_octamer_77	     1	1.007947	0.0000000000000000	A    	0.2572581535063279	0.06531785996356952
em_helix_mom_octamer_78	     1	1.007947	0.0000000000000000	A    	0.2572581535063279	0.06531785996356952
em_helix_mom_octamer_79	     1	1.007947	0.0000000000000000	A    	0.2583225710839196	0.068656285380106
em_helix_mom_octamer_80	     1	1.007947	0.0000000000000000	A    	0.2644543413268124	0.06602135607582665
em_helix_mom_octamer_81	     1	1.007947	0.0000000000000000	A    	0.2644543413268124	0.06602135607582665
em_helix_mom_octamer_82	     1	1.007947	0.0000000000000000	A    	0.2644543413268124	0.06602135607582665
em_helix_mom_octamer_83	     1	1.007947	0.0000000000000000	A    	0.1103427677297317	0.05895596890015097
em_helix_mom_octamer_84	     1	1.007947	0.0000000000000000	A    	0.2572581535063279	0.06531785996356952
em_helix_mom_octamer_85	     1	1.007947	0.0000000000000000	A    	0.2572581535063279	0.06531785996356952
em_helix_mom_octamer_86	     1	1.007947	0.0000000000000000	A    	0.2572581535063279	0.06531785996356952
em_helix_mom_octamer_87	     1	1.007947	0.0000000000000000	A    	0.2572581535063279	0.06531785996356952
em_helix_mom_octamer_88	     6	12.01078	0.0000000000000000	A    	0.3399669508423535	0.4577296
em_helix_mom_octamer_89	     8	15.99943	0.0000000000000000	A    	0.3025106490435313	0.7048581468486769
em_helix_mom_octamer_90	     6	12.01078	0.0000000000000000	A    	0.3480646886945065	0.3635030558377792
em_helix_mom_octamer_91	     6	12.01078	0.0000000000000000	A    	0.3480646886945065	0.3635030558377792
em_helix_mom_octamer_92	     6	12.01078	0.0000000000000000	A    	0.3480646886945065	0.3635030558377792
em_helix_mom_octamer_93	     6	12.01078	0.0000000000000000	A    	0.3480646886945065	0.3635030558377792
em_helix_mom_octamer_94	     6	12.01078	0.0000000000000000	A    	0.3480646886945065	0.3635030558377792
em_helix_mom_octamer_95	     6	12.01078	0.0000000000000000	A    	0.3480646886945065	0.3635030558377792
em_helix_mom_octamer_96	     6	12.01078	0.0000000000000000	A    	0.3480646886945065	0.3635030558377792
em_helix_mom_octamer_97	     6	12.01078	0.0000000000000000	A    	0.3480646886945065	0.3635030558377792
em_helix_mom_octamer_98	     8	15.99943	0.0000000000000000	A    	0.3039812205065809	0.8795023257036865
em_helix_mom_octamer_99	     6	12.01078	0.0000000000000000	A    	0.3480646886945065	0.3635030558377792
em_helix_mom_octamer_100	     6	12.01078	0.0000000000000000	A    	0.3480646886945065	0.3635030558377792
em_helix_mom_octamer_101	     6	12.01078	0.0000000000000000	A    	0.3480646886945065	0.3635030558377792
em_helix_mom_octamer_102	     6	12.01078	0.0000000000000000	A    	0.3480646886945065	0.3635030558377792
em_helix_mom_octamer_103	     6	12.01078	0.0000000000000000	A    	0.3480646886945065	0.3635030558377792
em_helix_mom_octamer_104	     6	12.01078	0.0000000000000000	A    	0.3480646886945065	0.3635030558377792
em_helix_mom_octamer_105	     6	12.01078	0.0000000000000000	A    	0.3480646886945065	0.3635030558377792
em_helix_mom_octamer_106	     6	12.01078	0.0000000000000000	A    	0.3399669508423535	0.4577296
em_helix_mom_octamer_107	     6	12.01078	0.0000000000000000	A    	0.3399669508423535	0.4577296
em_helix_mom_octamer_108	     7	14.00672	0.0000000000000000	A    	0.3206876023663901	0.7016212989374017
em_helix_mom_octamer_109	     6	12.01078	0.0000000000000000	A    	0.3480646886945065	0.3635030558377792
em_helix_mom_octamer_110	     6	12.01078	0.0000000000000000	A    	0.3480646886945065	0.3635030558377792
em_helix_mom_octamer_111	     6	12.01078	0.0000000000000000	A    	0.3480646886945065	0.3635030558377792
em_helix_mom_octamer_112	     6	12.01078	0.0000000000000000	A    	0.3480646886945065	0.3635030558377792
em_helix_mom_octamer_113	     1	1.007947	0.0000000000000000	A    	0.2583225710839196	0.068656285380106
em_helix_mom_octamer_114	     1	1.007947	0.0000000000000000	A    	0.2583225710839196	0.068656285380106
em_helix_mom_octamer_115	     1	1.007947	0.0000000000000000	A    	0.2583225710839196	0.068656285380106
em_helix_mom_octamer_116	     1	1.007947	0.0000000000000000	A    	0.2572581535063279	0.06531785996356952
em_helix_mom_octamer_117	     1	1.007947	0.0000000000000000	A    	0.2572581535063279	0.06531785996356952
em_helix_mom_octamer_118	     1	1.007947	0.0000000000000000	A    	0.2572581535063279	0.06531785996356952
em_helix_mom_octamer_119	     1	1.007947	0.0000000000000000	A    	0.2572581535063279	0.06531785996356952
em_helix_mom_octamer_120	     1	1.007947	0.0000000000000000	A    	0.2572581535063279	0.06531785996356952
em_helix_mom_octamer_121	     1	1.007947	0.0000000000000000	A    	0.2572581535063279	0.06531785996356952
em_helix_mom_octamer_122	     1	1.007947	0.0000000000000000	A    	0.2572581535063279	0.06531785996356952
em_helix_mom_octamer_123	     1	1.007947	0.0000000000000000	A    	0.2583225710839196	0.068656285380106
em_helix_mom_octamer_124	     1	1.007947	0.0000000000000000	A    	0.2644543413268124	0.06602135607582665
em_helix_mom_octamer_125	     1	1.007947	0.0000000000000000	A    	0.2644543413268124	0.06602135607582665
em_helix_mom_octamer_126	     1	1.007947	0.0000000000000000	A    	0.2644543413268124	0.06602135607582665
em_helix_mom_octamer_127	     1	1.007947	0.0000000000000000	A    	0.1103427677297317	0.05895596890015097
em_helix_mom_octamer_128	     1	1.007947	0.0000000000000000	A    	0.2572581535063279	0.06531785996356952
em_helix_mom_octamer_129	     1	1.007947	0.0000000000000000	A    	0.2572581535063279	0.06531785996356952
em_helix_mom_octamer_130	     1	1.007947	0.0000000000000000	A    	0.2572581535063279	0.06531785996356952
em_helix_mom_octamer_131	     1	1.007947	0.0000000000000000	A    	0.2572581535063279	0.06531785996356952
em_helix_mom_octamer_132	     6	12.01078	0.0000000000000000	A    	0.3399669508423535	0.4577296
em_helix_mom_octamer_133	     8	15.99943	0.0000000000000000	A    	0.3025106490435313	0.7048581468486769
em_helix_mom_octamer_134	     6	12.01078	0.0000000000000000	A    	0.3480646886945065	0.3635030558377792
em_helix_mom_octamer_135	     6	12.01078	0.0000000000000000	A    	0.3480646886945065	0.3635030558377792
em_helix_mom_octamer_136	     6	12.01078	0.0000000000000000	A    	0.3480646886945065	0.3635030558377792
em_helix_mom_octamer_137	     6	12.01078	0.0000000000000000	A    	0.3480646886945065	0.3635030558377792
em_helix_mom_octamer_138	     6	12.01078	0.0000000000000000	A    	0.3480646886945065	0.3635030558377792
em_helix_mom_octamer_139	     6	12.01078	0.0000000000000000	A    	0.3480646886945065	0.3635030558377792
em_helix_mom_octamer_140	     6	12.01078	0.0000000000000000	A    	0.3480646886945065	0.3635030558377792
em_helix_mom_octamer_141	     6	12.01078	0.0000000000000000	A    	0.3480646886945065	0.3635030558377792
em_helix_mom_octamer_142	     8	15.99943	0.0000000000000000	A    	0.3039812205065809	0.8795023257036865
em_helix_mom_octamer_143	     6	12.01078	0.0000000000000000	A    	0.3480646886945065	0.3635030558377792
em_helix_mom_octamer_144	     6	12.01078	0.0000000000000000	A    	0.3480646886945065	0.3635030558377792
em_helix_mom_octamer_145	     6	12.01078	0.0000000000000000	A    	0.3480646886945065	0.3635030558377792
em_helix_mom_octamer_146	     6	12.01078	0.0000000000000000	A    	0.3480646886945065	0.3635030558377792
em_helix_mom_octamer_147	     6	12.01078	0.0000000000000000	A    	0.3480646886945065	0.3635030558377792
em_helix_mom_octamer_148	     6	12.01078	0.0000000000000000	A    	0.3480646886945065	0.3635030558377792
em_helix_mom_octamer_149	     6	12.01078	0.0000000000000000	A    	0.3480646886945065	0.3635030558377792
em_helix_mom_octamer_150	     6	12.01078	0.0000000000000000	A    	0.3399669508423535	0.4577296
em_helix_mom_octamer_151	     6	12.01078	0.0000000000000000	A    	0.3399669508423535	0.4577296
em_helix_mom_octamer_152	     7	14.00672	0.0000000000000000	A    	0.3206876023663901	0.7016212989374017
em_helix_mom_octamer_153	     6	12.01078	0.0000000000000000	A    	0.3480646886945065	0.3635030558377792
em_helix_mom_octamer_154	     6	12.01078	0.0000000000000000	A    	0.3480646886945065	0.3635030558377792
em_helix_mom_octamer_155	     6	12.01078	0.0000000000000000	A    	0.3480646886945065	0.3635030558377792
em_helix_mom_octamer_156	     6	12.01078	0.0000000000000000	A    	0.3480646886945065	0.3635030558377792
em_helix_mom_octamer_157	     1	1.007947	0.0000000000000000	A    	0.2583225710839196	0.068656285380106
em_helix_mom_octamer_158	     1	1.007947	0.0000000000000000	A    	0.2583225710839196	0.068656285380106
em_helix_mom_octamer_159	     1	1.007947	0.0000000000000000	A    	0.2583225710839196	0.068656285380106
em_helix_mom_octamer_160	     1	1.007947	0.0000000000000000	A    	0.2572581535063279	0.06531785996356952
em_helix_mom_octamer_161	     1	1.007947	0.0000000000000000	A    	0.2572581535063279	0.06531785996356952
em_helix_mom_octamer_162	     1	1.007947	0.0000000000000000	A    	0.2572581535063279	0.06531785996356952
em_helix_mom_octamer_163	     1	1.007947	0.0000000000000000	A    	0.2572581535063279	0.06531785996356952
em_helix_mom_octamer_164	     1	1.007947	0.0000000000000000	A    	0.2572581535063279	0.06531785996356952
em_helix_mom_octamer_165	     1	1.007947	0.0000000000000000	A    	0.2572581535063279	0.06531785996356952
em_helix_mom_octamer_166	     1	1.007947	0.0000000000000000	A    	0.2572581535063279	0.06531785996356952
em_helix_mom_octamer_167	     1	1.007947	0.0000000000000000	A    	0.2583225710839196	0.068656285380106
em_helix_mom_octamer_168	     1	1.007947	0.0000000000000000	A    	0.2644543413268124	0.06602135607582665
em_helix_mom_octamer_169	     1	1.007947	0.0000000000000000	A    	0.2644543413268124	0.06602135607582665
em_helix_mom_octamer_170	     1	1.007947	0.0000000000000000	A    	0.2644543413268124	0.06602135607582665
em_helix_mom_octamer_171	     1	1.007947	0.0000000000000000	A    	0.1103427677297317	0.05895596890015097
em_helix_mom_octamer_172	     1	1.007947	0.0000000000000000	A    	0.2572581535063279	0.06531785996356952
em_helix_mom_octamer_173	     1	1.007947	0.0000000000000000	A    	0.2572581535063279	0.06531785996356952
em_helix_mom_octamer_174	     1	1.007947	0.0000000000000000	A    	0.2572581535063279	0.06531785996356952
em_helix_mom_octamer_175	     1	1.007947	0.0000000000000000	A    	0.2572581535063279	0.06531785996356952
em_helix_mom_octamer_176	     6	12.01078	0.0000000000000000	A    	0.3399669508423535	0.4577296
em_helix_mom_octamer_177	     8	15.99943	0.0000000000000000	A    	0.3025106490435313	0.7048581468486769
em_helix_mom_octamer_178	     6	12.01078	0.0000000000000000	A    	0.3480646886945065	0.3635030558377792
em_helix_mom_octamer_179	     6	12.01078	0.0000000000000000	A    	0.3480646886945065	0.3635030558377792
em_helix_mom_octamer_180	     6	12.01078	0.0000000000000000	A    	0.3480646886945065	0.3635030558377792
em_helix_mom_octamer_181	     6	12.01078	0.0000000000000000	A    	0.3480646886945065	0.3635030558377792
em_helix_mom_octamer_182	     6	12.01078	0.0000000000000000	A    	0.3480646886945065	0.3635030558377792
em_helix_mom_octamer_183	     6	12.01078	0.0000000000000000	A    	0.3480646886945065	0.3635030558377792
em_helix_mom_octamer_184	     6	12.01078	0.0000000000000000	A    	0.3480646886945065	0.3635030558377792
em_helix_mom_octamer_185	     6	12.01078	0.0000000000000000	A    	0.3480646886945065	0.3635030558377792
em_helix_mom_octamer_186	     8	15.99943	0.0000000000000000	A    	0.3039812205065809	0.8795023257036865
em_helix_mom_octamer_187	     6	12.01078	0.0000000000000000	A    	0.3480646886945065	0.3635030558377792
em_helix_mom_octamer_188	     6	12.01078	0.0000000000000000	A    	0.3480646886945065	0.3635030558377792
em_helix_mom_octamer_189	     6	12.01078	0.0000000000000000	A    	0.3480646886945065	0.3635030558377792
em_helix_mom_octamer_190	     6	12.01078	0.0000000000000000	A    	0.3480646886945065	0.3635030558377792
em_helix_mom_octamer_191	     6	12.01078	0.0000000000000000	A    	0.3480646886945065	0.3635030558377792
em_helix_mom_octamer_192	     6	12.01078	0.0000000000000000	A    	0.3480646886945065	0.3635030558377792
em_helix_mom_octamer_193	     6	12.01078	0.0000000000000000	A    	0.3480646886945065	0.3635030558377792
em_helix_mom_octamer_194	     6	12.01078	0.0000000000000000	A    	0.3399669508423535	0.4577296
em_helix_mom_octamer_195	     6	12.01078	0.0000000000000000	A    	0.3399669508423535	0.4577296
em_helix_mom_octamer_196	     7	14.00672	0.0000000000000000	A    	0.3206876023663901	0.7016212989374017
em_helix_mom_octamer_197	     6	12.01078	0.0000000000000000	A    	0.3480646886945065	0.3635030558377792
em_helix_mom_octamer_198	     6	12.01078	0.0000000000000000	A    	0.3480646886945065	0.3635030558377792
em_helix_mom_octamer_199	     6	12.01078	0.0000000000000000	A    	0.3480646886945065	0.3635030558377792
em_helix_mom_octamer_200	     6	12.01078	0.0000000000000000	A    	0.3480646886945065	0.3635030558377792
em_helix_mom_octamer_201	     1	1.007947	0.0000000000000000	A    	0.2583225710839196	0.068656285380106
em_helix_mom_octamer_202	     1	1.007947	0.0000000000000000	A    	0.2583225710839196	0.068656285380106
em_helix_mom_octamer_203	     1	1.007947	0.0000000000000000	A    	0.2583225710839196	0.068656285380106
em_helix_mom_octamer_204	     1	1.007947	0.0000000000000000	A    	0.2572581535063279	0.06531785996356952
em_helix_mom_octamer_205	     1	1.007947	0.0000000000000000	A    	0.2572581535063279	0.06531785996356952
em_helix_mom_octamer_206	     1	1.007947	0.0000000000000000	A    	0.2572581535063279	0.06531785996356952
em_helix_mom_octamer_207	     1	1.007947	0.0000000000000000	A    	0.2572581535063279	0.06531785996356952
em_helix_mom_octamer_208	     1	1.007947	0.0000000000000000	A    	0.2572581535063279	0.06531785996356952
em_helix_mom_octamer_209	     1	1.007947	0.0000000000000000	A    	0.2572581535063279	0.06531785996356952
em_helix_mom_octamer_210	     1	1.007947	0.0000000000000000	A    	0.2572581535063279	0.06531785996356952
em_helix_mom_octamer_211	     1	1.007947	0.0000000000000000	A    	0.2583225710839196	0.068656285380106
em_helix_mom_octamer_212	     1	1.007947	0.0000000000000000	A    	0.2644543413268124	0.06602135607582665
em_helix_mom_octamer_213	     1	1.007947	0.0000000000000000	A    	0.2644543413268124	0.06602135607582665
em_helix_mom_octamer_214	     1	1.007947	0.0000000000000000	A    	0.2644543413268124	0.06602135607582665
em_helix_mom_octamer_215	     1	1.007947	0.0000000000000000	A    	0.1103427677297317	0.05895596890015097
em_helix_mom_octamer_216	     1	1.007947	0.0000000000000000	A    	0.2572581535063279	0.06531785996356952
em_helix_mom_octamer_217	     1	1.007947	0.0000000000000000	A    	0.2572581535063279	0.06531785996356952
em_helix_mom_octamer_218	     1	1.007947	0.0000000000000000	A    	0.2572581535063279	0.06531785996356952
em_helix_mom_octamer_219	     1	1.007947	0.0000000000000000	A    	0.2572581535063279	0.06531785996356952
em_helix_mom_octamer_220	     6	12.01078	0.0000000000000000	A    	0.3399669508423535	0.4577296
em_helix_mom_octamer_221	     8	15.99943	0.0000000000000000	A    	0.3025106490435313	0.7048581468486769
em_helix_mom_octamer_222	     6	12.01078	0.0000000000000000	A    	0.3480646886945065	0.3635030558377792
em_helix_mom_octamer_223	     6	12.01078	0.0000000000000000	A    	0.3480646886945065	0.3635030558377792
em_helix_mom_octamer_224	     6	12.01078	0.0000000000000000	A    	0.3480646886945065	0.3635030558377792
em_helix_mom_octamer_225	     6	12.01078	0.0000000000000000	A    	0.3480646886945065	0.3635030558377792
em_helix_mom_octamer_226	     6	12.01078	0.0000000000000000	A    	0.3480646886945065	0.3635030558377792
em_helix_mom_octamer_227	     6	12.01078	0.0000000000000000	A    	0.3480646886945065	0.3635030558377792
em_helix_mom_octamer_228	     6	12.01078	0.0000000000000000	A    	0.3480646886945065	0.3635030558377792
em_helix_mom_octamer_229	     6	12.01078	0.0000000000000000	A    	0.3480646886945065	0.3635030558377792
em_helix_mom_octamer_230	     8	15.99943	0.0000000000000000	A    	0.3039812205065809	0.8795023257036865
em_helix_mom_octamer_231	     6	12.01078	0.0000000000000000	A    	0.3480646886945065	0.3635030558377792
em_helix_mom_octamer_232	     6	12.01078	0.0000000000000000	A    	0.3480646886945065	0.3635030558377792
em_helix_mom_octamer_233	     6	12.01078	0.0000000000000000	A    	0.3480646886945065	0.3635030558377792
em_helix_mom_octamer_234	     6	12.01078	0.0000000000000000	A    	0.3480646886945065	0.3635030558377792
em_helix_mom_octamer_235	     6	12.01078	0.0000000000000000	A    	0.3480646886945065	0.3635030558377792
em_helix_mom_octamer_236	     6	12.01078	0.0000000000000000	A    	0.3480646886945065	0.3635030558377792
em_helix_mom_octamer_237	     6	12.01078	0.0000000000000000	A    	0.3480646886945065	0.3635030558377792
em_helix_mom_octamer_238	     6	12.01078	0.0000000000000000	A    	0.3399669508423535	0.4577296
em_helix_mom_octamer_239	     6	12.01078	0.0000000000000000	A    	0.3399669508423535	0.4577296
em_helix_mom_octamer_240	     7	14.00672	0.0000000000000000	A    	0.3206876023663901	0.7016212989374017
em_helix_mom_octamer_241	     6	12.01078	0.0000000000000000	A    	0.3480646886945065	0.3635030558377792
em_helix_mom_octamer_242	     6	12.01078	0.0000000000000000	A    	0.3480646886945065	0.3635030558377792
em_helix_mom_octamer_243	     6	12.01078	0.0000000000000000	A    	0.3480646886945065	0.3635030558377792
em_helix_mom_octamer_244	     6	12.01078	0.0000000000000000	A    	0.3480646886945065	0.3635030558377792
em_helix_mom_octamer_245	     1	1.007947	0.0000000000000000	A    	0.2583225710839196	0.068656285380106
em_helix_mom_octamer_246	     1	1.007947	0.0000000000000000	A    	0.2583225710839196	0.068656285380106
em_helix_mom_octamer_247	     1	1.007947	0.0000000000000000	A    	0.2583225710839196	0.068656285380106
em_helix_mom_octamer_248	     1	1.007947	0.0000000000000000	A    	0.2572581535063279	0.06531785996356952
em_helix_mom_octamer_249	     1	1.007947	0.0000000000000000	A    	0.2572581535063279	0.06531785996356952
em_helix_mom_octamer_250	     1	1.007947	0.0000000000000000	A    	0.2572581535063279	0.06531785996356952
em_helix_mom_octamer_251	     1	1.007947	0.0000000000000000	A    	0.2572581535063279	0.06531785996356952
em_helix_mom_octamer_252	     1	1.007947	0.0000000000000000	A    	0.2572581535063279	0.06531785996356952
em_helix_mom_octamer_253	     1	1.007947	0.0000000000000000	A    	0.2572581535063279	0.06531785996356952
em_helix_mom_octamer_254	     1	1.007947	0.0000000000000000	A    	0.2572581535063279	0.06531785996356952
em_helix_mom_octamer_255	     1	1.007947	0.0000000000000000	A    	0.2583225710839196	0.068656285380106
em_helix_mom_octamer_256	     1	1.007947	0.0000000000000000	A    	0.2644543413268124	0.06602135607582665
em_helix_mom_octamer_257	     1	1.007947	0.0000000000000000	A    	0.2644543413268124	0.06602135607582665
em_helix_mom_octamer_258	     1	1.007947	0.0000000000000000	A    	0.2644543413268124	0.06602135607582665
em_helix_mom_octamer_259	     1	1.007947	0.0000000000000000	A    	0.1103427677297317	0.05895596890015097
em_helix_mom_octamer_260	     1	1.007947	0.0000000000000000	A    	0.2572581535063279	0.06531785996356952
em_helix_mom_octamer_261	     1	1.007947	0.0000000000000000	A    	0.2572581535063279	0.06531785996356952
em_helix_mom_octamer_262	     1	1.007947	0.0000000000000000	A    	0.2572581535063279	0.06531785996356952
em_helix_mom_octamer_263	     1	1.007947	0.0000000000000000	A    	0.2572581535063279	0.06531785996356952
em_helix_mom_octamer_264	     6	12.01078	0.0000000000000000	A    	0.3399669508423535	0.4577296
em_helix_mom_octamer_265	     8	15.99943	0.0000000000000000	A    	0.3025106490435313	0.7048581468486769
em_helix_mom_octamer_266	     6	12.01078	0.0000000000000000	A    	0.3480646886945065	0.3635030558377792
em_helix_mom_octamer_267	     6	12.01078	0.0000000000000000	A    	0.3480646886945065	0.3635030558377792
em_helix_mom_octamer_268	     6	12.01078	0.0000000000000000	A    	0.3480646886945065	0.3635030558377792
em_helix_mom_octamer_269	     6	12.01078	0.0000000000000000	A    	0.3480646886945065	0.3635030558377792
em_helix_mom_octamer_270	     6	12.01078	0.0000000000000000	A    	0.3480646886945065	0.3635030558377792
em_helix_mom_octamer_271	     6	12.01078	0.0000000000000000	A    	0.3480646886945065	0.3635030558377792
em_helix_mom_octamer_272	     6	12.01078	0.0000000000000000	A    	0.3480646886945065	0.3635030558377792
em_helix_mom_octamer_273	     6	12.01078	0.0000000000000000	A    	0.3480646886945065	0.3635030558377792
em_helix_mom_octamer_274	     8	15.99943	0.0000000000000000	A    	0.3039812205065809	0.8795023257036865
em_helix_mom_octamer_275	     6	12.01078	0.0000000000000000	A    	0.3480646886945065	0.3635030558377792
em_helix_mom_octamer_276	     6	12.01078	0.0000000000000000	A    	0.3480646886945065	0.3635030558377792
em_helix_mom_octamer_277	     6	12.01078	0.0000000000000000	A    	0.3480646886945065	0.3635030558377792
em_helix_mom_octamer_278	     6	12.01078	0.0000000000000000	A    	0.3480646886945065	0.3635030558377792
em_helix_mom_octamer_279	     6	12.01078	0.0000000000000000	A    	0.3480646886945065	0.3635030558377792
em_helix_mom_octamer_280	     6	12.01078	0.0000000000000000	A    	0.3480646886945065	0.3635030558377792
em_helix_mom_octamer_281	     6	12.01078	0.0000000000000000	A    	0.3480646886945065	0.3635030558377792
em_helix_mom_octamer_282	     6	12.01078	0.0000000000000000	A    	0.3399669508423535	0.4577296
em_helix_mom_octamer_283	     6	12.01078	0.0000000000000000	A    	0.3399669508423535	0.4577296
em_helix_mom_octamer_284	     7	14.00672	0.0000000000000000	A    	0.3206876023663901	0.7016212989374017
em_helix_mom_octamer_285	     6	12.01078	0.0000000000000000	A    	0.3480646886945065	0.3635030558377792
em_helix_mom_octamer_286	     6	12.01078	0.0000000000000000	A    	0.3480646886945065	0.3635030558377792
em_helix_mom_octamer_287	     6	12.01078	0.0000000000000000	A    	0.3480646886945065	0.3635030558377792
em_helix_mom_octamer_288	     6	12.01078	0.0000000000000000	A    	0.3480646886945065	0.3635030558377792
em_helix_mom_octamer_289	     1	1.007947	0.0000000000000000	A    	0.2583225710839196	0.068656285380106
em_helix_mom_octamer_290	     1	1.007947	0.0000000000000000	A    	0.2583225710839196	0.068656285380106
em_helix_mom_octamer_291	     1	1.007947	0.0000000000000000	A    	0.2583225710839196	0.068656285380106
em_helix_mom_octamer_292	     1	1.007947	0.0000000000000000	A    	0.2572581535063279	0.06531785996356952
em_helix_mom_octamer_293	     1	1.007947	0.0000000000000000	A    	0.2572581535063279	0.06531785996356952
em_helix_mom_octamer_294	     1	1.007947	0.0000000000000000	A    	0.2572581535063279	0.06531785996356952
em_helix_mom_octamer_295	     1	1.007947	0.0000000000000000	A    	0.2572581535063279	0.06531785996356952
em_helix_mom_octamer_296	     1	1.007947	0.0000000000000000	A    	0.2572581535063279	0.06531785996356952
em_helix_mom_octamer_297	     1	1.007947	0.0000000000000000	A    	0.2572581535063279	0.06531785996356952
em_helix_mom_octamer_298	     1	1.007947	0.0000000000000000	A    	0.2572581535063279	0.06531785996356952
em_helix_mom_octamer_299	     1	1.007947	0.0000000000000000	A    	0.2583225710839196	0.068656285380106
em_helix_mom_octamer_300	     1	1.007947	0.0000000000000000	A    	0.2644543413268124	0.06602135607582665
em_helix_mom_octamer_301	     1	1.007947	0.0000000000000000	A    	0.2644543413268124	0.06602135607582665
em_helix_mom_octamer_302	     1	1.007947	0.0000000000000000	A    	0.2644543413268124	0.06602135607582665
em_helix_mom_octamer_303	     1	1.007947	0.0000000000000000	A    	0.1103427677297317	0.05895596890015097
em_helix_mom_octamer_304	     1	1.007947	0.0000000000000000	A    	0.2572581535063279	0.06531785996356952
em_helix_mom_octamer_305	     1	1.007947	0.0000000000000000	A    	0.2572581535063279	0.06531785996356952
em_helix_mom_octamer_306	     1	1.007947	0.0000000000000000	A    	0.2572581535063279	0.06531785996356952
em_helix_mom_octamer_307	     1	1.007947	0.0000000000000000	A    	0.2572581535063279	0.06531785996356952
em_helix_mom_octamer_308	     6	12.01078	0.0000000000000000	A    	0.3399669508423535	0.4577296
em_helix_mom_octamer_309	     8	15.99943	0.0000000000000000	A    	0.3025106490435313	0.7048581468486769
em_helix_mom_octamer_310	     6	12.01078	0.0000000000000000	A    	0.3480646886945065	0.3635030558377792
em_helix_mom_octamer_311	     6	12.01078	0.0000000000000000	A    	0.3480646886945065	0.3635030558377792
em_helix_mom_octamer_312	     6	12.01078	0.0000000000000000	A    	0.3480646886945065	0.3635030558377792
em_helix_mom_octamer_313	     6	12.01078	0.0000000000000000	A    	0.3480646886945065	0.3635030558377792
em_helix_mom_octamer_314	     6	12.01078	0.0000000000000000	A    	0.3480646886945065	0.3635030558377792
em_helix_mom_octamer_315	     6	12.01078	0.0000000000000000	A    	0.3480646886945065	0.3635030558377792
em_helix_mom_octamer_316	     6	12.01078	0.0000000000000000	A    	0.3480646886945065	0.3635030558377792
em_helix_mom_octamer_317	     6	12.01078	0.0000000000000000	A    	0.3480646886945065	0.3635030558377792
em_helix_mom_octamer_318	     8	15.99943	0.0000000000000000	A    	0.3039812205065809	0.8795023257036865
em_helix_mom_octamer_319	     6	12.01078	0.0000000000000000	A    	0.3480646886945065	0.3635030558377792
em_helix_mom_octamer_320	     6	12.01078	0.0000000000000000	A    	0.3480646886945065	0.3635030558377792
em_helix_mom_octamer_321	     6	12.01078	0.0000000000000000	A    	0.3480646886945065	0.3635030558377792
em_helix_mom_octamer_322	     6	12.01078	0.0000000000000000	A    	0.3480646886945065	0.3635030558377792
em_helix_mom_octamer_323	     6	12.01078	0.0000000000000000	A    	0.3480646886945065	0.3635030558377792
em_helix_mom_octamer_324	     6	12.01078	0.0000000000000000	A    	0.3480646886945065	0.3635030558377792
em_helix_mom_octamer_325	     6	12.01078	0.0000000000000000	A    	0.3480646886945065	0.3635030558377792
em_helix_mom_octamer_326	     6	12.01078	0.0000000000000000	A    	0.3399669508423535	0.4577296
em_helix_mom_octamer_327	     6	12.01078	0.0000000000000000	A    	0.3399669508423535	0.4577296
em_helix_mom_octamer_328	     7	14.00672	0.0000000000000000	A    	0.3206876023663901	0.7016212989374017
em_helix_mom_octamer_329	     6	12.01078	0.0000000000000000	A    	0.3480646886945065	0.3635030558377792
em_helix_mom_octamer_330	     6	12.01078	0.0000000000000000	A    	0.3480646886945065	0.3635030558377792
em_helix_mom_octamer_331	     6	12.01078	0.0000000000000000	A    	0.3480646886945065	0.3635030558377792
em_helix_mom_octamer_332	     6	12.01078	0.0000000000000000	A    	0.3480646886945065	0.3635030558377792
em_helix_mom_octamer_333	     1	1.007947	0.0000000000000000	A    	0.2583225710839196	0.068656285380106
em_helix_mom_octamer_334	     1	1.007947	0.0000000000000000	A    	0.2583225710839196	0.068656285380106
em_helix_mom_octamer_335	     1	1.007947	0.0000000000000000	A    	0.2583225710839196	0.068656285380106
em_helix_mom_octamer_336	     1	1.007947	0.0000000000000000	A    	0.2572581535063279	0.06531785996356952
em_helix_mom_octamer_337	     1	1.007947	0.0000000000000000	A    	0.2572581535063279	0.06531785996356952
em_helix_mom_octamer_338	     1	1.007947	0.0000000000000000	A    	0.2572581535063279	0.06531785996356952
em_helix_mom_octamer_339	     1	1.007947	0.0000000000000000	A    	0.2572581535063279	0.06531785996356952
em_helix_mom_octamer_340	     1	1.007947	0.0000000000000000	A    	0.2572581535063279	0.06531785996356952
em_helix_mom_octamer_341	     1	1.007947	0.0000000000000000	A    	0.2572581535063279	0.06531785996356952
em_helix_mom_octamer_342	     1	1.007947	0.0000000000000000	A    	0.2572581535063279	0.06531785996356952
em_helix_mom_octamer_343	     1	1.007947	0.0000000000000000	A    	0.2583225710839196	0.068656285380106
em_helix_mom_octamer_344	     1	1.007947	0.0000000000000000	A    	0.2644543413268124	0.06602135607582665
em_helix_mom_octamer_345	     1	1.007947	0.0000000000000000	A    	0.2644543413268124	0.06602135607582665
em_helix_mom_octamer_346	     1	1.007947	0.0000000000000000	A    	0.2644543413268124	0.06602135607582665
em_helix_mom_octamer_347	     1	1.007947	0.0000000000000000	A    	0.1103427677297317	0.05895596890015097
em_helix_mom_octamer_348	     1	1.007947	0.0000000000000000	A    	0.2572581535063279	0.06531785996356952
em_helix_mom_octamer_349	     1	1.007947	0.0000000000000000	A    	0.2572581535063279	0.06531785996356952
em_helix_mom_octamer_350	     1	1.007947	0.0000000000000000	A    	0.2572581535063279	0.06531785996356952
em_helix_mom_octamer_351	     1	1.007947	0.0000000000000000	A    	0.2572581535063279	0.06531785996356952
em_helix_mom_octamer_352	     6	12.01078	0.0000000000000000	A    	0.3399669508423535	0.4577296
em_helix_mom_octamer_353	     8	15.99943	0.0000000000000000	A    	0.3025106490435313	0.7048581468486769
em_helix_mom_octamer_354	     1	1.007947	0.0000000000000000	A    	0.2583225710839196	0.068656285380106
em_helix_mom_octamer_355	     1	1.007947	0.0000000000000000	A    	0.2583225710839196	0.068656285380106
em_helix_mom_octamer_356	     1	1.007947	0.0000000000000000	A    	0.2583225710839196	0.068656285380106
em_helix_mom_octamer_357	     6	12.01078	0.0000000000000000	A    	0.3399669508423535	0.4577296
em_helix_mom_octamer_358	     6	12.01078	0.0000000000000000	A    	0.3399669508423535	0.4577296
em_helix_mom_octamer_359	     6	12.01078	0.0000000000000000	A    	0.3399669508423535	0.4577296
em_helix_mom_octamer_360	     6	12.01078	0.0000000000000000	A    	0.3399669508423535	0.4577296
em_helix_mom_octamer_361	     8	15.99943	0.0000000000000000	A    	0.3025106490435313	0.7048581468486769
em_helix_mom_octamer_362	     6	12.01078	0.0000000000000000	A    	0.3480646886945065	0.3635030558377792
em_helix_mom_octamer_363	     8	15.99943	0.0000000000000000	A    	0.3039812205065809	0.8795023257036865
em_helix_mom_octamer_364	     1	1.007947	0.0000000000000000	A    	0.2644543413268124	0.06602135607582665
em_helix_mom_octamer_365	     1	1.007947	0.0000000000000000	A    	0.2644543413268124	0.06602135607582665
em_helix_mom_octamer_366	     1	1.007947	0.0000000000000000	A    	0.2644543413268124	0.06602135607582665
em_helix_mom_octamer_367	     1	1.007947	0.0000000000000000	A    	0.2644543413268124	0.06602135607582665
em_helix_mom_octamer_368	     1	1.007947	0.0000000000000000	A    	0.2644543413268124	0.06602135607582665
em_helix_mom_octamer_369	     1	1.007947	0.0000000000000000	A    	0.2644543413268124	0.06602135607582665
em_helix_mom_octamer_370	     1	1.007947	0.0000000000000000	A    	0.2644543413268124	0.06602135607582665
em_helix_mom_octamer_371	     1	1.007947	0.0000000000000000	A    	0.2644543413268124	0.06602135607582665
em_helix_mom_octamer_372	     1	1.007947	0.0000000000000000	A    	0.2644543413268124	0.06602135607582665
TCM_0      	     6	12.01078	0.0000000000000000	A    	0.3399669508423535	0.4577296
TCM_1      	    17	35.4532	0.0000000000000000	A    	0.3470941405874761	1.10876
TCM_2      	    17	35.4532	0.0000000000000000	A    	0.3470941405874761	1.10876
TCM_3      	     1	1.007947	0.0000000000000000	A    	0.2114993556865165	0.06568879999999999
TCM_4      	    17	35.4532	0.0000000000000000	A    	0.3470941405874761	1.10876

[ moleculetype ]
em_helix_mom_octamer	         3

[ atoms ]
;index, atom type, resnum, resname, name, cgnr, charge, mass
     1 em_helix_mom_octamer_0       1 MOM      C1         1      0.107749998569     12.010780000000
     2 em_helix_mom_octamer_1       1 MOM      O2         1     -0.321240007877     15.999430000000
     3 em_helix_mom_octamer_2       1 MOM      C3         1      0.123240001500     12.010780000000
     4 em_helix_mom_octamer_3       1 MOM      C4         1     -0.204720005393     12.010780000000
     5 em_helix_mom_octamer_4       1 MOM      C5         1     -0.083420000970     12.010780000000
     6 em_helix_mom_octamer_5       1 MOM      C6         1     -0.066480003297     12.010780000000
     7 em_helix_mom_octamer_6       1 MOM      C7         1     -0.048730000854     12.010780000000
     8 em_helix_mom_octamer_7       1 MOM      C8         1     -0.062739998102     12.010780000000
     9 em_helix_mom_octamer_8       1 MOM      C9         1     -0.131640002131     12.010780000000
    10 em_helix_mom_octamer_9       1 MOM      C10        1      0.643869996071     12.010780000000
    11 em_helix_mom_octamer_10       1 MOM      O11        1     -0.538519978523     15.999430000000
    12 em_helix_mom_octamer_11       1 MOM      C12        1     -0.071359999478     12.010780000000
    13 em_helix_mom_octamer_12       1 MOM      C13        1     -0.141890004277     12.010780000000
    14 em_helix_mom_octamer_13       1 MOM      C14        1     -0.087719999254     12.010780000000
    15 em_helix_mom_octamer_14       1 MOM      C15        1      0.002869999968     12.010780000000
    16 em_helix_mom_octamer_15       1 MOM      C16        1     -0.042229998857     12.010780000000
    17 em_helix_mom_octamer_16       1 MOM      C17        1     -0.096170000732     12.010780000000
    18 em_helix_mom_octamer_17       1 MOM      C18        1     -0.102920003235     12.010780000000
    19 em_helix_mom_octamer_18       1 MOM      C19        1      0.150879994035     12.010780000000
    20 em_helix_mom_octamer_19       1 MOM      C20        1     -0.109800003469     12.010780000000
    21 em_helix_mom_octamer_20       1 MOM      N21        1     -0.567170023918     14.006720000000
    22 em_helix_mom_octamer_21       1 MOM      C22        1     -0.120090000331     12.010780000000
    23 em_helix_mom_octamer_22       1 MOM      C23        1     -0.130999997258     12.010780000000
    24 em_helix_mom_octamer_23       1 MOM      C24        1     -0.108999997377     12.010780000000
    25 em_helix_mom_octamer_24       1 MOM      C25        1     -0.145600005984     12.010780000000
    26 em_helix_mom_octamer_25       1 MOM      H26        1      0.046119999141      1.007947000000
    27 em_helix_mom_octamer_26       1 MOM      H27        1      0.046119999141      1.007947000000
    28 em_helix_mom_octamer_27       1 MOM      H28        1      0.046119999141      1.007947000000
    29 em_helix_mom_octamer_28       1 MOM      H29        1      0.142570003867      1.007947000000
    30 em_helix_mom_octamer_29       1 MOM      H30        1      0.140410006046      1.007947000000
    31 em_helix_mom_octamer_30       1 MOM      H31        1      0.164879992604      1.007947000000
    32 em_helix_mom_octamer_31       1 MOM      H32        1      0.153369992971      1.007947000000
    33 em_helix_mom_octamer_32       1 MOM      H33        1      0.146489992738      1.007947000000
    34 em_helix_mom_octamer_33       1 MOM      H34        1      0.140670001507      1.007947000000
    35 em_helix_mom_octamer_34       1 MOM      H35        1      0.147009998560      1.007947000000
    36 em_helix_mom_octamer_35       1 MOM      H36        1      0.098039999604      1.007947000000
    37 em_helix_mom_octamer_36       1 MOM      H37        1      0.044980000705      1.007947000000
    38 em_helix_mom_octamer_37       1 MOM      H38        1      0.044980000705      1.007947000000
    39 em_helix_mom_octamer_38       1 MOM      H39        1      0.044980000705      1.007947000000
    40 em_helix_mom_octamer_39       1 MOM      H40        1      0.306679993868      1.007947000000
    41 em_helix_mom_octamer_40       1 MOM      H41        1      0.123980000615      1.007947000000
    42 em_helix_mom_octamer_41       1 MOM      H42        1      0.130899995565      1.007947000000
    43 em_helix_mom_octamer_42       1 MOM      H43        1      0.139280006289      1.007947000000
    44 em_helix_mom_octamer_43       1 MOM      H44        1      0.157690003514      1.007947000000
    45 em_helix_mom_octamer_44       2 MOM      C45        1      0.113789997995     12.010780000000
    46 em_helix_mom_octamer_45       2 MOM      O46        1     -0.329750001431     15.999430000000
    47 em_helix_mom_octamer_46       2 MOM      C47        1      0.124210000038     12.010780000000
    48 em_helix_mom_octamer_47       2 MOM      C48        1     -0.150120005012     12.010780000000
    49 em_helix_mom_octamer_48       2 MOM      C49        1     -0.085500001907     12.010780000000
    50 em_helix_mom_octamer_49       2 MOM      C50        1     -0.065360002220     12.010780000000
    51 em_helix_mom_octamer_50       2 MOM      C51        1     -0.042050000280     12.010780000000
    52 em_helix_mom_octamer_51       2 MOM      C52        1     -0.084310002625     12.010780000000
    53 em_helix_mom_octamer_52       2 MOM      C53        1     -0.138620004058     12.010780000000
    54 em_helix_mom_octamer_53       2 MOM      C54        1      0.675650000572     12.010780000000
    55 em_helix_mom_octamer_54       2 MOM      O55        1     -0.616599977016     15.999430000000
    56 em_helix_mom_octamer_55       2 MOM      C56        1     -0.073780000210     12.010780000000
    57 em_helix_mom_octamer_56       2 MOM      C57        1     -0.144299998879     12.010780000000
    58 em_helix_mom_octamer_57       2 MOM      C58        1     -0.093429997563     12.010780000000
    59 em_helix_mom_octamer_58       2 MOM      C59        1      0.008949999698     12.010780000000
    60 em_helix_mom_octamer_59       2 MOM      C60        1     -0.040470000356     12.010780000000
    61 em_helix_mom_octamer_60       2 MOM      C61        1     -0.113279998302     12.010780000000
    62 em_helix_mom_octamer_61       2 MOM      C62        1     -0.100790001452     12.010780000000
    63 em_helix_mom_octamer_62       2 MOM      C63        1      0.156289994717     12.010780000000
    64 em_helix_mom_octamer_63       2 MOM      C64        1     -0.112269997597     12.010780000000
    65 em_helix_mom_octamer_64       2 MOM      N65        1     -0.574670016766     14.006720000000
    66 em_helix_mom_octamer_65       2 MOM      C66        1     -0.107730001211     12.010780000000
    67 em_helix_mom_octamer_66       2 MOM      C67        1     -0.131119996309     12.010780000000
    68 em_helix_mom_octamer_67       2 MOM      C68        1     -0.107819996774     12.010780000000
    69 em_helix_mom_octamer_68       2 MOM      C69        1     -0.201619997621     12.010780000000
    70 em_helix_mom_octamer_69       2 MOM      H70        1      0.045770000666      1.007947000000
    71 em_helix_mom_octamer_70       2 MOM      H71        1      0.045770000666      1.007947000000
    72 em_helix_mom_octamer_71       2 MOM      H72        1      0.045770000666      1.007947000000
    73 em_helix_mom_octamer_72       2 MOM      H73        1      0.153549998999      1.007947000000
    74 em_helix_mom_octamer_73       2 MOM      H74        1      0.144830003381      1.007947000000
    75 em_helix_mom_octamer_74       2 MOM      H75        1      0.141619995236      1.007947000000
    76 em_helix_mom_octamer_75       2 MOM      H76        1      0.158840000629      1.007947000000
    77 em_helix_mom_octamer_76       2 MOM      H77        1      0.137510001659      1.007947000000
    78 em_helix_mom_octamer_77       2 MOM      H78        1      0.137409999967      1.007947000000
    79 em_helix_mom_octamer_78       2 MOM      H79        1      0.130199998617      1.007947000000
    80 em_helix_mom_octamer_79       2 MOM      H80        1      0.086560003459      1.007947000000
    81 em_helix_mom_octamer_80       2 MOM      H81        1      0.044810000807      1.007947000000
    82 em_helix_mom_octamer_81       2 MOM      H82        1      0.044810000807      1.007947000000
    83 em_helix_mom_octamer_82       2 MOM      H83        1      0.044810000807      1.007947000000
    84 em_helix_mom_octamer_83       2 MOM      H84        1      0.317059993744      1.007947000000
    85 em_helix_mom_octamer_84       2 MOM      H85        1      0.141650006175      1.007947000000
    86 em_helix_mom_octamer_85       2 MOM      H86        1      0.133560001850      1.007947000000
    87 em_helix_mom_octamer_86       2 MOM      H87        1      0.137769997120      1.007947000000
    88 em_helix_mom_octamer_87       2 MOM      H88        1      0.144130006433      1.007947000000
    89 em_helix_mom_octamer_88       3 MOM      C89        1      0.109370000660     12.010780000000
    90 em_helix_mom_octamer_89       3 MOM      O90        1     -0.323280006647     15.999430000000
    91 em_helix_mom_octamer_90       3 MOM      C91        1      0.126049995422     12.010780000000
    92 em_helix_mom_octamer_91       3 MOM      C92        1     -0.155369997025     12.010780000000
    93 em_helix_mom_octamer_92       3 MOM      C93        1     -0.092960000038     12.010780000000
    94 em_helix_mom_octamer_93       3 MOM      C94        1     -0.067570000887     12.010780000000
    95 em_helix_mom_octamer_94       3 MOM      C95        1     -0.039310000837     12.010780000000
    96 em_helix_mom_octamer_95       3 MOM      C96        1     -0.092229999602     12.010780000000
    97 em_helix_mom_octamer_96       3 MOM      C97        1     -0.148179993033     12.010780000000
    98 em_helix_mom_octamer_97       3 MOM      C98        1      0.672900021076     12.010780000000
    99 em_helix_mom_octamer_98       3 MOM      O99        1     -0.603450000286     15.999430000000
   100 em_helix_mom_octamer_99       3 MOM      C100       1     -0.073270000517     12.010780000000
   101 em_helix_mom_octamer_100       3 MOM      C101       1     -0.142389997840     12.010780000000
   102 em_helix_mom_octamer_101       3 MOM      C102       1     -0.098509997129     12.010780000000
   103 em_helix_mom_octamer_102       3 MOM      C103       1      0.016130000353     12.010780000000
   104 em_helix_mom_octamer_103       3 MOM      C104       1     -0.037510000169     12.010780000000
   105 em_helix_mom_octamer_104       3 MOM      C105       1     -0.120130002499     12.010780000000
   106 em_helix_mom_octamer_105       3 MOM      C106       1     -0.107560001314     12.010780000000
   107 em_helix_mom_octamer_106       3 MOM      C107       1      0.149910002947     12.010780000000
   108 em_helix_mom_octamer_107       3 MOM      C108       1     -0.109470002353     12.010780000000
   109 em_helix_mom_octamer_108       3 MOM      N109       1     -0.577970027924     14.006720000000
   110 em_helix_mom_octamer_109       3 MOM      C110       1     -0.111709997058     12.010780000000
   111 em_helix_mom_octamer_110       3 MOM      C111       1     -0.133660003543     12.010780000000
   112 em_helix_mom_octamer_111       3 MOM      C112       1     -0.086290001869     12.010780000000
   113 em_helix_mom_octamer_112       3 MOM      C113       1     -0.177839994431     12.010780000000
   114 em_helix_mom_octamer_113       3 MOM      H114       1      0.043639998883      1.007947000000
   115 em_helix_mom_octamer_114       3 MOM      H115       1      0.043639998883      1.007947000000
   116 em_helix_mom_octamer_115       3 MOM      H116       1      0.043639998883      1.007947000000
   117 em_helix_mom_octamer_116       3 MOM      H117       1      0.154809996486      1.007947000000
   118 em_helix_mom_octamer_117       3 MOM      H118       1      0.135230004787      1.007947000000
   119 em_helix_mom_octamer_118       3 MOM      H119       1      0.143460005522      1.007947000000
   120 em_helix_mom_octamer_119       3 MOM      H120       1      0.156969994307      1.007947000000
   121 em_helix_mom_octamer_120       3 MOM      H121       1      0.139579996467      1.007947000000
   122 em_helix_mom_octamer_121       3 MOM      H122       1      0.141169995070      1.007947000000
   123 em_helix_mom_octamer_122       3 MOM      H123       1      0.132359996438      1.007947000000
   124 em_helix_mom_octamer_123       3 MOM      H124       1      0.080870002508      1.007947000000
   125 em_helix_mom_octamer_124       3 MOM      H125       1      0.044909998775      1.007947000000
   126 em_helix_mom_octamer_125       3 MOM      H126       1      0.044909998775      1.007947000000
   127 em_helix_mom_octamer_126       3 MOM      H127       1      0.044909998775      1.007947000000
   128 em_helix_mom_octamer_127       3 MOM      H128       1      0.312040001154      1.007947000000
   129 em_helix_mom_octamer_128       3 MOM      H129       1      0.135600000620      1.007947000000
   130 em_helix_mom_octamer_129       3 MOM      H130       1      0.137730002403      1.007947000000
   131 em_helix_mom_octamer_130       3 MOM      H131       1      0.147970005870      1.007947000000
   132 em_helix_mom_octamer_131       3 MOM      H132       1      0.137720003724      1.007947000000
   133 em_helix_mom_octamer_132       4 MOM      C133       1      0.116049997509     12.010780000000
   134 em_helix_mom_octamer_133       4 MOM      O134       1     -0.325049996376     15.999430000000
   135 em_helix_mom_octamer_134       4 MOM      C135       1      0.128869995475     12.010780000000
   136 em_helix_mom_octamer_135       4 MOM      C136       1     -0.155849993229     12.010780000000
   137 em_helix_mom_octamer_136       4 MOM      C137       1     -0.082510001957     12.010780000000
   138 em_helix_mom_octamer_137       4 MOM      C138       1     -0.064290001988     12.010780000000
   139 em_helix_mom_octamer_138       4 MOM      C139       1     -0.044679999352     12.010780000000
   140 em_helix_mom_octamer_139       4 MOM      C140       1     -0.087459996343     12.010780000000
   141 em_helix_mom_octamer_140       4 MOM      C141       1     -0.144989997149     12.010780000000
   142 em_helix_mom_octamer_141       4 MOM      C142       1      0.686619997025     12.010780000000
   143 em_helix_mom_octamer_142       4 MOM      O143       1     -0.604900002480     15.999430000000
   144 em_helix_mom_octamer_143       4 MOM      C144       1     -0.075049996376     12.010780000000
   145 em_helix_mom_octamer_144       4 MOM      C145       1     -0.141080006957     12.010780000000
   146 em_helix_mom_octamer_145       4 MOM      C146       1     -0.094609998167     12.010780000000
   147 em_helix_mom_octamer_146       4 MOM      C147       1      0.001120000030     12.010780000000
   148 em_helix_mom_octamer_147       4 MOM      C148       1     -0.037689998746     12.010780000000
   149 em_helix_mom_octamer_148       4 MOM      C149       1     -0.107119999826     12.010780000000
   150 em_helix_mom_octamer_149       4 MOM      C150       1     -0.098520003259     12.010780000000
   151 em_helix_mom_octamer_150       4 MOM      C151       1      0.148619994521     12.010780000000
   152 em_helix_mom_octamer_151       4 MOM      C152       1     -0.113300003111     12.010780000000
   153 em_helix_mom_octamer_152       4 MOM      N153       1     -0.565330028534     14.006720000000
   154 em_helix_mom_octamer_153       4 MOM      C154       1     -0.123750001192     12.010780000000
   155 em_helix_mom_octamer_154       4 MOM      C155       1     -0.126540005207     12.010780000000
   156 em_helix_mom_octamer_155       4 MOM      C156       1     -0.109370000660     12.010780000000
   157 em_helix_mom_octamer_156       4 MOM      C157       1     -0.202509999275     12.010780000000
   158 em_helix_mom_octamer_157       4 MOM      H158       1      0.043960001320      1.007947000000
   159 em_helix_mom_octamer_158       4 MOM      H159       1      0.043960001320      1.007947000000
   160 em_helix_mom_octamer_159       4 MOM      H160       1      0.043960001320      1.007947000000
   161 em_helix_mom_octamer_160       4 MOM      H161       1      0.153840005398      1.007947000000
   162 em_helix_mom_octamer_161       4 MOM      H162       1      0.146489992738      1.007947000000
   163 em_helix_mom_octamer_162       4 MOM      H163       1      0.136490002275      1.007947000000
   164 em_helix_mom_octamer_163       4 MOM      H164       1      0.156010001898      1.007947000000
   165 em_helix_mom_octamer_164       4 MOM      H165       1      0.139119997621      1.007947000000
   166 em_helix_mom_octamer_165       4 MOM      H166       1      0.137009993196      1.007947000000
   167 em_helix_mom_octamer_166       4 MOM      H167       1      0.132640004158      1.007947000000
   168 em_helix_mom_octamer_167       4 MOM      H168       1      0.075039997697      1.007947000000
   169 em_helix_mom_octamer_168       4 MOM      H169       1      0.048050001264      1.007947000000
   170 em_helix_mom_octamer_169       4 MOM      H170       1      0.048050001264      1.007947000000
   171 em_helix_mom_octamer_170       4 MOM      H171       1      0.048050001264      1.007947000000
   172 em_helix_mom_octamer_171       4 MOM      H172       1      0.315189987421      1.007947000000
   173 em_helix_mom_octamer_172       4 MOM      H173       1      0.134929999709      1.007947000000
   174 em_helix_mom_octamer_173       4 MOM      H174       1      0.137830004096      1.007947000000
   175 em_helix_mom_octamer_174       4 MOM      H175       1      0.138469994068      1.007947000000
   176 em_helix_mom_octamer_175       4 MOM      H176       1      0.142100006342      1.007947000000
   177 em_helix_mom_octamer_176       5 MOM      C177       1      0.113940000534     12.010780000000
   178 em_helix_mom_octamer_177       5 MOM      O178       1     -0.318100005388     15.999430000000
   179 em_helix_mom_octamer_178       5 MOM      C179       1      0.127079993486     12.010780000000
   180 em_helix_mom_octamer_179       5 MOM      C180       1     -0.211070001125     12.010780000000
   181 em_helix_mom_octamer_180       5 MOM      C181       1     -0.089429996908     12.010780000000
   182 em_helix_mom_octamer_181       5 MOM      C182       1     -0.066959999502     12.010780000000
   183 em_helix_mom_octamer_182       5 MOM      C183       1     -0.042199999094     12.010780000000
   184 em_helix_mom_octamer_183       5 MOM      C184       1     -0.098190002143     12.010780000000
   185 em_helix_mom_octamer_184       5 MOM      C185       1     -0.141440004110     12.010780000000
   186 em_helix_mom_octamer_185       5 MOM      C186       1      0.673479974270     12.010780000000
   187 em_helix_mom_octamer_186       5 MOM      O187       1     -0.617460012436     15.999430000000
   188 em_helix_mom_octamer_187       5 MOM      C188       1     -0.069629997015     12.010780000000
   189 em_helix_mom_octamer_188       5 MOM      C189       1     -0.130449995399     12.010780000000
   190 em_helix_mom_octamer_189       5 MOM      C190       1     -0.087329998612     12.010780000000
   191 em_helix_mom_octamer_190       5 MOM      C191       1      0.008779999800     12.010780000000
   192 em_helix_mom_octamer_191       5 MOM      C192       1     -0.044169999659     12.010780000000
   193 em_helix_mom_octamer_192       5 MOM      C193       1     -0.106229998171     12.010780000000
   194 em_helix_mom_octamer_193       5 MOM      C194       1     -0.098640002310     12.010780000000
   195 em_helix_mom_octamer_194       5 MOM      C195       1      0.152469992638     12.010780000000
   196 em_helix_mom_octamer_195       5 MOM      C196       1     -0.103469997644     12.010780000000
   197 em_helix_mom_octamer_196       5 MOM      N197       1     -0.563470005989     14.006720000000
   198 em_helix_mom_octamer_197       5 MOM      C198       1     -0.113090001047     12.010780000000
   199 em_helix_mom_octamer_198       5 MOM      C199       1     -0.132899999619     12.010780000000
   200 em_helix_mom_octamer_199       5 MOM      C200       1     -0.113580003381     12.010780000000
   201 em_helix_mom_octamer_200       5 MOM      C201       1     -0.149020001292     12.010780000000
   202 em_helix_mom_octamer_201       5 MOM      H202       1      0.044149998575      1.007947000000
   203 em_helix_mom_octamer_202       5 MOM      H203       1      0.044149998575      1.007947000000
   204 em_helix_mom_octamer_203       5 MOM      H204       1      0.044149998575      1.007947000000
   205 em_helix_mom_octamer_204       5 MOM      H205       1      0.139610007405      1.007947000000
   206 em_helix_mom_octamer_205       5 MOM      H206       1      0.135480001569      1.007947000000
   207 em_helix_mom_octamer_206       5 MOM      H207       1      0.137470006943      1.007947000000
   208 em_helix_mom_octamer_207       5 MOM      H208       1      0.157829999924      1.007947000000
   209 em_helix_mom_octamer_208       5 MOM      H209       1      0.141489997506      1.007947000000
   210 em_helix_mom_octamer_209       5 MOM      H210       1      0.144830003381      1.007947000000
   211 em_helix_mom_octamer_210       5 MOM      H211       1      0.131600007415      1.007947000000
   212 em_helix_mom_octamer_211       5 MOM      H212       1      0.089419998229      1.007947000000
   213 em_helix_mom_octamer_212       5 MOM      H213       1      0.045180000365      1.007947000000
   214 em_helix_mom_octamer_213       5 MOM      H214       1      0.045180000365      1.007947000000
   215 em_helix_mom_octamer_214       5 MOM      H215       1      0.045180000365      1.007947000000
   216 em_helix_mom_octamer_215       5 MOM      H216       1      0.302179992199      1.007947000000
   217 em_helix_mom_octamer_216       5 MOM      H217       1      0.137500002980      1.007947000000
   218 em_helix_mom_octamer_217       5 MOM      H218       1      0.129120007157      1.007947000000
   219 em_helix_mom_octamer_218       5 MOM      H219       1      0.131850004196      1.007947000000
   220 em_helix_mom_octamer_219       5 MOM      H220       1      0.156169995666      1.007947000000
   221 em_helix_mom_octamer_220       6 MOM      C221       1      0.111790001392     12.010780000000
   222 em_helix_mom_octamer_221       6 MOM      O222       1     -0.324270009995     15.999430000000
   223 em_helix_mom_octamer_222       6 MOM      C223       1      0.118680000305     12.010780000000
   224 em_helix_mom_octamer_223       6 MOM      C224       1     -0.199739992619     12.010780000000
   225 em_helix_mom_octamer_224       6 MOM      C225       1     -0.080040000379     12.010780000000
   226 em_helix_mom_octamer_225       6 MOM      C226       1     -0.071189999580     12.010780000000
   227 em_helix_mom_octamer_226       6 MOM      C227       1     -0.042229998857     12.010780000000
   228 em_helix_mom_octamer_227       6 MOM      C228       1     -0.091159999371     12.010780000000
   229 em_helix_mom_octamer_228       6 MOM      C229       1     -0.150440007448     12.010780000000
   230 em_helix_mom_octamer_229       6 MOM      C230       1      0.679040014744     12.010780000000
   231 em_helix_mom_octamer_230       6 MOM      O231       1     -0.602540016174     15.999430000000
   232 em_helix_mom_octamer_231       6 MOM      C232       1     -0.071189999580     12.010780000000
   233 em_helix_mom_octamer_232       6 MOM      C233       1     -0.140450000763     12.010780000000
   234 em_helix_mom_octamer_233       6 MOM      C234       1     -0.073519997299     12.010780000000
   235 em_helix_mom_octamer_234       6 MOM      C235       1      0.003150000004     12.010780000000
   236 em_helix_mom_octamer_235       6 MOM      C236       1     -0.045579999685     12.010780000000
   237 em_helix_mom_octamer_236       6 MOM      C237       1     -0.089989997447     12.010780000000
   238 em_helix_mom_octamer_237       6 MOM      C238       1     -0.106949999928     12.010780000000
   239 em_helix_mom_octamer_238       6 MOM      C239       1      0.151820003986     12.010780000000
   240 em_helix_mom_octamer_239       6 MOM      C240       1     -0.102569997311     12.010780000000
   241 em_helix_mom_octamer_240       6 MOM      N241       1     -0.553110003471     14.006720000000
   242 em_helix_mom_octamer_241       6 MOM      C242       1     -0.118589997292     12.010780000000
   243 em_helix_mom_octamer_242       6 MOM      C243       1     -0.135240003467     12.010780000000
   244 em_helix_mom_octamer_243       6 MOM      C244       1     -0.116099998355     12.010780000000
   245 em_helix_mom_octamer_244       6 MOM      C245       1     -0.143419995904     12.010780000000
   246 em_helix_mom_octamer_245       6 MOM      H246       1      0.043699998409      1.007947000000
   247 em_helix_mom_octamer_246       6 MOM      H247       1      0.043699998409      1.007947000000
   248 em_helix_mom_octamer_247       6 MOM      H248       1      0.043699998409      1.007947000000
   249 em_helix_mom_octamer_248       6 MOM      H249       1      0.139970004559      1.007947000000
   250 em_helix_mom_octamer_249       6 MOM      H250       1      0.148819997907      1.007947000000
   251 em_helix_mom_octamer_250       6 MOM      H251       1      0.133520007133      1.007947000000
   252 em_helix_mom_octamer_251       6 MOM      H252       1      0.154770001769      1.007947000000
   253 em_helix_mom_octamer_252       6 MOM      H253       1      0.133760005236      1.007947000000
   254 em_helix_mom_octamer_253       6 MOM      H254       1      0.147510007024      1.007947000000
   255 em_helix_mom_octamer_254       6 MOM      H255       1      0.146960005164      1.007947000000
   256 em_helix_mom_octamer_255       6 MOM      H256       1      0.090000003576      1.007947000000
   257 em_helix_mom_octamer_256       6 MOM      H257       1      0.045419998467      1.007947000000
   258 em_helix_mom_octamer_257       6 MOM      H258       1      0.045419998467      1.007947000000
   259 em_helix_mom_octamer_258       6 MOM      H259       1      0.045419998467      1.007947000000
   260 em_helix_mom_octamer_259       6 MOM      H260       1      0.304470002651      1.007947000000
   261 em_helix_mom_octamer_260       6 MOM      H261       1      0.125450000167      1.007947000000
   262 em_helix_mom_octamer_261       6 MOM      H262       1      0.134580001235      1.007947000000
   263 em_helix_mom_octamer_262       6 MOM      H263       1      0.132640004158      1.007947000000
   264 em_helix_mom_octamer_263       6 MOM      H264       1      0.155770003796      1.007947000000
   265 em_helix_mom_octamer_264       7 MOM      C265       1      0.114500001073     12.010780000000
   266 em_helix_mom_octamer_265       7 MOM      O266       1     -0.325370013714     15.999430000000
   267 em_helix_mom_octamer_266       7 MOM      C267       1      0.128670006990     12.010780000000
   268 em_helix_mom_octamer_267       7 MOM      C268       1     -0.193749994040     12.010780000000
   269 em_helix_mom_octamer_268       7 MOM      C269       1     -0.081940002739     12.010780000000
   270 em_helix_mom_octamer_269       7 MOM      C270       1     -0.065970003605     12.010780000000
   271 em_helix_mom_octamer_270       7 MOM      C271       1     -0.043609999120     12.010780000000
   272 em_helix_mom_octamer_271       7 MOM      C272       1     -0.085139997303     12.010780000000
   273 em_helix_mom_octamer_272       7 MOM      C273       1     -0.134509995580     12.010780000000
   274 em_helix_mom_octamer_273       7 MOM      C274       1      0.680199980736     12.010780000000
   275 em_helix_mom_octamer_274       7 MOM      O275       1     -0.617680013180     15.999430000000
   276 em_helix_mom_octamer_275       7 MOM      C276       1     -0.083570003510     12.010780000000
   277 em_helix_mom_octamer_276       7 MOM      C277       1     -0.145699992776     12.010780000000
   278 em_helix_mom_octamer_277       7 MOM      C278       1     -0.086989998817     12.010780000000
   279 em_helix_mom_octamer_278       7 MOM      C279       1     -0.000839999993     12.010780000000
   280 em_helix_mom_octamer_279       7 MOM      C280       1     -0.045979999006     12.010780000000
   281 em_helix_mom_octamer_280       7 MOM      C281       1     -0.091410003603     12.010780000000
   282 em_helix_mom_octamer_281       7 MOM      C282       1     -0.107129998505     12.010780000000
   283 em_helix_mom_octamer_282       7 MOM      C283       1      0.149880006909     12.010780000000
   284 em_helix_mom_octamer_283       7 MOM      C284       1     -0.100850000978     12.010780000000
   285 em_helix_mom_octamer_284       7 MOM      N285       1     -0.564849972725     14.006720000000
   286 em_helix_mom_octamer_285       7 MOM      C286       1     -0.121990002692     12.010780000000
   287 em_helix_mom_octamer_286       7 MOM      C287       1     -0.131510004401     12.010780000000
   288 em_helix_mom_octamer_287       7 MOM      C288       1     -0.106470003724     12.010780000000
   289 em_helix_mom_octamer_288       7 MOM      C289       1     -0.140340000391     12.010780000000
   290 em_helix_mom_octamer_289       7 MOM      H290       1      0.041060000658      1.007947000000
   291 em_helix_mom_octamer_290       7 MOM      H291       1      0.041060000658      1.007947000000
   292 em_helix_mom_octamer_291       7 MOM      H292       1      0.041060000658      1.007947000000
   293 em_helix_mom_octamer_292       7 MOM      H293       1      0.133369997144      1.007947000000
   294 em_helix_mom_octamer_293       7 MOM      H294       1      0.141619995236      1.007947000000
   295 em_helix_mom_octamer_294       7 MOM      H295       1      0.145290002227      1.007947000000
   296 em_helix_mom_octamer_295       7 MOM      H296       1      0.149519994855      1.007947000000
   297 em_helix_mom_octamer_296       7 MOM      H297       1      0.137860000134      1.007947000000
   298 em_helix_mom_octamer_297       7 MOM      H298       1      0.144519999623      1.007947000000
   299 em_helix_mom_octamer_298       7 MOM      H299       1      0.143600001931      1.007947000000
   300 em_helix_mom_octamer_299       7 MOM      H300       1      0.085600003600      1.007947000000
   301 em_helix_mom_octamer_300       7 MOM      H301       1      0.045180000365      1.007947000000
   302 em_helix_mom_octamer_301       7 MOM      H302       1      0.045180000365      1.007947000000
   303 em_helix_mom_octamer_302       7 MOM      H303       1      0.045180000365      1.007947000000
   304 em_helix_mom_octamer_303       7 MOM      H304       1      0.302060008049      1.007947000000
   305 em_helix_mom_octamer_304       7 MOM      H305       1      0.123109996319      1.007947000000
   306 em_helix_mom_octamer_305       7 MOM      H306       1      0.135399997234      1.007947000000
   307 em_helix_mom_octamer_306       7 MOM      H307       1      0.130850002170      1.007947000000
   308 em_helix_mom_octamer_307       7 MOM      H308       1      0.155990004539      1.007947000000
   309 em_helix_mom_octamer_308       8 MOM      C309       1      0.112420000136     12.010780000000
   310 em_helix_mom_octamer_309       8 MOM      O310       1     -0.322860002518     15.999430000000
   311 em_helix_mom_octamer_310       8 MOM      C311       1      0.126929998398     12.010780000000
   312 em_helix_mom_octamer_311       8 MOM      C312       1     -0.207880005240     12.010780000000
   313 em_helix_mom_octamer_312       8 MOM      C313       1     -0.085430003703     12.010780000000
   314 em_helix_mom_octamer_313       8 MOM      C314       1     -0.073689997196     12.010780000000
   315 em_helix_mom_octamer_314       8 MOM      C315       1     -0.040649998933     12.010780000000
   316 em_helix_mom_octamer_315       8 MOM      C316       1     -0.088459998369     12.010780000000
   317 em_helix_mom_octamer_316       8 MOM      C317       1     -0.135940000415     12.010780000000
   318 em_helix_mom_octamer_317       8 MOM      C318       1      0.675119996071     12.010780000000
   319 em_helix_mom_octamer_318       8 MOM      O319       1     -0.613929986954     15.999430000000
   320 em_helix_mom_octamer_319       8 MOM      C320       1     -0.060520000756     12.010780000000
   321 em_helix_mom_octamer_320       8 MOM      C321       1     -0.139750003815     12.010780000000
   322 em_helix_mom_octamer_321       8 MOM      C322       1     -0.089369997382     12.010780000000
   323 em_helix_mom_octamer_322       8 MOM      C323       1      0.004430000205     12.010780000000
   324 em_helix_mom_octamer_323       8 MOM      C324       1     -0.043299999088     12.010780000000
   325 em_helix_mom_octamer_324       8 MOM      C325       1     -0.105259999633     12.010780000000
   326 em_helix_mom_octamer_325       8 MOM      C326       1     -0.100029997528     12.010780000000
   327 em_helix_mom_octamer_326       8 MOM      C327       1      0.161860004067     12.010780000000
   328 em_helix_mom_octamer_327       8 MOM      C328       1     -0.117940001190     12.010780000000
   329 em_helix_mom_octamer_328       8 MOM      N329       1     -0.556840002537     14.006720000000
   330 em_helix_mom_octamer_329       8 MOM      C330       1     -0.100620001554     12.010780000000
   331 em_helix_mom_octamer_330       8 MOM      C331       1     -0.125540003181     12.010780000000
   332 em_helix_mom_octamer_331       8 MOM      C332       1     -0.104209996760     12.010780000000
   333 em_helix_mom_octamer_332       8 MOM      C333       1     -0.142149999738     12.010780000000
   334 em_helix_mom_octamer_333       8 MOM      H334       1      0.045159999281      1.007947000000
   335 em_helix_mom_octamer_334       8 MOM      H335       1      0.045159999281      1.007947000000
   336 em_helix_mom_octamer_335       8 MOM      H336       1      0.045159999281      1.007947000000
   337 em_helix_mom_octamer_336       8 MOM      H337       1      0.139149993658      1.007947000000
   338 em_helix_mom_octamer_337       8 MOM      H338       1      0.141019999981      1.007947000000
   339 em_helix_mom_octamer_338       8 MOM      H339       1      0.135389998555      1.007947000000
   340 em_helix_mom_octamer_339       8 MOM      H340       1      0.158869996667      1.007947000000
   341 em_helix_mom_octamer_340       8 MOM      H341       1      0.133870005608      1.007947000000
   342 em_helix_mom_octamer_341       8 MOM      H342       1      0.137290000916      1.007947000000
   343 em_helix_mom_octamer_342       8 MOM      H343       1      0.135419994593      1.007947000000
   344 em_helix_mom_octamer_343       8 MOM      H344       1      0.079520002007      1.007947000000
   345 em_helix_mom_octamer_344       8 MOM      H345       1      0.048760000616      1.007947000000
   346 em_helix_mom_octamer_345       8 MOM      H346       1      0.048760000616      1.007947000000
   347 em_helix_mom_octamer_346       8 MOM      H347       1      0.048760000616      1.007947000000
   348 em_helix_mom_octamer_347       8 MOM      H348       1      0.333649992943      1.007947000000
   349 em_helix_mom_octamer_348       8 MOM      H349       1      0.132149994373      1.007947000000
   350 em_helix_mom_octamer_349       8 MOM      H350       1      0.138310000300      1.007947000000
   351 em_helix_mom_octamer_350       8 MOM      H351       1      0.138300001621      1.007947000000
   352 em_helix_mom_octamer_351       8 MOM      H352       1      0.157250002027      1.007947000000
   353 em_helix_mom_octamer_352       9 CAP      C353       1      0.126090005040     12.010780000000
   354 em_helix_mom_octamer_353       9 CAP      O354       1     -0.438459992409     15.999430000000
   355 em_helix_mom_octamer_354       9 CAP      H355       1      0.048739999533      1.007947000000
   356 em_helix_mom_octamer_355       9 CAP      H356       1      0.048739999533      1.007947000000
   357 em_helix_mom_octamer_356       9 CAP      H357       1      0.048739999533      1.007947000000
   358 em_helix_mom_octamer_357      10 CAP      C358       1     -0.115240000188     12.010780000000
   359 em_helix_mom_octamer_358      10 CAP      C359       1      0.186900004745     12.010780000000
   360 em_helix_mom_octamer_359      10 CAP      C360       1     -0.115240000188     12.010780000000
   361 em_helix_mom_octamer_360      10 CAP      C361       1     -0.115240000188     12.010780000000
   362 em_helix_mom_octamer_361      10 CAP      O362       1     -0.443129986525     15.999430000000
   363 em_helix_mom_octamer_362      10 CAP      C363       1      0.753279983997     12.010780000000
   364 em_helix_mom_octamer_363      10 CAP      O364       1     -0.611479997635     15.999430000000
   365 em_helix_mom_octamer_364      10 CAP      H365       1      0.051300000399      1.007947000000
   366 em_helix_mom_octamer_365      10 CAP      H366       1      0.051300000399      1.007947000000
   367 em_helix_mom_octamer_366      10 CAP      H367       1      0.051300000399      1.007947000000
   368 em_helix_mom_octamer_367      10 CAP      H368       1      0.051300000399      1.007947000000
   369 em_helix_mom_octamer_368      10 CAP      H369       1      0.051300000399      1.007947000000
   370 em_helix_mom_octamer_369      10 CAP      H370       1      0.051300000399      1.007947000000
   371 em_helix_mom_octamer_370      10 CAP      H371       1      0.051300000399      1.007947000000
   372 em_helix_mom_octamer_371      10 CAP      H372       1      0.051300000399      1.007947000000
   373 em_helix_mom_octamer_372      10 CAP      H373       1      0.051300000399      1.007947000000

[ pairs ]
;ai    aj   funct
   109	   126	     1
   138	   163	     1
   212	   214	     1
   252	   253	     1
   326	   345	     1
   150	   169	     1
   284	   286	     1
   271	   289	     1
   187	   188	     1
   348	   362	     1
    98	   119	     1
   140	   143	     1
   360	   365	     1
    51	    74	     1
     8	    32	     1
    76	    77	     1
   238	   274	     1
    80	    81	     1
   262	   263	     1
   138	   176	     1
   344	   363	     1
    64	    84	     1
   362	   365	     1
    50	    57	     1
   153	   169	     1
    69	    73	     1
    21	    39	     1
   323	   343	     1
    50	    61	     1
    85	    86	     1
     2	     5	     1
   226	   244	     1
   179	   182	     1
   107	   123	     1
    89	    92	     1
   212	   215	     1
    10	    32	     1
   282	   304	     1
   315	   324	     1
    48	    51	     1
   317	   322	     1
    11	   353	     1
   229	   234	     1
    46	    73	     1
   281	   285	     1
    63	    99	     1
   325	   333	     1
     8	    11	     1
    21	    52	     1
    95	    98	     1
   120	   121	     1
   182	   200	     1
   194	   218	     1
   227	   232	     1
    49	    58	     1
    50	    78	     1
   149	   157	     1
    47	    50	     1
   288	   289	     1
   316	   340	     1
   315	   333	     1
   186	   189	     1
    68	    79	     1
    66	    79	     1
    77	    78	     1
    63	    97	     1
   142	   145	     1
    54	    57	     1
   270	   308	     1
   325	   328	     1
    15	    18	     1
   267	   290	     1
   286	   300	     1
   191	   219	     1
   179	   204	     1
   315	   338	     1
   268	   279	     1
    94	   119	     1
   229	   253	     1
   267	   270	     1
   222	   235	     1
   314	   337	     1
   228	   233	     1
   316	   321	     1
   273	   278	     1
    91	   114	     1
    61	    64	     1
    24	    25	     1
   148	   176	     1
   138	   161	     1
   360	   363	     1
   182	   210	     1
   135	   148	     1
    20	    22	     1
   358	   363	     1
   269	   278	     1
   282	   303	     1
   140	   147	     1
   270	   281	     1
   182	   189	     1
   182	   220	     1
   231	   232	     1
    63	    85	     1
   280	   283	     1
     7	    25	     1
   327	   331	     1
   194	   200	     1
   329	   345	     1
   318	   340	     1
     6	    24	     1
    52	    78	     1
   281	   307	     1
   325	   331	     1
   360	   371	     1
   226	   249	     1
    47	    70	     1
   358	   371	     1
    58	    75	     1
   135	   158	     1
   150	   174	     1
   311	   335	     1
   240	   260	     1
   234	   252	     1
    15	    30	     1
   113	   117	     1
   183	   188	     1
   266	   308	     1
    84	    99	     1
   124	   128	     1
   269	   272	     1
   152	   154	     1
   153	   184	     1
   362	   371	     1
   325	   344	     1
   234	   235	     1
   282	   288	     1
   322	   339	     1
   318	   321	     1
   260	   273	     1
   274	   277	     1
   150	   156	     1
   157	   161	     1
     9	    33	     1
   222	   264	     1
   270	   277	     1
    99	   100	     1
    84	    97	     1
   109	   127	     1
    17	    41	     1
   185	   190	     1
   152	   186	     1
    36	    54	     1
   249	   250	     1
   185	   209	     1
    22	    36	     1
   228	   254	     1
   282	   302	     1
    90	    93	     1
     6	    31	     1
   179	   203	     1
   230	   233	     1
   139	   162	     1
    16	    19	     1
   226	   251	     1
    91	    94	     1
   266	   279	     1
   194	   213	     1
   322	   340	     1
   300	   301	     1
   154	   168	     1
   191	   206	     1
   288	   305	     1
   323	   326	     1
   271	   297	     1
   179	   206	     1
    47	    74	     1
   149	   173	     1
   235	   243	     1
     7	    12	     1
   314	   321	     1
    54	    76	     1
   285	   301	     1
   184	   210	     1
   192	   218	     1
   226	   264	     1
   104	   132	     1
   184	   189	     1
   226	   229	     1
   310	   313	     1
   240	   242	     1
   227	   230	     1
    95	   104	     1
   186	   207	     1
   110	   123	     1
   190	   208	     1
   278	   279	     1
     5	     8	     1
    19	    35	     1
   217	   218	     1
   310	   323	     1
   109	   110	     1
   279	   282	     1
   241	   257	     1
   310	   352	     1
   124	   127	     1
    91	   104	     1
   107	   141	     1
    36	    39	     1
    61	    69	     1
   256	   274	     1
    29	    30	     1
   239	   243	     1
     7	    10	     1
   223	   246	     1
   148	   154	     1
    62	    81	     1
    65	    96	     1
    42	    43	     1
   105	   131	     1
   106	   125	     1
   105	   124	     1
    65	   100	     1
   179	   202	     1
   172	   187	     1
   361	   370	     1
    18	    42	     1
   238	   244	     1
   325	   351	     1
   191	   199	     1
   104	   110	     1
   172	   185	     1
   183	   201	     1
   149	   168	     1
   183	   209	     1
    59	    87	     1
   147	   175	     1
   196	   216	     1
   267	   292	     1
    14	    32	     1
   178	   181	     1
   242	   263	     1
   285	   286	     1
   190	   191	     1
    18	    37	     1
   193	   212	     1
   232	   254	     1
   344	   346	     1
     7	    30	     1
   276	   295	     1
     8	    13	     1
    66	    80	     1
    96	   103	     1
    33	    34	     1
   184	   208	     1
   225	   236	     1
    50	    53	     1
   223	   236	     1
   309	   333	     1
   240	   274	     1
   228	   252	     1
   200	   211	     1
    86	    87	     1
   281	   287	     1
    22	    35	     1
   261	   262	     1
   103	   111	     1
   284	   304	     1
     9	    14	     1
     5	    14	     1
   241	   258	     1
   270	   298	     1
    92	    95	     1
   237	   240	     1
   324	   352	     1
   201	   205	     1
    10	    13	     1
   138	   141	     1
    61	    67	     1
   327	   343	     1
   194	   230	     1
   107	   129	     1
   238	   257	     1
   121	   122	     1
    17	    25	     1
   195	   211	     1
    17	    43	     1
    51	    60	     1
   147	   167	     1
   349	   350	     1
   223	   226	     1
     2	    15	     1
    19	    41	     1
    97	   121	     1
   110	   131	     1
   184	   191	     1
   110	   124	     1
   269	   280	     1
   178	   205	     1
   194	   214	     1
   223	   248	     1
    20	    54	     1
    98	   101	     1
     4	    15	     1
    89	   113	     1
   329	   347	     1
   267	   294	     1
   183	   192	     1
   256	   259	     1
    32	    33	     1
   106	   142	     1
     9	   353	     1
   168	   170	     1
    64	    66	     1
    80	    82	     1
   149	   152	     1
   205	   206	     1
   283	   299	     1
     8	    34	     1
   245	   249	     1
    90	   117	     1
   154	   175	     1
   230	   252	     1
   271	   276	     1
   282	   301	     1
   320	   342	     1
   312	   323	     1
   128	   143	     1
    49	    52	     1
   312	   352	     1
    12	    34	     1
    80	    83	     1
   156	   157	     1
   309	   312	     1
    15	    35	     1
   329	   359	     1
   285	   320	     1
   228	   231	     1
    80	    98	     1
   192	   195	     1
   268	   271	     1
    40	    55	     1
    52	    59	     1
    16	    42	     1
   105	   129	     1
   311	   334	     1
   319	   320	     1
   183	   206	     1
   194	   215	     1
   106	   112	     1
    10	   355	     1
   139	   157	     1
    40	    53	     1
   133	   157	     1
   327	   349	     1
   238	   258	     1
   133	   136	     1
    52	    57	     1
    91	   116	     1
   325	   349	     1
   216	   231	     1
    10	   357	     1
   324	   350	     1
   195	   217	     1
   104	   107	     1
     1	    25	     1
    17	    20	     1
   271	   274	     1
   279	   307	     1
   105	   113	     1
     5	    16	     1
     3	    28	     1
   209	   210	     1
   180	   183	     1
   168	   172	     1
   361	   368	     1
   227	   236	     1
    61	    65	     1
    15	    23	     1
   103	   106	     1
   266	   269	     1
   134	   176	     1
     3	    30	     1
   136	   176	     1
    50	    68	     1
   154	   167	     1
   128	   141	     1
    80	    84	     1
    49	    69	     1
   305	   306	     1
   147	   155	     1
    93	    96	     1
   279	   299	     1
    36	    40	     1
   149	   175	     1
   165	   166	     1
   138	   149	     1
   316	   323	     1
    95	   118	     1
   313	   316	     1
     3	    26	     1
   173	   174	     1
   109	   140	     1
   272	   298	     1
   313	   322	     1
   310	   337	     1
   195	   231	     1
    91	   118	     1
    25	    29	     1
    73	    74	     1
   183	   186	     1
    16	    22	     1
   188	   210	     1
   361	   369	     1
   138	   156	     1
    19	    55	     1
   106	   126	     1
   280	   308	     1
   140	   166	     1
   186	   208	     1
   360	   372	     1
   358	   372	     1
   107	   143	     1
   306	   307	     1
    19	    53	     1
    65	    82	     1
   139	   142	     1
    93	   113	     1
    96	   120	     1
   340	   341	     1
   141	   146	     1
   227	   253	     1
   362	   372	     1
   130	   131	     1
   181	   190	     1
   129	   130	     1
   181	   201	     1
    21	    56	     1
   313	   324	     1
    11	    12	     1
   359	   364	     1
    65	    83	     1
    97	   102	     1
    51	    56	     1
   177	   201	     1
   283	   287	     1
   270	   293	     1
   182	   193	     1
   328	   363	     1
   274	   296	     1
   134	   161	     1
   361	   366	     1
   112	   123	     1
    52	    76	     1
   212	   216	     1
   241	   242	     1
   313	   333	     1
    16	    44	     1
   151	   173	     1
    96	    99	     1
   124	   125	     1
   324	   330	     1
   324	   327	     1
    56	    75	     1
   148	   174	     1
   151	   167	     1
   107	   111	     1
   361	   367	     1
   137	   140	     1
   280	   306	     1
   311	   336	     1
    46	    49	     1
   104	   130	     1
    47	    71	     1
   146	   164	     1
   234	   251	     1
   238	   260	     1
   332	   333	     1
     7	    33	     1
    41	    42	     1
    59	    62	     1
    36	    37	     1
   326	   347	     1
    60	    86	     1
   139	   165	     1
     6	    17	     1
   241	   276	     1
    47	    72	     1
   235	   263	     1
   153	   188	     1
    12	    31	     1
    53	    58	     1
   147	   150	     1
    61	    80	     1
   237	   243	     1
   266	   293	     1
   197	   213	     1
   226	   233	     1
    18	    54	     1
    94	   105	     1
   137	   157	     1
   293	   294	     1
   177	   180	     1
   280	   286	     1
    36	    38	     1
    62	    82	     1
    92	   132	     1
   270	   288	     1
   361	   365	     1
    10	    31	     1
    55	    56	     1
   311	   314	     1
    45	    48	     1
   288	   299	     1
    90	   103	     1
   161	   162	     1
   272	   279	     1
    22	    43	     1
   105	   109	     1
   274	   295	     1
   181	   192	     1
   328	   330	     1
   279	   287	     1
   326	   332	     1
   326	   348	     1
   242	   255	     1
   270	   295	     1
   241	   272	     1
     6	    13	     1
   344	   345	     1
    62	    83	     1
    60	    88	     1
   191	   211	     1
    62	    98	     1
   237	   256	     1
   314	   317	     1
   150	   170	     1
   140	   145	     1
   285	   316	     1
   270	   273	     1
   105	   111	     1
   146	   163	     1
   278	   296	     1
   333	   337	     1
   188	   207	     1
   271	   280	     1
   327	   364	     1
   103	   131	     1
   226	   237	     1
    10	   356	     1
   272	   277	     1
   149	   153	     1
   100	   122	     1
   149	   155	     1
   279	   294	     1
   285	   303	     1
   106	   127	     1
   153	   170	     1
   139	   144	     1
    61	    85	     1
   108	   110	     1
   151	   187	     1
    18	    39	     1
    60	    63	     1
   221	   224	     1
   208	   209	     1
    50	    73	     1
   281	   289	     1
   151	   155	     1
   124	   142	     1
   226	   254	     1
   151	   185	     1
   143	   144	     1
   223	   250	     1
   198	   212	     1
   237	   241	     1
   316	   342	     1
    50	    75	     1
    52	    55	     1
   281	   284	     1
    62	    84	     1
     3	    16	     1
   152	   172	     1
   312	   315	     1
   330	   344	     1
     8	    15	     1
    95	   121	     1
   328	   348	     1
    68	    85	     1
   296	   297	     1
   150	   171	     1
   361	   363	     1
   311	   324	     1
   222	   225	     1
   224	   227	     1
   197	   228	     1
    66	    87	     1
   150	   172	     1
    90	   132	     1
   224	   235	     1
    21	    37	     1
     6	    34	     1
   304	   317	     1
   285	   302	     1
   278	   295	     1
   153	   171	     1
   326	   346	     1
   136	   139	     1
   283	   317	     1
   191	   194	     1
   265	   289	     1
   198	   211	     1
   358	   370	     1
   235	   250	     1
   200	   217	     1
    21	    38	     1
   271	   294	     1
   140	   164	     1
    54	    75	     1
   311	   338	     1
   282	   318	     1
   141	   165	     1
   362	   370	     1
   238	   262	     1
   236	   242	     1
   225	   228	     1
   135	   138	     1
    94	   112	     1
   138	   166	     1
   193	   197	     1
   235	   238	     1
     6	    44	     1
   326	   350	     1
   109	   144	     1
    46	    88	     1
   282	   306	     1
   341	   342	     1
   196	   230	     1
     8	   354	     1
   267	   291	     1
   193	   217	     1
   103	   118	     1
   236	   239	     1
     5	    25	     1
   241	   259	     1
     3	    27	     1
    94	   122	     1
   197	   214	     1
   224	   264	     1
   268	   308	     1
   168	   171	     1
    59	    74	     1
    21	    22	     1
   275	   276	     1
   244	   261	     1
   269	   289	     1
    12	   354	     1
    94	   101	     1
   314	   342	     1
   148	   151	     1
   200	   201	     1
   315	   341	     1
   281	   305	     1
    46	    59	     1
   124	   126	     1
   326	   363	     1
    48	    88	     1
    62	    86	     1
   216	   229	     1
   134	   147	     1
   256	   260	     1
   117	   118	     1
    94	    97	     1
   218	   219	     1
   136	   147	     1
   168	   169	     1
   281	   300	     1
   320	   339	     1
   139	   148	     1
   337	   338	     1
     2	    44	     1
   286	   307	     1
   222	   249	     1
    17	    23	     1
   330	   351	     1
   109	   125	     1
   180	   220	     1
   318	   339	     1
   193	   201	     1
   230	   251	     1
    51	    77	     1
     4	    44	     1
    60	    66	     1
   197	   215	     1
   221	   245	     1
   315	   320	     1
    48	    59	     1
   227	   250	     1
     3	     6	     1
   112	   129	     1
   286	   299	     1
   323	   338	     1
   265	   268	     1
    93	   102	     1
    14	    31	     1
   178	   220	     1
   135	   160	     1
   317	   341	     1
   108	   128	     1
   348	   364	     1
    18	    24	     1
    17	    21	     1
   239	   275	     1
    92	   103	     1
    95	   100	     1
   164	   165	     1
   236	   262	     1
   316	   319	     1
    63	    67	     1
   332	   343	     1
   195	   229	     1
   193	   219	     1
   103	   123	     1
   174	   175	     1
   329	   346	     1
    58	    59	     1
   232	   251	     1
     7	    16	     1
   102	   120	     1
   239	   261	     1
   137	   146	     1
   112	   113	     1
     4	     7	     1
   156	   173	     1
   314	   339	     1
    51	    69	     1
   344	   347	     1
    47	    60	     1
    24	    35	     1
   105	   108	     1
   236	   264	     1
   156	   167	     1
    65	    81	     1
   238	   259	     1
   237	   261	     1
   327	   362	     1
   314	   332	     1
    96	   122	     1
    95	   113	     1
   300	   318	     1
   135	   162	     1
   212	   213	     1
   179	   192	     1
   330	   343	     1
   138	   145	     1
   102	   119	     1
   244	   255	     1
   323	   331	     1
    96	   101	     1
   256	   257	     1
    63	    79	     1
    18	    40	     1
   106	   128	     1
   225	   245	     1
   325	   329	     1
    93	   104	     1
   344	   348	     1
   194	   216	     1
   153	   154	     1
   150	   186	     1
   142	   164	     1
   314	   352	     1
   300	   304	     1
   198	   219	     1
   322	   323	     1
   358	   368	     1
   244	   245	     1
   197	   232	     1
   235	   255	     1
   362	   368	     1
    53	    77	     1
   182	   185	     1
    91	   115	     1
   144	   163	     1
   332	   349	     1
    65	    66	     1
   314	   325	     1
   350	   351	     1
     1	     4	     1
   272	   275	     1
   273	   297	     1
   180	   191	     1
    14	    15	     1
    17	    36	     1
   358	   369	     1
   144	   166	     1
   239	   255	     1
    45	    69	     1
   142	   163	     1
   362	   369	     1
   237	   263	     1
   289	   293	     1
   300	   303	     1
   178	   191	     1
   102	   103	     1
   256	   258	     1
   360	   373	     1
   358	   373	     1
   197	   198	     1
     6	    29	     1
   168	   186	     1
   182	   207	     1
    62	    68	     1
   315	   318	     1
   137	   148	     1
    58	    76	     1
   134	   137	     1
   242	   256	     1
    20	    40	     1
    24	    41	     1
   192	   220	     1
   223	   247	     1
   362	   373	     1
     6	     9	     1
    59	    67	     1
    56	    78	     1
    68	    69	     1
   196	   198	     1
    19	    23	     1
   181	   184	     1
    49	    60	     1
    61	    87	     1
   329	   330	     1
   267	   280	     1
    94	   132	     1
   190	   207	     1
   284	   318	     1
   146	   147	     1
   360	   366	     1
   193	   196	     1
   239	   273	     1
    94	   117	     1
   283	   305	     1
   237	   245	     1
   184	   187	     1
   362	   366	     1
   135	   159	     1
   106	   130	     1
    64	    98	     1
   323	   351	     1
   212	   230	     1
   304	   319	     1
   272	   296	     1
    18	    38	     1
   100	   119	     1
   147	   162	     1
     2	    29	     1
   108	   142	     1
   193	   199	     1
    50	    88	     1
   182	   205	     1
   195	   199	     1
   228	   235	     1
   300	   302	     1
   360	   367	     1
   260	   275	     1
    51	    54	     1
    98	   120	     1
    15	    43	     1
    59	    79	     1
   283	   319	     1
   253	   254	     1
   276	   298	     1
   225	   234	     1
   192	   198	     1
   362	   367	     1
   297	   298	     1
   227	   245	     1

[ bonds ]
;ai    aj   funct r k
     1      2      1      0.142589505373  306888.771877388994 
     1     26      1      0.109288837838  317186.185378679947 
     1     27      1      0.109288837838  317186.185378679947 
     1     28      1      0.109288837838  317186.185378679947 
     2      3      1      0.136294580649  356218.264001121745 
     3      4      1      0.138719322718  301905.092578520998 
     3     25      1      0.138719322718  301905.092578520998 
     4      5      1      0.138719322718  301905.092578520998 
     4     29      1      0.108535849592  332422.631675317942 
     5      6      1      0.138719322718  301905.092578520998 
     5     30      1      0.108535849592  332422.631675317942 
     6      7      1      0.145462892503  233580.248617646750 
     6     15      1      0.138719322718  301905.092578520998 
     7      8      1      0.138719322718  301905.092578520998 
     7     14      1      0.138719322718  301905.092578520998 
     8      9      1      0.138719322718  301905.092578520998 
     8     31      1      0.108535849592  332422.631675317942 
     9     10      1      0.145462892503  233580.248617646750 
     9     12      1      0.138719322718  301905.092578520998 
    10     11      1      0.122519838622  487602.327766196802 
    10    354      1      0.134574123280  252005.673256632901 
    12     13      1      0.138719322718  301905.092578520998 
    12     32      1      0.108535849592  332422.631675317942 
    13     14      1      0.138719322718  301905.092578520998 
    13     33      1      0.108535849592  332422.631675317942 
    14     34      1      0.108535849592  332422.631675317942 
    15     16      1      0.145462892503  233580.248617646750 
    15     25      1      0.138719322718  301905.092578520998 
    16     17      1      0.138719322718  301905.092578520998 
    16     24      1      0.138719322718  301905.092578520998 
    17     18      1      0.138719322718  301905.092578520998 
    17     35      1      0.108535849592  332422.631675317942 
    18     19      1      0.149864681646  242452.869388089370 
    18     22      1      0.138719322718  301905.092578520998 
    19     20      1      0.152190126495  221435.259290285845 
    19     21      1      0.145009858627  294600.927775905351 
    19     36      1      0.109288837838  317186.185378679947 
    20     37      1      0.109288837838  317186.185378679947 
    20     38      1      0.109288837838  317186.185378679947 
    20     39      1      0.109288837838  317186.185378679947 
    21     40      1      0.101948186503  422704.914414302446 
    21     54      1      0.138189777668  412347.817359175009 
    22     23      1      0.138719322718  301905.092578520998 
    22     41      1      0.108535849592  332422.631675317942 
    23     24      1      0.138719322718  301905.092578520998 
    23     42      1      0.108535849592  332422.631675317942 
    24     43      1      0.108535849592  332422.631675317942 
    25     44      1      0.108535849592  332422.631675317942 
    45     46      1      0.142589505373  306888.771877388994 
    45     70      1      0.109288837838  317186.185378679947 
    45     71      1      0.109288837838  317186.185378679947 
    45     72      1      0.109288837838  317186.185378679947 
    46     47      1      0.136294580649  356218.264001121745 
    47     48      1      0.138719322718  301905.092578520998 
    47     69      1      0.138719322718  301905.092578520998 
    48     49      1      0.138719322718  301905.092578520998 
    48     73      1      0.108535849592  332422.631675317942 
    49     50      1      0.138719322718  301905.092578520998 
    49     74      1      0.108535849592  332422.631675317942 
    50     51      1      0.145462892503  233580.248617646750 
    50     59      1      0.138719322718  301905.092578520998 
    51     52      1      0.138719322718  301905.092578520998 
    51     58      1      0.138719322718  301905.092578520998 
    52     53      1      0.138719322718  301905.092578520998 
    52     75      1      0.108535849592  332422.631675317942 
    53     54      1      0.145462892503  233580.248617646750 
    53     56      1      0.138719322718  301905.092578520998 
    54     55      1      0.122519838622  487602.327766196802 
    56     57      1      0.138719322718  301905.092578520998 
    56     76      1      0.108535849592  332422.631675317942 
    57     58      1      0.138719322718  301905.092578520998 
    57     77      1      0.108535849592  332422.631675317942 
    58     78      1      0.108535849592  332422.631675317942 
    59     60      1      0.145462892503  233580.248617646750 
    59     69      1      0.138719322718  301905.092578520998 
    60     61      1      0.138719322718  301905.092578520998 
    60     68      1      0.138719322718  301905.092578520998 
    61     62      1      0.138719322718  301905.092578520998 
    61     79      1      0.108535849592  332422.631675317942 
    62     63      1      0.149864681646  242452.869388089370 
    62     66      1      0.138719322718  301905.092578520998 
    63     64      1      0.152190126495  221435.259290285845 
    63     65      1      0.145009858627  294600.927775905351 
    63     80      1      0.109288837838  317186.185378679947 
    64     81      1      0.109288837838  317186.185378679947 
    64     82      1      0.109288837838  317186.185378679947 
    64     83      1      0.109288837838  317186.185378679947 
    65     84      1      0.101948186503  422704.914414302446 
    65     98      1      0.138189777668  412347.817359175009 
    66     67      1      0.138719322718  301905.092578520998 
    66     85      1      0.108535849592  332422.631675317942 
    67     68      1      0.138719322718  301905.092578520998 
    67     86      1      0.108535849592  332422.631675317942 
    68     87      1      0.108535849592  332422.631675317942 
    69     88      1      0.108535849592  332422.631675317942 
    89     90      1      0.142589505373  306888.771877388994 
    89    114      1      0.109288837838  317186.185378679947 
    89    115      1      0.109288837838  317186.185378679947 
    89    116      1      0.109288837838  317186.185378679947 
    90     91      1      0.136294580649  356218.264001121745 
    91     92      1      0.138719322718  301905.092578520998 
    91    113      1      0.138719322718  301905.092578520998 
    92     93      1      0.138719322718  301905.092578520998 
    92    117      1      0.108535849592  332422.631675317942 
    93     94      1      0.138719322718  301905.092578520998 
    93    118      1      0.108535849592  332422.631675317942 
    94     95      1      0.145462892503  233580.248617646750 
    94    103      1      0.138719322718  301905.092578520998 
    95     96      1      0.138719322718  301905.092578520998 
    95    102      1      0.138719322718  301905.092578520998 
    96     97      1      0.138719322718  301905.092578520998 
    96    119      1      0.108535849592  332422.631675317942 
    97     98      1      0.145462892503  233580.248617646750 
    97    100      1      0.138719322718  301905.092578520998 
    98     99      1      0.122519838622  487602.327766196802 
   100    101      1      0.138719322718  301905.092578520998 
   100    120      1      0.108535849592  332422.631675317942 
   101    102      1      0.138719322718  301905.092578520998 
   101    121      1      0.108535849592  332422.631675317942 
   102    122      1      0.108535849592  332422.631675317942 
   103    104      1      0.145462892503  233580.248617646750 
   103    113      1      0.138719322718  301905.092578520998 
   104    105      1      0.138719322718  301905.092578520998 
   104    112      1      0.138719322718  301905.092578520998 
   105    106      1      0.138719322718  301905.092578520998 
   105    123      1      0.108535849592  332422.631675317942 
   106    107      1      0.149864681646  242452.869388089370 
   106    110      1      0.138719322718  301905.092578520998 
   107    108      1      0.152190126495  221435.259290285845 
   107    109      1      0.145009858627  294600.927775905351 
   107    124      1      0.109288837838  317186.185378679947 
   108    125      1      0.109288837838  317186.185378679947 
   108    126      1      0.109288837838  317186.185378679947 
   108    127      1      0.109288837838  317186.185378679947 
   109    128      1      0.101948186503  422704.914414302446 
   109    142      1      0.138189777668  412347.817359175009 
   110    111      1      0.138719322718  301905.092578520998 
   110    129      1      0.108535849592  332422.631675317942 
   111    112      1      0.138719322718  301905.092578520998 
   111    130      1      0.108535849592  332422.631675317942 
   112    131      1      0.108535849592  332422.631675317942 
   113    132      1      0.108535849592  332422.631675317942 
   133    134      1      0.142589505373  306888.771877388994 
   133    158      1      0.109288837838  317186.185378679947 
   133    159      1      0.109288837838  317186.185378679947 
   133    160      1      0.109288837838  317186.185378679947 
   134    135      1      0.136294580649  356218.264001121745 
   135    136      1      0.138719322718  301905.092578520998 
   135    157      1      0.138719322718  301905.092578520998 
   136    137      1      0.138719322718  301905.092578520998 
   136    161      1      0.108535849592  332422.631675317942 
   137    138      1      0.138719322718  301905.092578520998 
   137    162      1      0.108535849592  332422.631675317942 
   138    139      1      0.145462892503  233580.248617646750 
   138    147      1      0.138719322718  301905.092578520998 
   139    140      1      0.138719322718  301905.092578520998 
   139    146      1      0.138719322718  301905.092578520998 
   140    141      1      0.138719322718  301905.092578520998 
   140    163      1      0.108535849592  332422.631675317942 
   141    142      1      0.145462892503  233580.248617646750 
   141    144      1      0.138719322718  301905.092578520998 
   142    143      1      0.122519838622  487602.327766196802 
   144    145      1      0.138719322718  301905.092578520998 
   144    164      1      0.108535849592  332422.631675317942 
   145    146      1      0.138719322718  301905.092578520998 
   145    165      1      0.108535849592  332422.631675317942 
   146    166      1      0.108535849592  332422.631675317942 
   147    148      1      0.145462892503  233580.248617646750 
   147    157      1      0.138719322718  301905.092578520998 
   148    149      1      0.138719322718  301905.092578520998 
   148    156      1      0.138719322718  301905.092578520998 
   149    150      1      0.138719322718  301905.092578520998 
   149    167      1      0.108535849592  332422.631675317942 
   150    151      1      0.149864681646  242452.869388089370 
   150    154      1      0.138719322718  301905.092578520998 
   151    152      1      0.152190126495  221435.259290285845 
   151    153      1      0.145009858627  294600.927775905351 
   151    168      1      0.109288837838  317186.185378679947 
   152    169      1      0.109288837838  317186.185378679947 
   152    170      1      0.109288837838  317186.185378679947 
   152    171      1      0.109288837838  317186.185378679947 
   153    172      1      0.101948186503  422704.914414302446 
   153    186      1      0.138189777668  412347.817359175009 
   154    155      1      0.138719322718  301905.092578520998 
   154    173      1      0.108535849592  332422.631675317942 
   155    156      1      0.138719322718  301905.092578520998 
   155    174      1      0.108535849592  332422.631675317942 
   156    175      1      0.108535849592  332422.631675317942 
   157    176      1      0.108535849592  332422.631675317942 
   177    178      1      0.142589505373  306888.771877388994 
   177    202      1      0.109288837838  317186.185378679947 
   177    203      1      0.109288837838  317186.185378679947 
   177    204      1      0.109288837838  317186.185378679947 
   178    179      1      0.136294580649  356218.264001121745 
   179    180      1      0.138719322718  301905.092578520998 
   179    201      1      0.138719322718  301905.092578520998 
   180    181      1      0.138719322718  301905.092578520998 
   180    205      1      0.108535849592  332422.631675317942 
   181    182      1      0.138719322718  301905.092578520998 
   181    206      1      0.108535849592  332422.631675317942 
   182    183      1      0.145462892503  233580.248617646750 
   182    191      1      0.138719322718  301905.092578520998 
   183    184      1      0.138719322718  301905.092578520998 
   183    190      1      0.138719322718  301905.092578520998 
   184    185      1      0.138719322718  301905.092578520998 
   184    207      1      0.108535849592  332422.631675317942 
   185    186      1      0.145462892503  233580.248617646750 
   185    188      1      0.138719322718  301905.092578520998 
   186    187      1      0.122519838622  487602.327766196802 
   188    189      1      0.138719322718  301905.092578520998 
   188    208      1      0.108535849592  332422.631675317942 
   189    190      1      0.138719322718  301905.092578520998 
   189    209      1      0.108535849592  332422.631675317942 
   190    210      1      0.108535849592  332422.631675317942 
   191    192      1      0.145462892503  233580.248617646750 
   191    201      1      0.138719322718  301905.092578520998 
   192    193      1      0.138719322718  301905.092578520998 
   192    200      1      0.138719322718  301905.092578520998 
   193    194      1      0.138719322718  301905.092578520998 
   193    211      1      0.108535849592  332422.631675317942 
   194    195      1      0.149864681646  242452.869388089370 
   194    198      1      0.138719322718  301905.092578520998 
   195    196      1      0.152190126495  221435.259290285845 
   195    197      1      0.145009858627  294600.927775905351 
   195    212      1      0.109288837838  317186.185378679947 
   196    213      1      0.109288837838  317186.185378679947 
   196    214      1      0.109288837838  317186.185378679947 
   196    215      1      0.109288837838  317186.185378679947 
   197    216      1      0.101948186503  422704.914414302446 
   197    230      1      0.138189777668  412347.817359175009 
   198    199      1      0.138719322718  301905.092578520998 
   198    217      1      0.108535849592  332422.631675317942 
   199    200      1      0.138719322718  301905.092578520998 
   199    218      1      0.108535849592  332422.631675317942 
   200    219      1      0.108535849592  332422.631675317942 
   201    220      1      0.108535849592  332422.631675317942 
   221    222      1      0.142589505373  306888.771877388994 
   221    246      1      0.109288837838  317186.185378679947 
   221    247      1      0.109288837838  317186.185378679947 
   221    248      1      0.109288837838  317186.185378679947 
   222    223      1      0.136294580649  356218.264001121745 
   223    224      1      0.138719322718  301905.092578520998 
   223    245      1      0.138719322718  301905.092578520998 
   224    225      1      0.138719322718  301905.092578520998 
   224    249      1      0.108535849592  332422.631675317942 
   225    226      1      0.138719322718  301905.092578520998 
   225    250      1      0.108535849592  332422.631675317942 
   226    227      1      0.145462892503  233580.248617646750 
   226    235      1      0.138719322718  301905.092578520998 
   227    228      1      0.138719322718  301905.092578520998 
   227    234      1      0.138719322718  301905.092578520998 
   228    229      1      0.138719322718  301905.092578520998 
   228    251      1      0.108535849592  332422.631675317942 
   229    230      1      0.145462892503  233580.248617646750 
   229    232      1      0.138719322718  301905.092578520998 
   230    231      1      0.122519838622  487602.327766196802 
   232    233      1      0.138719322718  301905.092578520998 
   232    252      1      0.108535849592  332422.631675317942 
   233    234      1      0.138719322718  301905.092578520998 
   233    253      1      0.108535849592  332422.631675317942 
   234    254      1      0.108535849592  332422.631675317942 
   235    236      1      0.145462892503  233580.248617646750 
   235    245      1      0.138719322718  301905.092578520998 
   236    237      1      0.138719322718  301905.092578520998 
   236    244      1      0.138719322718  301905.092578520998 
   237    238      1      0.138719322718  301905.092578520998 
   237    255      1      0.108535849592  332422.631675317942 
   238    239      1      0.149864681646  242452.869388089370 
   238    242      1      0.138719322718  301905.092578520998 
   239    240      1      0.152190126495  221435.259290285845 
   239    241      1      0.145009858627  294600.927775905351 
   239    256      1      0.109288837838  317186.185378679947 
   240    257      1      0.109288837838  317186.185378679947 
   240    258      1      0.109288837838  317186.185378679947 
   240    259      1      0.109288837838  317186.185378679947 
   241    260      1      0.101948186503  422704.914414302446 
   241    274      1      0.138189777668  412347.817359175009 
   242    243      1      0.138719322718  301905.092578520998 
   242    261      1      0.108535849592  332422.631675317942 
   243    244      1      0.138719322718  301905.092578520998 
   243    262      1      0.108535849592  332422.631675317942 
   244    263      1      0.108535849592  332422.631675317942 
   245    264      1      0.108535849592  332422.631675317942 
   265    266      1      0.142589505373  306888.771877388994 
   265    290      1      0.109288837838  317186.185378679947 
   265    291      1      0.109288837838  317186.185378679947 
   265    292      1      0.109288837838  317186.185378679947 
   266    267      1      0.136294580649  356218.264001121745 
   267    268      1      0.138719322718  301905.092578520998 
   267    289      1      0.138719322718  301905.092578520998 
   268    269      1      0.138719322718  301905.092578520998 
   268    293      1      0.108535849592  332422.631675317942 
   269    270      1      0.138719322718  301905.092578520998 
   269    294      1      0.108535849592  332422.631675317942 
   270    271      1      0.145462892503  233580.248617646750 
   270    279      1      0.138719322718  301905.092578520998 
   271    272      1      0.138719322718  301905.092578520998 
   271    278      1      0.138719322718  301905.092578520998 
   272    273      1      0.138719322718  301905.092578520998 
   272    295      1      0.108535849592  332422.631675317942 
   273    274      1      0.145462892503  233580.248617646750 
   273    276      1      0.138719322718  301905.092578520998 
   274    275      1      0.122519838622  487602.327766196802 
   276    277      1      0.138719322718  301905.092578520998 
   276    296      1      0.108535849592  332422.631675317942 
   277    278      1      0.138719322718  301905.092578520998 
   277    297      1      0.108535849592  332422.631675317942 
   278    298      1      0.108535849592  332422.631675317942 
   279    280      1      0.145462892503  233580.248617646750 
   279    289      1      0.138719322718  301905.092578520998 
   280    281      1      0.138719322718  301905.092578520998 
   280    288      1      0.138719322718  301905.092578520998 
   281    282      1      0.138719322718  301905.092578520998 
   281    299      1      0.108535849592  332422.631675317942 
   282    283      1      0.149864681646  242452.869388089370 
   282    286      1      0.138719322718  301905.092578520998 
   283    284      1      0.152190126495  221435.259290285845 
   283    285      1      0.145009858627  294600.927775905351 
   283    300      1      0.109288837838  317186.185378679947 
   284    301      1      0.109288837838  317186.185378679947 
   284    302      1      0.109288837838  317186.185378679947 
   284    303      1      0.109288837838  317186.185378679947 
   285    304      1      0.101948186503  422704.914414302446 
   285    318      1      0.138189777668  412347.817359175009 
   286    287      1      0.138719322718  301905.092578520998 
   286    305      1      0.108535849592  332422.631675317942 
   287    288      1      0.138719322718  301905.092578520998 
   287    306      1      0.108535849592  332422.631675317942 
   288    307      1      0.108535849592  332422.631675317942 
   289    308      1      0.108535849592  332422.631675317942 
   309    310      1      0.142589505373  306888.771877388994 
   309    334      1      0.109288837838  317186.185378679947 
   309    335      1      0.109288837838  317186.185378679947 
   309    336      1      0.109288837838  317186.185378679947 
   310    311      1      0.136294580649  356218.264001121745 
   311    312      1      0.138719322718  301905.092578520998 
   311    333      1      0.138719322718  301905.092578520998 
   312    313      1      0.138719322718  301905.092578520998 
   312    337      1      0.108535849592  332422.631675317942 
   313    314      1      0.138719322718  301905.092578520998 
   313    338      1      0.108535849592  332422.631675317942 
   314    315      1      0.145462892503  233580.248617646750 
   314    323      1      0.138719322718  301905.092578520998 
   315    316      1      0.138719322718  301905.092578520998 
   315    322      1      0.138719322718  301905.092578520998 
   316    317      1      0.138719322718  301905.092578520998 
   316    339      1      0.108535849592  332422.631675317942 
   317    318      1      0.145462892503  233580.248617646750 
   317    320      1      0.138719322718  301905.092578520998 
   318    319      1      0.122519838622  487602.327766196802 
   320    321      1      0.138719322718  301905.092578520998 
   320    340      1      0.108535849592  332422.631675317942 
   321    322      1      0.138719322718  301905.092578520998 
   321    341      1      0.108535849592  332422.631675317942 
   322    342      1      0.108535849592  332422.631675317942 
   323    324      1      0.145462892503  233580.248617646750 
   323    333      1      0.138719322718  301905.092578520998 
   324    325      1      0.138719322718  301905.092578520998 
   324    332      1      0.138719322718  301905.092578520998 
   325    326      1      0.138719322718  301905.092578520998 
   325    343      1      0.108535849592  332422.631675317942 
   326    327      1      0.149864681646  242452.869388089370 
   326    330      1      0.138719322718  301905.092578520998 
   327    328      1      0.152190126495  221435.259290285845 
   327    329      1      0.145009858627  294600.927775905351 
   327    344      1      0.109288837838  317186.185378679947 
   328    345      1      0.109288837838  317186.185378679947 
   328    346      1      0.109288837838  317186.185378679947 
   328    347      1      0.109288837838  317186.185378679947 
   329    348      1      0.101948186503  422704.914414302446 
   329    363      1      0.138189777668  412347.817359175009 
   330    331      1      0.138719322718  301905.092578520998 
   330    349      1      0.108535849592  332422.631675317942 
   331    332      1      0.138719322718  301905.092578520998 
   331    350      1      0.108535849592  332422.631675317942 
   332    351      1      0.108535849592  332422.631675317942 
   333    352      1      0.108535849592  332422.631675317942 
   353    354      1      0.142589505373  306888.771877388994 
   353    355      1      0.109288837838  317186.185378679947 
   353    356      1      0.109288837838  317186.185378679947 
   353    357      1      0.109288837838  317186.185378679947 
   358    359      1      0.152190126495  221435.259290285845 
   358    365      1      0.109288837838  317186.185378679947 
   358    366      1      0.109288837838  317186.185378679947 
   358    367      1      0.109288837838  317186.185378679947 
   359    360      1      0.152190126495  221435.259290285845 
   359    361      1      0.152190126495  221435.259290285845 
   359    362      1      0.142589505373  306888.771877388994 
   360    368      1      0.109288837838  317186.185378679947 
   360    369      1      0.109288837838  317186.185378679947 
   360    370      1      0.109288837838  317186.185378679947 
   361    371      1      0.109288837838  317186.185378679947 
   361    372      1      0.109288837838  317186.185378679947 
   361    373      1      0.109288837838  317186.185378679947 
   362    363      1      0.134574123280  252005.673256632901 
   363    364      1      0.122519838622  487602.327766196802 

[ angles ]
;ai    aj   ak   funct theta  k
     1      2      3      1     110.353880618100     544.678275491328 
     2      1     26      1     107.660782175200     425.669014814353 
     2      1     27      1     107.660782175200     425.669014814353 
     2      1     28      1     107.660782175200     425.669014814353 
     2      3      4      1     126.806242045100     484.492885493347 
     2      3     25      1     126.806242045100     484.492885493347 
     3      4      5      1     126.806242045100     484.492885493347 
     3      4     29      1     129.183592992600     285.070774532144 
     3     25     15      1     126.806242045100     484.492885493347 
     3     25     44      1     129.183592992600     285.070774532144 
     4      3     25      1     126.806242045100     484.492885493347 
     4      5      6      1     126.806242045100     484.492885493347 
     4      5     30      1     129.183592992600     285.070774532144 
     5      4     29      1     129.183592992600     285.070774532144 
     5      6      7      1     126.806242045100     484.492885493347 
     5      6     15      1     126.806242045100     484.492885493347 
     6      5     30      1     129.183592992600     285.070774532144 
     6      7      8      1     126.806242045100     484.492885493347 
     6      7     14      1     126.806242045100     484.492885493347 
     6     15     16      1     126.806242045100     484.492885493347 
     6     15     25      1     126.806242045100     484.492885493347 
     7      6     15      1     126.806242045100     484.492885493347 
     7      8      9      1     126.806242045100     484.492885493347 
     7      8     31      1     129.183592992600     285.070774532144 
     7     14     13      1     126.806242045100     484.492885493347 
     7     14     34      1     129.183592992600     285.070774532144 
     8      7     14      1     126.806242045100     484.492885493347 
     8      9     10      1     126.806242045100     484.492885493347 
     8      9     12      1     126.806242045100     484.492885493347 
     9      8     31      1     129.183592992600     285.070774532144 
     9     10     11      1     126.806242045100     484.492885493347 
     9     10    354      1     126.806242045100     484.492885493347 
     9     12     13      1     126.806242045100     484.492885493347 
     9     12     32      1     129.183592992600     285.070774532144 
    10      9     12      1     126.806242045100     484.492885493347 
    10    354    353      1     110.353880618100     544.678275491328 
    11     10    354      1     127.469141619100    1685.413543333009 
    12     13     14      1     126.806242045100     484.492885493347 
    12     13     33      1     129.183592992600     285.070774532144 
    13     12     32      1     129.183592992600     285.070774532144 
    13     14     34      1     129.183592992600     285.070774532144 
    14     13     33      1     129.183592992600     285.070774532144 
    15     16     17      1     126.806242045100     484.492885493347 
    15     16     24      1     126.806242045100     484.492885493347 
    15     25     44      1     129.183592992600     285.070774532144 
    16     15     25      1     126.806242045100     484.492885493347 
    16     17     18      1     126.806242045100     484.492885493347 
    16     17     35      1     129.183592992600     285.070774532144 
    16     24     23      1     126.806242045100     484.492885493347 
    16     24     43      1     129.183592992600     285.070774532144 
    17     16     24      1     126.806242045100     484.492885493347 
    17     18     19      1     126.806242045100     484.492885493347 
    17     18     22      1     126.806242045100     484.492885493347 
    18     17     35      1     129.183592992600     285.070774532144 
    18     19     20      1     107.660782175200     425.669014814353 
    18     19     21      1     107.660782175200     425.669014814353 
    18     19     36      1     107.660782175200     425.669014814353 
    18     22     23      1     126.806242045100     484.492885493347 
    18     22     41      1     129.183592992600     285.070774532144 
    19     18     22      1     126.806242045100     484.492885493347 
    19     20     37      1     107.660782175200     425.669014814353 
    19     20     38      1     107.660782175200     425.669014814353 
    19     20     39      1     107.660782175200     425.669014814353 
    19     21     40      1     115.507132767400     530.901282784327 
    19     21     54      1     117.346557051400     463.769802376852 
    20     19     21      1     107.660782175200     425.669014814353 
    20     19     36      1     107.660782175200     425.669014814353 
    21     19     36      1     107.660782175200     425.669014814353 
    21     54     53      1     126.806242045100     484.492885493347 
    21     54     55      1     126.806242045100     484.492885493347 
    22     23     24      1     126.806242045100     484.492885493347 
    22     23     42      1     129.183592992600     285.070774532144 
    23     22     41      1     129.183592992600     285.070774532144 
    23     24     43      1     129.183592992600     285.070774532144 
    24     23     42      1     129.183592992600     285.070774532144 
    26      1     27      1     115.603099953300     408.161690475075 
    26      1     28      1     115.603099953300     408.161690475075 
    27      1     28      1     115.603099953300     408.161690475075 
    37     20     38      1     115.603099953300     408.161690475075 
    37     20     39      1     115.603099953300     408.161690475075 
    38     20     39      1     115.603099953300     408.161690475075 
    40     21     54      1     115.507132767400     530.901282784327 
    45     46     47      1     110.353880618100     544.678275491328 
    46     45     70      1     107.660782175200     425.669014814353 
    46     45     71      1     107.660782175200     425.669014814353 
    46     45     72      1     107.660782175200     425.669014814353 
    46     47     48      1     126.806242045100     484.492885493347 
    46     47     69      1     126.806242045100     484.492885493347 
    47     48     49      1     126.806242045100     484.492885493347 
    47     48     73      1     129.183592992600     285.070774532144 
    47     69     59      1     126.806242045100     484.492885493347 
    47     69     88      1     129.183592992600     285.070774532144 
    48     47     69      1     126.806242045100     484.492885493347 
    48     49     50      1     126.806242045100     484.492885493347 
    48     49     74      1     129.183592992600     285.070774532144 
    49     48     73      1     129.183592992600     285.070774532144 
    49     50     51      1     126.806242045100     484.492885493347 
    49     50     59      1     126.806242045100     484.492885493347 
    50     49     74      1     129.183592992600     285.070774532144 
    50     51     52      1     126.806242045100     484.492885493347 
    50     51     58      1     126.806242045100     484.492885493347 
    50     59     60      1     126.806242045100     484.492885493347 
    50     59     69      1     126.806242045100     484.492885493347 
    51     50     59      1     126.806242045100     484.492885493347 
    51     52     53      1     126.806242045100     484.492885493347 
    51     52     75      1     129.183592992600     285.070774532144 
    51     58     57      1     126.806242045100     484.492885493347 
    51     58     78      1     129.183592992600     285.070774532144 
    52     51     58      1     126.806242045100     484.492885493347 
    52     53     54      1     126.806242045100     484.492885493347 
    52     53     56      1     126.806242045100     484.492885493347 
    53     52     75      1     129.183592992600     285.070774532144 
    53     54     55      1     126.806242045100     484.492885493347 
    53     56     57      1     126.806242045100     484.492885493347 
    53     56     76      1     129.183592992600     285.070774532144 
    54     53     56      1     126.806242045100     484.492885493347 
    56     57     58      1     126.806242045100     484.492885493347 
    56     57     77      1     129.183592992600     285.070774532144 
    57     56     76      1     129.183592992600     285.070774532144 
    57     58     78      1     129.183592992600     285.070774532144 
    58     57     77      1     129.183592992600     285.070774532144 
    59     60     61      1     126.806242045100     484.492885493347 
    59     60     68      1     126.806242045100     484.492885493347 
    59     69     88      1     129.183592992600     285.070774532144 
    60     59     69      1     126.806242045100     484.492885493347 
    60     61     62      1     126.806242045100     484.492885493347 
    60     61     79      1     129.183592992600     285.070774532144 
    60     68     67      1     126.806242045100     484.492885493347 
    60     68     87      1     129.183592992600     285.070774532144 
    61     60     68      1     126.806242045100     484.492885493347 
    61     62     63      1     126.806242045100     484.492885493347 
    61     62     66      1     126.806242045100     484.492885493347 
    62     61     79      1     129.183592992600     285.070774532144 
    62     63     64      1     107.660782175200     425.669014814353 
    62     63     65      1     107.660782175200     425.669014814353 
    62     63     80      1     107.660782175200     425.669014814353 
    62     66     67      1     126.806242045100     484.492885493347 
    62     66     85      1     129.183592992600     285.070774532144 
    63     62     66      1     126.806242045100     484.492885493347 
    63     64     81      1     107.660782175200     425.669014814353 
    63     64     82      1     107.660782175200     425.669014814353 
    63     64     83      1     107.660782175200     425.669014814353 
    63     65     84      1     115.507132767400     530.901282784327 
    63     65     98      1     117.346557051400     463.769802376852 
    64     63     65      1     107.660782175200     425.669014814353 
    64     63     80      1     107.660782175200     425.669014814353 
    65     63     80      1     107.660782175200     425.669014814353 
    65     98     97      1     126.806242045100     484.492885493347 
    65     98     99      1     126.806242045100     484.492885493347 
    66     67     68      1     126.806242045100     484.492885493347 
    66     67     86      1     129.183592992600     285.070774532144 
    67     66     85      1     129.183592992600     285.070774532144 
    67     68     87      1     129.183592992600     285.070774532144 
    68     67     86      1     129.183592992600     285.070774532144 
    70     45     71      1     115.603099953300     408.161690475075 
    70     45     72      1     115.603099953300     408.161690475075 
    71     45     72      1     115.603099953300     408.161690475075 
    81     64     82      1     115.603099953300     408.161690475075 
    81     64     83      1     115.603099953300     408.161690475075 
    82     64     83      1     115.603099953300     408.161690475075 
    84     65     98      1     115.507132767400     530.901282784327 
    89     90     91      1     110.353880618100     544.678275491328 
    90     89    114      1     107.660782175200     425.669014814353 
    90     89    115      1     107.660782175200     425.669014814353 
    90     89    116      1     107.660782175200     425.669014814353 
    90     91     92      1     126.806242045100     484.492885493347 
    90     91    113      1     126.806242045100     484.492885493347 
    91     92     93      1     126.806242045100     484.492885493347 
    91     92    117      1     129.183592992600     285.070774532144 
    91    113    103      1     126.806242045100     484.492885493347 
    91    113    132      1     129.183592992600     285.070774532144 
    92     91    113      1     126.806242045100     484.492885493347 
    92     93     94      1     126.806242045100     484.492885493347 
    92     93    118      1     129.183592992600     285.070774532144 
    93     92    117      1     129.183592992600     285.070774532144 
    93     94     95      1     126.806242045100     484.492885493347 
    93     94    103      1     126.806242045100     484.492885493347 
    94     93    118      1     129.183592992600     285.070774532144 
    94     95     96      1     126.806242045100     484.492885493347 
    94     95    102      1     126.806242045100     484.492885493347 
    94    103    104      1     126.806242045100     484.492885493347 
    94    103    113      1     126.806242045100     484.492885493347 
    95     94    103      1     126.806242045100     484.492885493347 
    95     96     97      1     126.806242045100     484.492885493347 
    95     96    119      1     129.183592992600     285.070774532144 
    95    102    101      1     126.806242045100     484.492885493347 
    95    102    122      1     129.183592992600     285.070774532144 
    96     95    102      1     126.806242045100     484.492885493347 
    96     97     98      1     126.806242045100     484.492885493347 
    96     97    100      1     126.806242045100     484.492885493347 
    97     96    119      1     129.183592992600     285.070774532144 
    97     98     99      1     126.806242045100     484.492885493347 
    97    100    101      1     126.806242045100     484.492885493347 
    97    100    120      1     129.183592992600     285.070774532144 
    98     97    100      1     126.806242045100     484.492885493347 
   100    101    102      1     126.806242045100     484.492885493347 
   100    101    121      1     129.183592992600     285.070774532144 
   101    100    120      1     129.183592992600     285.070774532144 
   101    102    122      1     129.183592992600     285.070774532144 
   102    101    121      1     129.183592992600     285.070774532144 
   103    104    105      1     126.806242045100     484.492885493347 
   103    104    112      1     126.806242045100     484.492885493347 
   103    113    132      1     129.183592992600     285.070774532144 
   104    103    113      1     126.806242045100     484.492885493347 
   104    105    106      1     126.806242045100     484.492885493347 
   104    105    123      1     129.183592992600     285.070774532144 
   104    112    111      1     126.806242045100     484.492885493347 
   104    112    131      1     129.183592992600     285.070774532144 
   105    104    112      1     126.806242045100     484.492885493347 
   105    106    107      1     126.806242045100     484.492885493347 
   105    106    110      1     126.806242045100     484.492885493347 
   106    105    123      1     129.183592992600     285.070774532144 
   106    107    108      1     107.660782175200     425.669014814353 
   106    107    109      1     107.660782175200     425.669014814353 
   106    107    124      1     107.660782175200     425.669014814353 
   106    110    111      1     126.806242045100     484.492885493347 
   106    110    129      1     129.183592992600     285.070774532144 
   107    106    110      1     126.806242045100     484.492885493347 
   107    108    125      1     107.660782175200     425.669014814353 
   107    108    126      1     107.660782175200     425.669014814353 
   107    108    127      1     107.660782175200     425.669014814353 
   107    109    128      1     115.507132767400     530.901282784327 
   107    109    142      1     117.346557051400     463.769802376852 
   108    107    109      1     107.660782175200     425.669014814353 
   108    107    124      1     107.660782175200     425.669014814353 
   109    107    124      1     107.660782175200     425.669014814353 
   109    142    141      1     126.806242045100     484.492885493347 
   109    142    143      1     126.806242045100     484.492885493347 
   110    111    112      1     126.806242045100     484.492885493347 
   110    111    130      1     129.183592992600     285.070774532144 
   111    110    129      1     129.183592992600     285.070774532144 
   111    112    131      1     129.183592992600     285.070774532144 
   112    111    130      1     129.183592992600     285.070774532144 
   114     89    115      1     115.603099953300     408.161690475075 
   114     89    116      1     115.603099953300     408.161690475075 
   115     89    116      1     115.603099953300     408.161690475075 
   125    108    126      1     115.603099953300     408.161690475075 
   125    108    127      1     115.603099953300     408.161690475075 
   126    108    127      1     115.603099953300     408.161690475075 
   128    109    142      1     115.507132767400     530.901282784327 
   133    134    135      1     110.353880618100     544.678275491328 
   134    133    158      1     107.660782175200     425.669014814353 
   134    133    159      1     107.660782175200     425.669014814353 
   134    133    160      1     107.660782175200     425.669014814353 
   134    135    136      1     126.806242045100     484.492885493347 
   134    135    157      1     126.806242045100     484.492885493347 
   135    136    137      1     126.806242045100     484.492885493347 
   135    136    161      1     129.183592992600     285.070774532144 
   135    157    147      1     126.806242045100     484.492885493347 
   135    157    176      1     129.183592992600     285.070774532144 
   136    135    157      1     126.806242045100     484.492885493347 
   136    137    138      1     126.806242045100     484.492885493347 
   136    137    162      1     129.183592992600     285.070774532144 
   137    136    161      1     129.183592992600     285.070774532144 
   137    138    139      1     126.806242045100     484.492885493347 
   137    138    147      1     126.806242045100     484.492885493347 
   138    137    162      1     129.183592992600     285.070774532144 
   138    139    140      1     126.806242045100     484.492885493347 
   138    139    146      1     126.806242045100     484.492885493347 
   138    147    148      1     126.806242045100     484.492885493347 
   138    147    157      1     126.806242045100     484.492885493347 
   139    138    147      1     126.806242045100     484.492885493347 
   139    140    141      1     126.806242045100     484.492885493347 
   139    140    163      1     129.183592992600     285.070774532144 
   139    146    145      1     126.806242045100     484.492885493347 
   139    146    166      1     129.183592992600     285.070774532144 
   140    139    146      1     126.806242045100     484.492885493347 
   140    141    142      1     126.806242045100     484.492885493347 
   140    141    144      1     126.806242045100     484.492885493347 
   141    140    163      1     129.183592992600     285.070774532144 
   141    142    143      1     126.806242045100     484.492885493347 
   141    144    145      1     126.806242045100     484.492885493347 
   141    144    164      1     129.183592992600     285.070774532144 
   142    141    144      1     126.806242045100     484.492885493347 
   144    145    146      1     126.806242045100     484.492885493347 
   144    145    165      1     129.183592992600     285.070774532144 
   145    144    164      1     129.183592992600     285.070774532144 
   145    146    166      1     129.183592992600     285.070774532144 
   146    145    165      1     129.183592992600     285.070774532144 
   147    148    149      1     126.806242045100     484.492885493347 
   147    148    156      1     126.806242045100     484.492885493347 
   147    157    176      1     129.183592992600     285.070774532144 
   148    147    157      1     126.806242045100     484.492885493347 
   148    149    150      1     126.806242045100     484.492885493347 
   148    149    167      1     129.183592992600     285.070774532144 
   148    156    155      1     126.806242045100     484.492885493347 
   148    156    175      1     129.183592992600     285.070774532144 
   149    148    156      1     126.806242045100     484.492885493347 
   149    150    151      1     126.806242045100     484.492885493347 
   149    150    154      1     126.806242045100     484.492885493347 
   150    149    167      1     129.183592992600     285.070774532144 
   150    151    152      1     107.660782175200     425.669014814353 
   150    151    153      1     107.660782175200     425.669014814353 
   150    151    168      1     107.660782175200     425.669014814353 
   150    154    155      1     126.806242045100     484.492885493347 
   150    154    173      1     129.183592992600     285.070774532144 
   151    150    154      1     126.806242045100     484.492885493347 
   151    152    169      1     107.660782175200     425.669014814353 
   151    152    170      1     107.660782175200     425.669014814353 
   151    152    171      1     107.660782175200     425.669014814353 
   151    153    172      1     115.507132767400     530.901282784327 
   151    153    186      1     117.346557051400     463.769802376852 
   152    151    153      1     107.660782175200     425.669014814353 
   152    151    168      1     107.660782175200     425.669014814353 
   153    151    168      1     107.660782175200     425.669014814353 
   153    186    185      1     126.806242045100     484.492885493347 
   153    186    187      1     126.806242045100     484.492885493347 
   154    155    156      1     126.806242045100     484.492885493347 
   154    155    174      1     129.183592992600     285.070774532144 
   155    154    173      1     129.183592992600     285.070774532144 
   155    156    175      1     129.183592992600     285.070774532144 
   156    155    174      1     129.183592992600     285.070774532144 
   158    133    159      1     115.603099953300     408.161690475075 
   158    133    160      1     115.603099953300     408.161690475075 
   159    133    160      1     115.603099953300     408.161690475075 
   169    152    170      1     115.603099953300     408.161690475075 
   169    152    171      1     115.603099953300     408.161690475075 
   170    152    171      1     115.603099953300     408.161690475075 
   172    153    186      1     115.507132767400     530.901282784327 
   177    178    179      1     110.353880618100     544.678275491328 
   178    177    202      1     107.660782175200     425.669014814353 
   178    177    203      1     107.660782175200     425.669014814353 
   178    177    204      1     107.660782175200     425.669014814353 
   178    179    180      1     126.806242045100     484.492885493347 
   178    179    201      1     126.806242045100     484.492885493347 
   179    180    181      1     126.806242045100     484.492885493347 
   179    180    205      1     129.183592992600     285.070774532144 
   179    201    191      1     126.806242045100     484.492885493347 
   179    201    220      1     129.183592992600     285.070774532144 
   180    179    201      1     126.806242045100     484.492885493347 
   180    181    182      1     126.806242045100     484.492885493347 
   180    181    206      1     129.183592992600     285.070774532144 
   181    180    205      1     129.183592992600     285.070774532144 
   181    182    183      1     126.806242045100     484.492885493347 
   181    182    191      1     126.806242045100     484.492885493347 
   182    181    206      1     129.183592992600     285.070774532144 
   182    183    184      1     126.806242045100     484.492885493347 
   182    183    190      1     126.806242045100     484.492885493347 
   182    191    192      1     126.806242045100     484.492885493347 
   182    191    201      1     126.806242045100     484.492885493347 
   183    182    191      1     126.806242045100     484.492885493347 
   183    184    185      1     126.806242045100     484.492885493347 
   183    184    207      1     129.183592992600     285.070774532144 
   183    190    189      1     126.806242045100     484.492885493347 
   183    190    210      1     129.183592992600     285.070774532144 
   184    183    190      1     126.806242045100     484.492885493347 
   184    185    186      1     126.806242045100     484.492885493347 
   184    185    188      1     126.806242045100     484.492885493347 
   185    184    207      1     129.183592992600     285.070774532144 
   185    186    187      1     126.806242045100     484.492885493347 
   185    188    189      1     126.806242045100     484.492885493347 
   185    188    208      1     129.183592992600     285.070774532144 
   186    185    188      1     126.806242045100     484.492885493347 
   188    189    190      1     126.806242045100     484.492885493347 
   188    189    209      1     129.183592992600     285.070774532144 
   189    188    208      1     129.183592992600     285.070774532144 
   189    190    210      1     129.183592992600     285.070774532144 
   190    189    209      1     129.183592992600     285.070774532144 
   191    192    193      1     126.806242045100     484.492885493347 
   191    192    200      1     126.806242045100     484.492885493347 
   191    201    220      1     129.183592992600     285.070774532144 
   192    191    201      1     126.806242045100     484.492885493347 
   192    193    194      1     126.806242045100     484.492885493347 
   192    193    211      1     129.183592992600     285.070774532144 
   192    200    199      1     126.806242045100     484.492885493347 
   192    200    219      1     129.183592992600     285.070774532144 
   193    192    200      1     126.806242045100     484.492885493347 
   193    194    195      1     126.806242045100     484.492885493347 
   193    194    198      1     126.806242045100     484.492885493347 
   194    193    211      1     129.183592992600     285.070774532144 
   194    195    196      1     107.660782175200     425.669014814353 
   194    195    197      1     107.660782175200     425.669014814353 
   194    195    212      1     107.660782175200     425.669014814353 
   194    198    199      1     126.806242045100     484.492885493347 
   194    198    217      1     129.183592992600     285.070774532144 
   195    194    198      1     126.806242045100     484.492885493347 
   195    196    213      1     107.660782175200     425.669014814353 
   195    196    214      1     107.660782175200     425.669014814353 
   195    196    215      1     107.660782175200     425.669014814353 
   195    197    216      1     115.507132767400     530.901282784327 
   195    197    230      1     117.346557051400     463.769802376852 
   196    195    197      1     107.660782175200     425.669014814353 
   196    195    212      1     107.660782175200     425.669014814353 
   197    195    212      1     107.660782175200     425.669014814353 
   197    230    229      1     126.806242045100     484.492885493347 
   197    230    231      1     126.806242045100     484.492885493347 
   198    199    200      1     126.806242045100     484.492885493347 
   198    199    218      1     129.183592992600     285.070774532144 
   199    198    217      1     129.183592992600     285.070774532144 
   199    200    219      1     129.183592992600     285.070774532144 
   200    199    218      1     129.183592992600     285.070774532144 
   202    177    203      1     115.603099953300     408.161690475075 
   202    177    204      1     115.603099953300     408.161690475075 
   203    177    204      1     115.603099953300     408.161690475075 
   213    196    214      1     115.603099953300     408.161690475075 
   213    196    215      1     115.603099953300     408.161690475075 
   214    196    215      1     115.603099953300     408.161690475075 
   216    197    230      1     115.507132767400     530.901282784327 
   221    222    223      1     110.353880618100     544.678275491328 
   222    221    246      1     107.660782175200     425.669014814353 
   222    221    247      1     107.660782175200     425.669014814353 
   222    221    248      1     107.660782175200     425.669014814353 
   222    223    224      1     126.806242045100     484.492885493347 
   222    223    245      1     126.806242045100     484.492885493347 
   223    224    225      1     126.806242045100     484.492885493347 
   223    224    249      1     129.183592992600     285.070774532144 
   223    245    235      1     126.806242045100     484.492885493347 
   223    245    264      1     129.183592992600     285.070774532144 
   224    223    245      1     126.806242045100     484.492885493347 
   224    225    226      1     126.806242045100     484.492885493347 
   224    225    250      1     129.183592992600     285.070774532144 
   225    224    249      1     129.183592992600     285.070774532144 
   225    226    227      1     126.806242045100     484.492885493347 
   225    226    235      1     126.806242045100     484.492885493347 
   226    225    250      1     129.183592992600     285.070774532144 
   226    227    228      1     126.806242045100     484.492885493347 
   226    227    234      1     126.806242045100     484.492885493347 
   226    235    236      1     126.806242045100     484.492885493347 
   226    235    245      1     126.806242045100     484.492885493347 
   227    226    235      1     126.806242045100     484.492885493347 
   227    228    229      1     126.806242045100     484.492885493347 
   227    228    251      1     129.183592992600     285.070774532144 
   227    234    233      1     126.806242045100     484.492885493347 
   227    234    254      1     129.183592992600     285.070774532144 
   228    227    234      1     126.806242045100     484.492885493347 
   228    229    230      1     126.806242045100     484.492885493347 
   228    229    232      1     126.806242045100     484.492885493347 
   229    228    251      1     129.183592992600     285.070774532144 
   229    230    231      1     126.806242045100     484.492885493347 
   229    232    233      1     126.806242045100     484.492885493347 
   229    232    252      1     129.183592992600     285.070774532144 
   230    229    232      1     126.806242045100     484.492885493347 
   232    233    234      1     126.806242045100     484.492885493347 
   232    233    253      1     129.183592992600     285.070774532144 
   233    232    252      1     129.183592992600     285.070774532144 
   233    234    254      1     129.183592992600     285.070774532144 
   234    233    253      1     129.183592992600     285.070774532144 
   235    236    237      1     126.806242045100     484.492885493347 
   235    236    244      1     126.806242045100     484.492885493347 
   235    245    264      1     129.183592992600     285.070774532144 
   236    235    245      1     126.806242045100     484.492885493347 
   236    237    238      1     126.806242045100     484.492885493347 
   236    237    255      1     129.183592992600     285.070774532144 
   236    244    243      1     126.806242045100     484.492885493347 
   236    244    263      1     129.183592992600     285.070774532144 
   237    236    244      1     126.806242045100     484.492885493347 
   237    238    239      1     126.806242045100     484.492885493347 
   237    238    242      1     126.806242045100     484.492885493347 
   238    237    255      1     129.183592992600     285.070774532144 
   238    239    240      1     107.660782175200     425.669014814353 
   238    239    241      1     107.660782175200     425.669014814353 
   238    239    256      1     107.660782175200     425.669014814353 
   238    242    243      1     126.806242045100     484.492885493347 
   238    242    261      1     129.183592992600     285.070774532144 
   239    238    242      1     126.806242045100     484.492885493347 
   239    240    257      1     107.660782175200     425.669014814353 
   239    240    258      1     107.660782175200     425.669014814353 
   239    240    259      1     107.660782175200     425.669014814353 
   239    241    260      1     115.507132767400     530.901282784327 
   239    241    274      1     117.346557051400     463.769802376852 
   240    239    241      1     107.660782175200     425.669014814353 
   240    239    256      1     107.660782175200     425.669014814353 
   241    239    256      1     107.660782175200     425.669014814353 
   241    274    273      1     126.806242045100     484.492885493347 
   241    274    275      1     126.806242045100     484.492885493347 
   242    243    244      1     126.806242045100     484.492885493347 
   242    243    262      1     129.183592992600     285.070774532144 
   243    242    261      1     129.183592992600     285.070774532144 
   243    244    263      1     129.183592992600     285.070774532144 
   244    243    262      1     129.183592992600     285.070774532144 
   246    221    247      1     115.603099953300     408.161690475075 
   246    221    248      1     115.603099953300     408.161690475075 
   247    221    248      1     115.603099953300     408.161690475075 
   257    240    258      1     115.603099953300     408.161690475075 
   257    240    259      1     115.603099953300     408.161690475075 
   258    240    259      1     115.603099953300     408.161690475075 
   260    241    274      1     115.507132767400     530.901282784327 
   265    266    267      1     110.353880618100     544.678275491328 
   266    265    290      1     107.660782175200     425.669014814353 
   266    265    291      1     107.660782175200     425.669014814353 
   266    265    292      1     107.660782175200     425.669014814353 
   266    267    268      1     126.806242045100     484.492885493347 
   266    267    289      1     126.806242045100     484.492885493347 
   267    268    269      1     126.806242045100     484.492885493347 
   267    268    293      1     129.183592992600     285.070774532144 
   267    289    279      1     126.806242045100     484.492885493347 
   267    289    308      1     129.183592992600     285.070774532144 
   268    267    289      1     126.806242045100     484.492885493347 
   268    269    270      1     126.806242045100     484.492885493347 
   268    269    294      1     129.183592992600     285.070774532144 
   269    268    293      1     129.183592992600     285.070774532144 
   269    270    271      1     126.806242045100     484.492885493347 
   269    270    279      1     126.806242045100     484.492885493347 
   270    269    294      1     129.183592992600     285.070774532144 
   270    271    272      1     126.806242045100     484.492885493347 
   270    271    278      1     126.806242045100     484.492885493347 
   270    279    280      1     126.806242045100     484.492885493347 
   270    279    289      1     126.806242045100     484.492885493347 
   271    270    279      1     126.806242045100     484.492885493347 
   271    272    273      1     126.806242045100     484.492885493347 
   271    272    295      1     129.183592992600     285.070774532144 
   271    278    277      1     126.806242045100     484.492885493347 
   271    278    298      1     129.183592992600     285.070774532144 
   272    271    278      1     126.806242045100     484.492885493347 
   272    273    274      1     126.806242045100     484.492885493347 
   272    273    276      1     126.806242045100     484.492885493347 
   273    272    295      1     129.183592992600     285.070774532144 
   273    274    275      1     126.806242045100     484.492885493347 
   273    276    277      1     126.806242045100     484.492885493347 
   273    276    296      1     129.183592992600     285.070774532144 
   274    273    276      1     126.806242045100     484.492885493347 
   276    277    278      1     126.806242045100     484.492885493347 
   276    277    297      1     129.183592992600     285.070774532144 
   277    276    296      1     129.183592992600     285.070774532144 
   277    278    298      1     129.183592992600     285.070774532144 
   278    277    297      1     129.183592992600     285.070774532144 
   279    280    281      1     126.806242045100     484.492885493347 
   279    280    288      1     126.806242045100     484.492885493347 
   279    289    308      1     129.183592992600     285.070774532144 
   280    279    289      1     126.806242045100     484.492885493347 
   280    281    282      1     126.806242045100     484.492885493347 
   280    281    299      1     129.183592992600     285.070774532144 
   280    288    287      1     126.806242045100     484.492885493347 
   280    288    307      1     129.183592992600     285.070774532144 
   281    280    288      1     126.806242045100     484.492885493347 
   281    282    283      1     126.806242045100     484.492885493347 
   281    282    286      1     126.806242045100     484.492885493347 
   282    281    299      1     129.183592992600     285.070774532144 
   282    283    284      1     107.660782175200     425.669014814353 
   282    283    285      1     107.660782175200     425.669014814353 
   282    283    300      1     107.660782175200     425.669014814353 
   282    286    287      1     126.806242045100     484.492885493347 
   282    286    305      1     129.183592992600     285.070774532144 
   283    282    286      1     126.806242045100     484.492885493347 
   283    284    301      1     107.660782175200     425.669014814353 
   283    284    302      1     107.660782175200     425.669014814353 
   283    284    303      1     107.660782175200     425.669014814353 
   283    285    304      1     115.507132767400     530.901282784327 
   283    285    318      1     117.346557051400     463.769802376852 
   284    283    285      1     107.660782175200     425.669014814353 
   284    283    300      1     107.660782175200     425.669014814353 
   285    283    300      1     107.660782175200     425.669014814353 
   285    318    317      1     126.806242045100     484.492885493347 
   285    318    319      1     126.806242045100     484.492885493347 
   286    287    288      1     126.806242045100     484.492885493347 
   286    287    306      1     129.183592992600     285.070774532144 
   287    286    305      1     129.183592992600     285.070774532144 
   287    288    307      1     129.183592992600     285.070774532144 
   288    287    306      1     129.183592992600     285.070774532144 
   290    265    291      1     115.603099953300     408.161690475075 
   290    265    292      1     115.603099953300     408.161690475075 
   291    265    292      1     115.603099953300     408.161690475075 
   301    284    302      1     115.603099953300     408.161690475075 
   301    284    303      1     115.603099953300     408.161690475075 
   302    284    303      1     115.603099953300     408.161690475075 
   304    285    318      1     115.507132767400     530.901282784327 
   309    310    311      1     110.353880618100     544.678275491328 
   310    309    334      1     107.660782175200     425.669014814353 
   310    309    335      1     107.660782175200     425.669014814353 
   310    309    336      1     107.660782175200     425.669014814353 
   310    311    312      1     126.806242045100     484.492885493347 
   310    311    333      1     126.806242045100     484.492885493347 
   311    312    313      1     126.806242045100     484.492885493347 
   311    312    337      1     129.183592992600     285.070774532144 
   311    333    323      1     126.806242045100     484.492885493347 
   311    333    352      1     129.183592992600     285.070774532144 
   312    311    333      1     126.806242045100     484.492885493347 
   312    313    314      1     126.806242045100     484.492885493347 
   312    313    338      1     129.183592992600     285.070774532144 
   313    312    337      1     129.183592992600     285.070774532144 
   313    314    315      1     126.806242045100     484.492885493347 
   313    314    323      1     126.806242045100     484.492885493347 
   314    313    338      1     129.183592992600     285.070774532144 
   314    315    316      1     126.806242045100     484.492885493347 
   314    315    322      1     126.806242045100     484.492885493347 
   314    323    324      1     126.806242045100     484.492885493347 
   314    323    333      1     126.806242045100     484.492885493347 
   315    314    323      1     126.806242045100     484.492885493347 
   315    316    317      1     126.806242045100     484.492885493347 
   315    316    339      1     129.183592992600     285.070774532144 
   315    322    321      1     126.806242045100     484.492885493347 
   315    322    342      1     129.183592992600     285.070774532144 
   316    315    322      1     126.806242045100     484.492885493347 
   316    317    318      1     126.806242045100     484.492885493347 
   316    317    320      1     126.806242045100     484.492885493347 
   317    316    339      1     129.183592992600     285.070774532144 
   317    318    319      1     126.806242045100     484.492885493347 
   317    320    321      1     126.806242045100     484.492885493347 
   317    320    340      1     129.183592992600     285.070774532144 
   318    317    320      1     126.806242045100     484.492885493347 
   320    321    322      1     126.806242045100     484.492885493347 
   320    321    341      1     129.183592992600     285.070774532144 
   321    320    340      1     129.183592992600     285.070774532144 
   321    322    342      1     129.183592992600     285.070774532144 
   322    321    341      1     129.183592992600     285.070774532144 
   323    324    325      1     126.806242045100     484.492885493347 
   323    324    332      1     126.806242045100     484.492885493347 
   323    333    352      1     129.183592992600     285.070774532144 
   324    323    333      1     126.806242045100     484.492885493347 
   324    325    326      1     126.806242045100     484.492885493347 
   324    325    343      1     129.183592992600     285.070774532144 
   324    332    331      1     126.806242045100     484.492885493347 
   324    332    351      1     129.183592992600     285.070774532144 
   325    324    332      1     126.806242045100     484.492885493347 
   325    326    327      1     126.806242045100     484.492885493347 
   325    326    330      1     126.806242045100     484.492885493347 
   326    325    343      1     129.183592992600     285.070774532144 
   326    327    328      1     107.660782175200     425.669014814353 
   326    327    329      1     107.660782175200     425.669014814353 
   326    327    344      1     107.660782175200     425.669014814353 
   326    330    331      1     126.806242045100     484.492885493347 
   326    330    349      1     129.183592992600     285.070774532144 
   327    326    330      1     126.806242045100     484.492885493347 
   327    328    345      1     107.660782175200     425.669014814353 
   327    328    346      1     107.660782175200     425.669014814353 
   327    328    347      1     107.660782175200     425.669014814353 
   327    329    348      1     115.507132767400     530.901282784327 
   327    329    363      1     117.346557051400     463.769802376852 
   328    327    329      1     107.660782175200     425.669014814353 
   328    327    344      1     107.660782175200     425.669014814353 
   329    327    344      1     107.660782175200     425.669014814353 
   329    363    362      1     126.806242045100     484.492885493347 
   329    363    364      1     126.806242045100     484.492885493347 
   330    331    332      1     126.806242045100     484.492885493347 
   330    331    350      1     129.183592992600     285.070774532144 
   331    330    349      1     129.183592992600     285.070774532144 
   331    332    351      1     129.183592992600     285.070774532144 
   332    331    350      1     129.183592992600     285.070774532144 
   334    309    335      1     115.603099953300     408.161690475075 
   334    309    336      1     115.603099953300     408.161690475075 
   335    309    336      1     115.603099953300     408.161690475075 
   345    328    346      1     115.603099953300     408.161690475075 
   345    328    347      1     115.603099953300     408.161690475075 
   346    328    347      1     115.603099953300     408.161690475075 
   348    329    363      1     115.507132767400     530.901282784327 
   354    353    355      1     107.660782175200     425.669014814353 
   354    353    356      1     107.660782175200     425.669014814353 
   354    353    357      1     107.660782175200     425.669014814353 
   355    353    356      1     115.603099953300     408.161690475075 
   355    353    357      1     115.603099953300     408.161690475075 
   356    353    357      1     115.603099953300     408.161690475075 
   358    359    360      1     107.660782175200     425.669014814353 
   358    359    361      1     107.660782175200     425.669014814353 
   358    359    362      1     107.660782175200     425.669014814353 
   359    358    365      1     107.660782175200     425.669014814353 
   359    358    366      1     107.660782175200     425.669014814353 
   359    358    367      1     107.660782175200     425.669014814353 
   359    360    368      1     107.660782175200     425.669014814353 
   359    360    369      1     107.660782175200     425.669014814353 
   359    360    370      1     107.660782175200     425.669014814353 
   359    361    371      1     107.660782175200     425.669014814353 
   359    361    372      1     107.660782175200     425.669014814353 
   359    361    373      1     107.660782175200     425.669014814353 
   359    362    363      1     110.353880618100     544.678275491328 
   360    359    361      1     107.660782175200     425.669014814353 
   360    359    362      1     107.660782175200     425.669014814353 
   361    359    362      1     107.660782175200     425.669014814353 
   362    363    364      1     127.469141619100    1685.413543333009 
   365    358    366      1     115.603099953300     408.161690475075 
   365    358    367      1     115.603099953300     408.161690475075 
   366    358    367      1     115.603099953300     408.161690475075 
   368    360    369      1     115.603099953300     408.161690475075 
   368    360    370      1     115.603099953300     408.161690475075 
   369    360    370      1     115.603099953300     408.161690475075 
   371    361    372      1     115.603099953300     408.161690475075 
   371    361    373      1     115.603099953300     408.161690475075 
   372    361    373      1     115.603099953300     408.161690475075 

[ dihedrals ]
;ai    aj   ak   al   funct phi  k
     1     2     3     4     1    180.000000000000      6.410861677363                 2
     1     2     3    25     1    180.000000000000      6.410861677363                 2
     2     3     4     5     1    180.000000000000     15.321515534534                 2
     2     3     4    29     1    180.000000000000     15.321515534534                 2
     2     3    25    15     1    180.000000000000     15.321515534534                 2
     2     3    25    44     1    180.000000000000     15.321515534534                 2
     3     2     1    26     1      0.000000000000      0.198220506977                 3
     3     2     1    27     1      0.000000000000      0.198220506977                 3
     3     2     1    28     1      0.000000000000      0.198220506977                 3
     3     4     5     6     1    180.000000000000     15.321515534534                 2
     3     4     5    30     1    180.000000000000     15.321515534534                 2
     3    25    15     6     1    180.000000000000     15.321515534534                 2
     3    25    15    16     1    180.000000000000     15.321515534534                 2
     4     3    25    15     1    180.000000000000     15.321515534534                 2
     4     3    25    44     1    180.000000000000     15.321515534534                 2
     4     5     6     7     1    180.000000000000     15.321515534534                 2
     4     5     6    15     1    180.000000000000     15.321515534534                 2
     5     4     3    25     1    180.000000000000     15.321515534534                 2
     5     6     7     8     1    180.000000000000      4.866977563957                 2
     5     6     7    14     1    180.000000000000      4.866977563957                 2
     5     6    15    16     1    180.000000000000     15.321515534534                 2
     5     6    15    25     1    180.000000000000     15.321515534534                 2
     6     5     4    29     1    180.000000000000     15.321515534534                 2
     6     7     8     9     1    180.000000000000     15.321515534534                 2
     6     7     8    31     1    180.000000000000     15.321515534534                 2
     6     7    14    13     1    180.000000000000     15.321515534534                 2
     6     7    14    34     1    180.000000000000     15.321515534534                 2
     6    15    16    17     1    180.000000000000      4.866977563957                 2
     6    15    16    24     1    180.000000000000      4.866977563957                 2
     6    15    25    44     1    180.000000000000     15.321515534534                 2
     7     6     5    30     1    180.000000000000     15.321515534534                 2
     7     6    15    16     1    180.000000000000     15.321515534534                 2
     7     6    15    25     1    180.000000000000     15.321515534534                 2
     7     8     9    10     1    180.000000000000     15.321515534534                 2
     7     8     9    12     1    180.000000000000     15.321515534534                 2
     7    14    13    12     1    180.000000000000     15.321515534534                 2
     7    14    13    33     1    180.000000000000     15.321515534534                 2
     8     7     6    15     1    180.000000000000      4.866977563957                 2
     8     7    14    13     1    180.000000000000     15.321515534534                 2
     8     7    14    34     1    180.000000000000     15.321515534534                 2
     8     9    10    11     1    180.000000000000      4.173190890070                 2
     8     9    10   354     1    180.000000000000      4.173190890070                 2
     8     9    12    13     1    180.000000000000     15.321515534534                 2
     8     9    12    32     1    180.000000000000     15.321515534534                 2
     9     8     7    14     1    180.000000000000     15.321515534534                 2
     9    10   354   353     1    180.000000000000     11.630908055712                 2
     9    12    13    14     1    180.000000000000     15.321515534534                 2
     9    12    13    33     1    180.000000000000     15.321515534534                 2
    10     9     8    31     1    180.000000000000     15.321515534534                 2
    10     9    12    13     1    180.000000000000     15.321515534534                 2
    10     9    12    32     1    180.000000000000     15.321515534534                 2
    10   354   353   355     1      0.000000000000      0.198220506977                 3
    10   354   353   356     1      0.000000000000      0.198220506977                 3
    10   354   353   357     1      0.000000000000      0.198220506977                 3
    11    10     9    12     1    180.000000000000      4.173190890070                 2
    11    10   354   353     1    180.000000000000      4.869377577648                 2
    11    10   354   353     1    180.000000000000      0.702571835515                 1
    12     9     8    31     1    180.000000000000     15.321515534534                 2
    12     9    10   354     1    180.000000000000      4.173190890070                 2
    12    13    14    34     1    180.000000000000     15.321515534534                 2
    14     7     6    15     1    180.000000000000      4.866977563957                 2
    14     7     8    31     1    180.000000000000     15.321515534534                 2
    14    13    12    32     1    180.000000000000     15.321515534534                 2
    15     6     5    30     1    180.000000000000     15.321515534534                 2
    15    16    17    18     1    180.000000000000     15.321515534534                 2
    15    16    17    35     1    180.000000000000     15.321515534534                 2
    15    16    24    23     1    180.000000000000     15.321515534534                 2
    15    16    24    43     1    180.000000000000     15.321515534534                 2
    16    15    25    44     1    180.000000000000     15.321515534534                 2
    16    17    18    19     1    180.000000000000     15.321515534534                 2
    16    17    18    22     1    180.000000000000     15.321515534534                 2
    16    24    23    22     1    180.000000000000     15.321515534534                 2
    16    24    23    42     1    180.000000000000     15.321515534534                 2
    17    16    15    25     1    180.000000000000      4.866977563957                 2
    17    16    24    23     1    180.000000000000     15.321515534534                 2
    17    16    24    43     1    180.000000000000     15.321515534534                 2
    17    18    19    20     1      0.000000000000      0.111501038139                 3
    17    18    19    21     1      0.000000000000      0.111501038139                 3
    17    18    19    36     1      0.000000000000      0.111501038139                 3
    17    18    22    23     1    180.000000000000     15.321515534534                 2
    17    18    22    41     1    180.000000000000     15.321515534534                 2
    18    17    16    24     1    180.000000000000     15.321515534534                 2
    18    19    20    37     1      0.000000000000      0.483407861024                 3
    18    19    20    38     1      0.000000000000      0.483407861024                 3
    18    19    20    39     1      0.000000000000      0.483407861024                 3
    18    19    21    40     1      0.000000000000      0.762485897686                 2
    18    19    21    40     1      0.000000000000      0.124362804952                 3
    18    19    21    54     1    180.000000000000     -2.883499339083                 2
    18    19    21    54     1      0.000000000000      1.141330947302                 1
    18    22    23    24     1    180.000000000000     15.321515534534                 2
    18    22    23    42     1    180.000000000000     15.321515534534                 2
    19    18    17    35     1    180.000000000000     15.321515534534                 2
    19    18    22    23     1    180.000000000000     15.321515534534                 2
    19    18    22    41     1    180.000000000000     15.321515534534                 2
    19    21    54    53     1    180.000000000000      7.569054279773                 2
    19    21    54    53     1      0.000000000000     -0.201513062842                 1
    19    21    54    55     1    180.000000000000     12.978553656010                 2
    19    21    54    55     1      0.000000000000     -1.779100933344                 1
    20    19    18    22     1      0.000000000000      0.111501038139                 3
    20    19    21    40     1      0.000000000000      0.762485897686                 2
    20    19    21    40     1      0.000000000000      0.124362804952                 3
    20    19    21    54     1    180.000000000000     -0.622862944840                 4
    20    19    21    54     1    180.000000000000     -0.514769632165                 3
    20    19    21    54     1      0.000000000000      1.229801223351                 2
    20    19    21    54     1      0.000000000000     -1.265294746367                 1
    21    19    18    22     1      0.000000000000      0.111501038139                 3
    21    19    20    37     1      0.000000000000      0.483407861024                 3
    21    19    20    38     1      0.000000000000      0.483407861024                 3
    21    19    20    39     1      0.000000000000      0.483407861024                 3
    21    54    53    52     1    180.000000000000      4.173190890070                 2
    21    54    53    56     1    180.000000000000      4.173190890070                 2
    22    18    17    35     1    180.000000000000     15.321515534534                 2
    22    18    19    36     1      0.000000000000      0.111501038139                 3
    22    23    24    43     1    180.000000000000     15.321515534534                 2
    24    16    15    25     1    180.000000000000      4.866977563957                 2
    24    16    17    35     1    180.000000000000     15.321515534534                 2
    24    23    22    41     1    180.000000000000     15.321515534534                 2
    25     3     4    29     1    180.000000000000     15.321515534534                 2
    29     4     5    30     1    180.000000000000     15.321515534534                 2
    32    12    13    33     1    180.000000000000     15.321515534534                 2
    33    13    14    34     1    180.000000000000     15.321515534534                 2
    36    19    20    37     1      0.000000000000      0.799950138473                 3
    36    19    20    38     1      0.000000000000      0.799950138473                 3
    36    19    20    39     1      0.000000000000      0.799950138473                 3
    36    19    21    40     1      0.000000000000      0.762485897686                 2
    36    19    21    40     1      0.000000000000      0.124362804952                 3
    36    19    21    54     1      0.000000000000      0.762485897686                 2
    36    19    21    54     1      0.000000000000      0.124362804952                 3
    40    21    54    53     1    180.000000000000      7.569054279773                 2
    40    21    54    53     1      0.000000000000     -0.201513062842                 1
    40    21    54    55     1    180.000000000000      9.825603686166                 2
    40    21    54    55     1      0.000000000000      5.255757435828                 1
    41    22    23    42     1    180.000000000000     15.321515534534                 2
    42    23    24    43     1    180.000000000000     15.321515534534                 2
    45    46    47    48     1    180.000000000000      6.410861677363                 2
    45    46    47    69     1    180.000000000000      6.410861677363                 2
    46    47    48    49     1    180.000000000000     15.321515534534                 2
    46    47    48    73     1    180.000000000000     15.321515534534                 2
    46    47    69    59     1    180.000000000000     15.321515534534                 2
    46    47    69    88     1    180.000000000000     15.321515534534                 2
    47    46    45    70     1      0.000000000000      0.198220506977                 3
    47    46    45    71     1      0.000000000000      0.198220506977                 3
    47    46    45    72     1      0.000000000000      0.198220506977                 3
    47    48    49    50     1    180.000000000000     15.321515534534                 2
    47    48    49    74     1    180.000000000000     15.321515534534                 2
    47    69    59    50     1    180.000000000000     15.321515534534                 2
    47    69    59    60     1    180.000000000000     15.321515534534                 2
    48    47    69    59     1    180.000000000000     15.321515534534                 2
    48    47    69    88     1    180.000000000000     15.321515534534                 2
    48    49    50    51     1    180.000000000000     15.321515534534                 2
    48    49    50    59     1    180.000000000000     15.321515534534                 2
    49    48    47    69     1    180.000000000000     15.321515534534                 2
    49    50    51    52     1    180.000000000000      4.866977563957                 2
    49    50    51    58     1    180.000000000000      4.866977563957                 2
    49    50    59    60     1    180.000000000000     15.321515534534                 2
    49    50    59    69     1    180.000000000000     15.321515534534                 2
    50    49    48    73     1    180.000000000000     15.321515534534                 2
    50    51    52    53     1    180.000000000000     15.321515534534                 2
    50    51    52    75     1    180.000000000000     15.321515534534                 2
    50    51    58    57     1    180.000000000000     15.321515534534                 2
    50    51    58    78     1    180.000000000000     15.321515534534                 2
    50    59    60    61     1    180.000000000000      4.866977563957                 2
    50    59    60    68     1    180.000000000000      4.866977563957                 2
    50    59    69    88     1    180.000000000000     15.321515534534                 2
    51    50    49    74     1    180.000000000000     15.321515534534                 2
    51    50    59    60     1    180.000000000000     15.321515534534                 2
    51    50    59    69     1    180.000000000000     15.321515534534                 2
    51    52    53    54     1    180.000000000000     15.321515534534                 2
    51    52    53    56     1    180.000000000000     15.321515534534                 2
    51    58    57    56     1    180.000000000000     15.321515534534                 2
    51    58    57    77     1    180.000000000000     15.321515534534                 2
    52    51    50    59     1    180.000000000000      4.866977563957                 2
    52    51    58    57     1    180.000000000000     15.321515534534                 2
    52    51    58    78     1    180.000000000000     15.321515534534                 2
    52    53    54    55     1    180.000000000000      4.173190890070                 2
    52    53    56    57     1    180.000000000000     15.321515534534                 2
    52    53    56    76     1    180.000000000000     15.321515534534                 2
    53    52    51    58     1    180.000000000000     15.321515534534                 2
    53    56    57    58     1    180.000000000000     15.321515534534                 2
    53    56    57    77     1    180.000000000000     15.321515534534                 2
    54    53    52    75     1    180.000000000000     15.321515534534                 2
    54    53    56    57     1    180.000000000000     15.321515534534                 2
    54    53    56    76     1    180.000000000000     15.321515534534                 2
    55    54    53    56     1    180.000000000000      4.173190890070                 2
    56    53    52    75     1    180.000000000000     15.321515534534                 2
    56    57    58    78     1    180.000000000000     15.321515534534                 2
    58    51    50    59     1    180.000000000000      4.866977563957                 2
    58    51    52    75     1    180.000000000000     15.321515534534                 2
    58    57    56    76     1    180.000000000000     15.321515534534                 2
    59    50    49    74     1    180.000000000000     15.321515534534                 2
    59    60    61    62     1    180.000000000000     15.321515534534                 2
    59    60    61    79     1    180.000000000000     15.321515534534                 2
    59    60    68    67     1    180.000000000000     15.321515534534                 2
    59    60    68    87     1    180.000000000000     15.321515534534                 2
    60    59    69    88     1    180.000000000000     15.321515534534                 2
    60    61    62    63     1    180.000000000000     15.321515534534                 2
    60    61    62    66     1    180.000000000000     15.321515534534                 2
    60    68    67    66     1    180.000000000000     15.321515534534                 2
    60    68    67    86     1    180.000000000000     15.321515534534                 2
    61    60    59    69     1    180.000000000000      4.866977563957                 2
    61    60    68    67     1    180.000000000000     15.321515534534                 2
    61    60    68    87     1    180.000000000000     15.321515534534                 2
    61    62    63    64     1      0.000000000000      0.111501038139                 3
    61    62    63    65     1      0.000000000000      0.111501038139                 3
    61    62    63    80     1      0.000000000000      0.111501038139                 3
    61    62    66    67     1    180.000000000000     15.321515534534                 2
    61    62    66    85     1    180.000000000000     15.321515534534                 2
    62    61    60    68     1    180.000000000000     15.321515534534                 2
    62    63    64    81     1      0.000000000000      0.483407861024                 3
    62    63    64    82     1      0.000000000000      0.483407861024                 3
    62    63    64    83     1      0.000000000000      0.483407861024                 3
    62    63    65    84     1      0.000000000000      0.762485897686                 2
    62    63    65    84     1      0.000000000000      0.124362804952                 3
    62    63    65    98     1    180.000000000000     -2.883499339083                 2
    62    63    65    98     1      0.000000000000      1.141330947302                 1
    62    66    67    68     1    180.000000000000     15.321515534534                 2
    62    66    67    86     1    180.000000000000     15.321515534534                 2
    63    62    61    79     1    180.000000000000     15.321515534534                 2
    63    62    66    67     1    180.000000000000     15.321515534534                 2
    63    62    66    85     1    180.000000000000     15.321515534534                 2
    63    65    98    97     1    180.000000000000      7.569054279773                 2
    63    65    98    97     1      0.000000000000     -0.201513062842                 1
    63    65    98    99     1    180.000000000000     12.978553656010                 2
    63    65    98    99     1      0.000000000000     -1.779100933344                 1
    64    63    62    66     1      0.000000000000      0.111501038139                 3
    64    63    65    84     1      0.000000000000      0.762485897686                 2
    64    63    65    84     1      0.000000000000      0.124362804952                 3
    64    63    65    98     1    180.000000000000     -0.622862944840                 4
    64    63    65    98     1    180.000000000000     -0.514769632165                 3
    64    63    65    98     1      0.000000000000      1.229801223351                 2
    64    63    65    98     1      0.000000000000     -1.265294746367                 1
    65    63    62    66     1      0.000000000000      0.111501038139                 3
    65    63    64    81     1      0.000000000000      0.483407861024                 3
    65    63    64    82     1      0.000000000000      0.483407861024                 3
    65    63    64    83     1      0.000000000000      0.483407861024                 3
    65    98    97    96     1    180.000000000000      4.173190890070                 2
    65    98    97   100     1    180.000000000000      4.173190890070                 2
    66    62    61    79     1    180.000000000000     15.321515534534                 2
    66    62    63    80     1      0.000000000000      0.111501038139                 3
    66    67    68    87     1    180.000000000000     15.321515534534                 2
    68    60    59    69     1    180.000000000000      4.866977563957                 2
    68    60    61    79     1    180.000000000000     15.321515534534                 2
    68    67    66    85     1    180.000000000000     15.321515534534                 2
    69    47    48    73     1    180.000000000000     15.321515534534                 2
    73    48    49    74     1    180.000000000000     15.321515534534                 2
    76    56    57    77     1    180.000000000000     15.321515534534                 2
    77    57    58    78     1    180.000000000000     15.321515534534                 2
    80    63    64    81     1      0.000000000000      0.799950138473                 3
    80    63    64    82     1      0.000000000000      0.799950138473                 3
    80    63    64    83     1      0.000000000000      0.799950138473                 3
    80    63    65    84     1      0.000000000000      0.762485897686                 2
    80    63    65    84     1      0.000000000000      0.124362804952                 3
    80    63    65    98     1      0.000000000000      0.762485897686                 2
    80    63    65    98     1      0.000000000000      0.124362804952                 3
    84    65    98    97     1    180.000000000000      7.569054279773                 2
    84    65    98    97     1      0.000000000000     -0.201513062842                 1
    84    65    98    99     1    180.000000000000      9.825603686166                 2
    84    65    98    99     1      0.000000000000      5.255757435828                 1
    85    66    67    86     1    180.000000000000     15.321515534534                 2
    86    67    68    87     1    180.000000000000     15.321515534534                 2
    89    90    91    92     1    180.000000000000      6.410861677363                 2
    89    90    91   113     1    180.000000000000      6.410861677363                 2
    90    91    92    93     1    180.000000000000     15.321515534534                 2
    90    91    92   117     1    180.000000000000     15.321515534534                 2
    90    91   113   103     1    180.000000000000     15.321515534534                 2
    90    91   113   132     1    180.000000000000     15.321515534534                 2
    91    90    89   114     1      0.000000000000      0.198220506977                 3
    91    90    89   115     1      0.000000000000      0.198220506977                 3
    91    90    89   116     1      0.000000000000      0.198220506977                 3
    91    92    93    94     1    180.000000000000     15.321515534534                 2
    91    92    93   118     1    180.000000000000     15.321515534534                 2
    91   113   103    94     1    180.000000000000     15.321515534534                 2
    91   113   103   104     1    180.000000000000     15.321515534534                 2
    92    91   113   103     1    180.000000000000     15.321515534534                 2
    92    91   113   132     1    180.000000000000     15.321515534534                 2
    92    93    94    95     1    180.000000000000     15.321515534534                 2
    92    93    94   103     1    180.000000000000     15.321515534534                 2
    93    92    91   113     1    180.000000000000     15.321515534534                 2
    93    94    95    96     1    180.000000000000      4.866977563957                 2
    93    94    95   102     1    180.000000000000      4.866977563957                 2
    93    94   103   104     1    180.000000000000     15.321515534534                 2
    93    94   103   113     1    180.000000000000     15.321515534534                 2
    94    93    92   117     1    180.000000000000     15.321515534534                 2
    94    95    96    97     1    180.000000000000     15.321515534534                 2
    94    95    96   119     1    180.000000000000     15.321515534534                 2
    94    95   102   101     1    180.000000000000     15.321515534534                 2
    94    95   102   122     1    180.000000000000     15.321515534534                 2
    94   103   104   105     1    180.000000000000      4.866977563957                 2
    94   103   104   112     1    180.000000000000      4.866977563957                 2
    94   103   113   132     1    180.000000000000     15.321515534534                 2
    95    94    93   118     1    180.000000000000     15.321515534534                 2
    95    94   103   104     1    180.000000000000     15.321515534534                 2
    95    94   103   113     1    180.000000000000     15.321515534534                 2
    95    96    97    98     1    180.000000000000     15.321515534534                 2
    95    96    97   100     1    180.000000000000     15.321515534534                 2
    95   102   101   100     1    180.000000000000     15.321515534534                 2
    95   102   101   121     1    180.000000000000     15.321515534534                 2
    96    95    94   103     1    180.000000000000      4.866977563957                 2
    96    95   102   101     1    180.000000000000     15.321515534534                 2
    96    95   102   122     1    180.000000000000     15.321515534534                 2
    96    97    98    99     1    180.000000000000      4.173190890070                 2
    96    97   100   101     1    180.000000000000     15.321515534534                 2
    96    97   100   120     1    180.000000000000     15.321515534534                 2
    97    96    95   102     1    180.000000000000     15.321515534534                 2
    97   100   101   102     1    180.000000000000     15.321515534534                 2
    97   100   101   121     1    180.000000000000     15.321515534534                 2
    98    97    96   119     1    180.000000000000     15.321515534534                 2
    98    97   100   101     1    180.000000000000     15.321515534534                 2
    98    97   100   120     1    180.000000000000     15.321515534534                 2
    99    98    97   100     1    180.000000000000      4.173190890070                 2
   100    97    96   119     1    180.000000000000     15.321515534534                 2
   100   101   102   122     1    180.000000000000     15.321515534534                 2
   102    95    94   103     1    180.000000000000      4.866977563957                 2
   102    95    96   119     1    180.000000000000     15.321515534534                 2
   102   101   100   120     1    180.000000000000     15.321515534534                 2
   103    94    93   118     1    180.000000000000     15.321515534534                 2
   103   104   105   106     1    180.000000000000     15.321515534534                 2
   103   104   105   123     1    180.000000000000     15.321515534534                 2
   103   104   112   111     1    180.000000000000     15.321515534534                 2
   103   104   112   131     1    180.000000000000     15.321515534534                 2
   104   103   113   132     1    180.000000000000     15.321515534534                 2
   104   105   106   107     1    180.000000000000     15.321515534534                 2
   104   105   106   110     1    180.000000000000     15.321515534534                 2
   104   112   111   110     1    180.000000000000     15.321515534534                 2
   104   112   111   130     1    180.000000000000     15.321515534534                 2
   105   104   103   113     1    180.000000000000      4.866977563957                 2
   105   104   112   111     1    180.000000000000     15.321515534534                 2
   105   104   112   131     1    180.000000000000     15.321515534534                 2
   105   106   107   108     1      0.000000000000      0.111501038139                 3
   105   106   107   109     1      0.000000000000      0.111501038139                 3
   105   106   107   124     1      0.000000000000      0.111501038139                 3
   105   106   110   111     1    180.000000000000     15.321515534534                 2
   105   106   110   129     1    180.000000000000     15.321515534534                 2
   106   105   104   112     1    180.000000000000     15.321515534534                 2
   106   107   108   125     1      0.000000000000      0.483407861024                 3
   106   107   108   126     1      0.000000000000      0.483407861024                 3
   106   107   108   127     1      0.000000000000      0.483407861024                 3
   106   107   109   128     1      0.000000000000      0.762485897686                 2
   106   107   109   128     1      0.000000000000      0.124362804952                 3
   106   107   109   142     1    180.000000000000     -2.883499339083                 2
   106   107   109   142     1      0.000000000000      1.141330947302                 1
   106   110   111   112     1    180.000000000000     15.321515534534                 2
   106   110   111   130     1    180.000000000000     15.321515534534                 2
   107   106   105   123     1    180.000000000000     15.321515534534                 2
   107   106   110   111     1    180.000000000000     15.321515534534                 2
   107   106   110   129     1    180.000000000000     15.321515534534                 2
   107   109   142   141     1    180.000000000000      7.569054279773                 2
   107   109   142   141     1      0.000000000000     -0.201513062842                 1
   107   109   142   143     1    180.000000000000     12.978553656010                 2
   107   109   142   143     1      0.000000000000     -1.779100933344                 1
   108   107   106   110     1      0.000000000000      0.111501038139                 3
   108   107   109   128     1      0.000000000000      0.762485897686                 2
   108   107   109   128     1      0.000000000000      0.124362804952                 3
   108   107   109   142     1    180.000000000000     -0.622862944840                 4
   108   107   109   142     1    180.000000000000     -0.514769632165                 3
   108   107   109   142     1      0.000000000000      1.229801223351                 2
   108   107   109   142     1      0.000000000000     -1.265294746367                 1
   109   107   106   110     1      0.000000000000      0.111501038139                 3
   109   107   108   125     1      0.000000000000      0.483407861024                 3
   109   107   108   126     1      0.000000000000      0.483407861024                 3
   109   107   108   127     1      0.000000000000      0.483407861024                 3
   109   142   141   140     1    180.000000000000      4.173190890070                 2
   109   142   141   144     1    180.000000000000      4.173190890070                 2
   110   106   105   123     1    180.000000000000     15.321515534534                 2
   110   106   107   124     1      0.000000000000      0.111501038139                 3
   110   111   112   131     1    180.000000000000     15.321515534534                 2
   112   104   103   113     1    180.000000000000      4.866977563957                 2
   112   104   105   123     1    180.000000000000     15.321515534534                 2
   112   111   110   129     1    180.000000000000     15.321515534534                 2
   113    91    92   117     1    180.000000000000     15.321515534534                 2
   117    92    93   118     1    180.000000000000     15.321515534534                 2
   120   100   101   121     1    180.000000000000     15.321515534534                 2
   121   101   102   122     1    180.000000000000     15.321515534534                 2
   124   107   108   125     1      0.000000000000      0.799950138473                 3
   124   107   108   126     1      0.000000000000      0.799950138473                 3
   124   107   108   127     1      0.000000000000      0.799950138473                 3
   124   107   109   128     1      0.000000000000      0.762485897686                 2
   124   107   109   128     1      0.000000000000      0.124362804952                 3
   124   107   109   142     1      0.000000000000      0.762485897686                 2
   124   107   109   142     1      0.000000000000      0.124362804952                 3
   128   109   142   141     1    180.000000000000      7.569054279773                 2
   128   109   142   141     1      0.000000000000     -0.201513062842                 1
   128   109   142   143     1    180.000000000000      9.825603686166                 2
   128   109   142   143     1      0.000000000000      5.255757435828                 1
   129   110   111   130     1    180.000000000000     15.321515534534                 2
   130   111   112   131     1    180.000000000000     15.321515534534                 2
   133   134   135   136     1    180.000000000000      6.410861677363                 2
   133   134   135   157     1    180.000000000000      6.410861677363                 2
   134   135   136   137     1    180.000000000000     15.321515534534                 2
   134   135   136   161     1    180.000000000000     15.321515534534                 2
   134   135   157   147     1    180.000000000000     15.321515534534                 2
   134   135   157   176     1    180.000000000000     15.321515534534                 2
   135   134   133   158     1      0.000000000000      0.198220506977                 3
   135   134   133   159     1      0.000000000000      0.198220506977                 3
   135   134   133   160     1      0.000000000000      0.198220506977                 3
   135   136   137   138     1    180.000000000000     15.321515534534                 2
   135   136   137   162     1    180.000000000000     15.321515534534                 2
   135   157   147   138     1    180.000000000000     15.321515534534                 2
   135   157   147   148     1    180.000000000000     15.321515534534                 2
   136   135   157   147     1    180.000000000000     15.321515534534                 2
   136   135   157   176     1    180.000000000000     15.321515534534                 2
   136   137   138   139     1    180.000000000000     15.321515534534                 2
   136   137   138   147     1    180.000000000000     15.321515534534                 2
   137   136   135   157     1    180.000000000000     15.321515534534                 2
   137   138   139   140     1    180.000000000000      4.866977563957                 2
   137   138   139   146     1    180.000000000000      4.866977563957                 2
   137   138   147   148     1    180.000000000000     15.321515534534                 2
   137   138   147   157     1    180.000000000000     15.321515534534                 2
   138   137   136   161     1    180.000000000000     15.321515534534                 2
   138   139   140   141     1    180.000000000000     15.321515534534                 2
   138   139   140   163     1    180.000000000000     15.321515534534                 2
   138   139   146   145     1    180.000000000000     15.321515534534                 2
   138   139   146   166     1    180.000000000000     15.321515534534                 2
   138   147   148   149     1    180.000000000000      4.866977563957                 2
   138   147   148   156     1    180.000000000000      4.866977563957                 2
   138   147   157   176     1    180.000000000000     15.321515534534                 2
   139   138   137   162     1    180.000000000000     15.321515534534                 2
   139   138   147   148     1    180.000000000000     15.321515534534                 2
   139   138   147   157     1    180.000000000000     15.321515534534                 2
   139   140   141   142     1    180.000000000000     15.321515534534                 2
   139   140   141   144     1    180.000000000000     15.321515534534                 2
   139   146   145   144     1    180.000000000000     15.321515534534                 2
   139   146   145   165     1    180.000000000000     15.321515534534                 2
   140   139   138   147     1    180.000000000000      4.866977563957                 2
   140   139   146   145     1    180.000000000000     15.321515534534                 2
   140   139   146   166     1    180.000000000000     15.321515534534                 2
   140   141   142   143     1    180.000000000000      4.173190890070                 2
   140   141   144   145     1    180.000000000000     15.321515534534                 2
   140   141   144   164     1    180.000000000000     15.321515534534                 2
   141   140   139   146     1    180.000000000000     15.321515534534                 2
   141   144   145   146     1    180.000000000000     15.321515534534                 2
   141   144   145   165     1    180.000000000000     15.321515534534                 2
   142   141   140   163     1    180.000000000000     15.321515534534                 2
   142   141   144   145     1    180.000000000000     15.321515534534                 2
   142   141   144   164     1    180.000000000000     15.321515534534                 2
   143   142   141   144     1    180.000000000000      4.173190890070                 2
   144   141   140   163     1    180.000000000000     15.321515534534                 2
   144   145   146   166     1    180.000000000000     15.321515534534                 2
   146   139   138   147     1    180.000000000000      4.866977563957                 2
   146   139   140   163     1    180.000000000000     15.321515534534                 2
   146   145   144   164     1    180.000000000000     15.321515534534                 2
   147   138   137   162     1    180.000000000000     15.321515534534                 2
   147   148   149   150     1    180.000000000000     15.321515534534                 2
   147   148   149   167     1    180.000000000000     15.321515534534                 2
   147   148   156   155     1    180.000000000000     15.321515534534                 2
   147   148   156   175     1    180.000000000000     15.321515534534                 2
   148   147   157   176     1    180.000000000000     15.321515534534                 2
   148   149   150   151     1    180.000000000000     15.321515534534                 2
   148   149   150   154     1    180.000000000000     15.321515534534                 2
   148   156   155   154     1    180.000000000000     15.321515534534                 2
   148   156   155   174     1    180.000000000000     15.321515534534                 2
   149   148   147   157     1    180.000000000000      4.866977563957                 2
   149   148   156   155     1    180.000000000000     15.321515534534                 2
   149   148   156   175     1    180.000000000000     15.321515534534                 2
   149   150   151   152     1      0.000000000000      0.111501038139                 3
   149   150   151   153     1      0.000000000000      0.111501038139                 3
   149   150   151   168     1      0.000000000000      0.111501038139                 3
   149   150   154   155     1    180.000000000000     15.321515534534                 2
   149   150   154   173     1    180.000000000000     15.321515534534                 2
   150   149   148   156     1    180.000000000000     15.321515534534                 2
   150   151   152   169     1      0.000000000000      0.483407861024                 3
   150   151   152   170     1      0.000000000000      0.483407861024                 3
   150   151   152   171     1      0.000000000000      0.483407861024                 3
   150   151   153   172     1      0.000000000000      0.762485897686                 2
   150   151   153   172     1      0.000000000000      0.124362804952                 3
   150   151   153   186     1    180.000000000000     -2.883499339083                 2
   150   151   153   186     1      0.000000000000      1.141330947302                 1
   150   154   155   156     1    180.000000000000     15.321515534534                 2
   150   154   155   174     1    180.000000000000     15.321515534534                 2
   151   150   149   167     1    180.000000000000     15.321515534534                 2
   151   150   154   155     1    180.000000000000     15.321515534534                 2
   151   150   154   173     1    180.000000000000     15.321515534534                 2
   151   153   186   185     1    180.000000000000      7.569054279773                 2
   151   153   186   185     1      0.000000000000     -0.201513062842                 1
   151   153   186   187     1    180.000000000000     12.978553656010                 2
   151   153   186   187     1      0.000000000000     -1.779100933344                 1
   152   151   150   154     1      0.000000000000      0.111501038139                 3
   152   151   153   172     1      0.000000000000      0.762485897686                 2
   152   151   153   172     1      0.000000000000      0.124362804952                 3
   152   151   153   186     1    180.000000000000     -0.622862944840                 4
   152   151   153   186     1    180.000000000000     -0.514769632165                 3
   152   151   153   186     1      0.000000000000      1.229801223351                 2
   152   151   153   186     1      0.000000000000     -1.265294746367                 1
   153   151   150   154     1      0.000000000000      0.111501038139                 3
   153   151   152   169     1      0.000000000000      0.483407861024                 3
   153   151   152   170     1      0.000000000000      0.483407861024                 3
   153   151   152   171     1      0.000000000000      0.483407861024                 3
   153   186   185   184     1    180.000000000000      4.173190890070                 2
   153   186   185   188     1    180.000000000000      4.173190890070                 2
   154   150   149   167     1    180.000000000000     15.321515534534                 2
   154   150   151   168     1      0.000000000000      0.111501038139                 3
   154   155   156   175     1    180.000000000000     15.321515534534                 2
   156   148   147   157     1    180.000000000000      4.866977563957                 2
   156   148   149   167     1    180.000000000000     15.321515534534                 2
   156   155   154   173     1    180.000000000000     15.321515534534                 2
   157   135   136   161     1    180.000000000000     15.321515534534                 2
   161   136   137   162     1    180.000000000000     15.321515534534                 2
   164   144   145   165     1    180.000000000000     15.321515534534                 2
   165   145   146   166     1    180.000000000000     15.321515534534                 2
   168   151   152   169     1      0.000000000000      0.799950138473                 3
   168   151   152   170     1      0.000000000000      0.799950138473                 3
   168   151   152   171     1      0.000000000000      0.799950138473                 3
   168   151   153   172     1      0.000000000000      0.762485897686                 2
   168   151   153   172     1      0.000000000000      0.124362804952                 3
   168   151   153   186     1      0.000000000000      0.762485897686                 2
   168   151   153   186     1      0.000000000000      0.124362804952                 3
   172   153   186   185     1    180.000000000000      7.569054279773                 2
   172   153   186   185     1      0.000000000000     -0.201513062842                 1
   172   153   186   187     1    180.000000000000      9.825603686166                 2
   172   153   186   187     1      0.000000000000      5.255757435828                 1
   173   154   155   174     1    180.000000000000     15.321515534534                 2
   174   155   156   175     1    180.000000000000     15.321515534534                 2
   177   178   179   180     1    180.000000000000      6.410861677363                 2
   177   178   179   201     1    180.000000000000      6.410861677363                 2
   178   179   180   181     1    180.000000000000     15.321515534534                 2
   178   179   180   205     1    180.000000000000     15.321515534534                 2
   178   179   201   191     1    180.000000000000     15.321515534534                 2
   178   179   201   220     1    180.000000000000     15.321515534534                 2
   179   178   177   202     1      0.000000000000      0.198220506977                 3
   179   178   177   203     1      0.000000000000      0.198220506977                 3
   179   178   177   204     1      0.000000000000      0.198220506977                 3
   179   180   181   182     1    180.000000000000     15.321515534534                 2
   179   180   181   206     1    180.000000000000     15.321515534534                 2
   179   201   191   182     1    180.000000000000     15.321515534534                 2
   179   201   191   192     1    180.000000000000     15.321515534534                 2
   180   179   201   191     1    180.000000000000     15.321515534534                 2
   180   179   201   220     1    180.000000000000     15.321515534534                 2
   180   181   182   183     1    180.000000000000     15.321515534534                 2
   180   181   182   191     1    180.000000000000     15.321515534534                 2
   181   180   179   201     1    180.000000000000     15.321515534534                 2
   181   182   183   184     1    180.000000000000      4.866977563957                 2
   181   182   183   190     1    180.000000000000      4.866977563957                 2
   181   182   191   192     1    180.000000000000     15.321515534534                 2
   181   182   191   201     1    180.000000000000     15.321515534534                 2
   182   181   180   205     1    180.000000000000     15.321515534534                 2
   182   183   184   185     1    180.000000000000     15.321515534534                 2
   182   183   184   207     1    180.000000000000     15.321515534534                 2
   182   183   190   189     1    180.000000000000     15.321515534534                 2
   182   183   190   210     1    180.000000000000     15.321515534534                 2
   182   191   192   193     1    180.000000000000      4.866977563957                 2
   182   191   192   200     1    180.000000000000      4.866977563957                 2
   182   191   201   220     1    180.000000000000     15.321515534534                 2
   183   182   181   206     1    180.000000000000     15.321515534534                 2
   183   182   191   192     1    180.000000000000     15.321515534534                 2
   183   182   191   201     1    180.000000000000     15.321515534534                 2
   183   184   185   186     1    180.000000000000     15.321515534534                 2
   183   184   185   188     1    180.000000000000     15.321515534534                 2
   183   190   189   188     1    180.000000000000     15.321515534534                 2
   183   190   189   209     1    180.000000000000     15.321515534534                 2
   184   183   182   191     1    180.000000000000      4.866977563957                 2
   184   183   190   189     1    180.000000000000     15.321515534534                 2
   184   183   190   210     1    180.000000000000     15.321515534534                 2
   184   185   186   187     1    180.000000000000      4.173190890070                 2
   184   185   188   189     1    180.000000000000     15.321515534534                 2
   184   185   188   208     1    180.000000000000     15.321515534534                 2
   185   184   183   190     1    180.000000000000     15.321515534534                 2
   185   188   189   190     1    180.000000000000     15.321515534534                 2
   185   188   189   209     1    180.000000000000     15.321515534534                 2
   186   185   184   207     1    180.000000000000     15.321515534534                 2
   186   185   188   189     1    180.000000000000     15.321515534534                 2
   186   185   188   208     1    180.000000000000     15.321515534534                 2
   187   186   185   188     1    180.000000000000      4.173190890070                 2
   188   185   184   207     1    180.000000000000     15.321515534534                 2
   188   189   190   210     1    180.000000000000     15.321515534534                 2
   190   183   182   191     1    180.000000000000      4.866977563957                 2
   190   183   184   207     1    180.000000000000     15.321515534534                 2
   190   189   188   208     1    180.000000000000     15.321515534534                 2
   191   182   181   206     1    180.000000000000     15.321515534534                 2
   191   192   193   194     1    180.000000000000     15.321515534534                 2
   191   192   193   211     1    180.000000000000     15.321515534534                 2
   191   192   200   199     1    180.000000000000     15.321515534534                 2
   191   192   200   219     1    180.000000000000     15.321515534534                 2
   192   191   201   220     1    180.000000000000     15.321515534534                 2
   192   193   194   195     1    180.000000000000     15.321515534534                 2
   192   193   194   198     1    180.000000000000     15.321515534534                 2
   192   200   199   198     1    180.000000000000     15.321515534534                 2
   192   200   199   218     1    180.000000000000     15.321515534534                 2
   193   192   191   201     1    180.000000000000      4.866977563957                 2
   193   192   200   199     1    180.000000000000     15.321515534534                 2
   193   192   200   219     1    180.000000000000     15.321515534534                 2
   193   194   195   196     1      0.000000000000      0.111501038139                 3
   193   194   195   197     1      0.000000000000      0.111501038139                 3
   193   194   195   212     1      0.000000000000      0.111501038139                 3
   193   194   198   199     1    180.000000000000     15.321515534534                 2
   193   194   198   217     1    180.000000000000     15.321515534534                 2
   194   193   192   200     1    180.000000000000     15.321515534534                 2
   194   195   196   213     1      0.000000000000      0.483407861024                 3
   194   195   196   214     1      0.000000000000      0.483407861024                 3
   194   195   196   215     1      0.000000000000      0.483407861024                 3
   194   195   197   216     1      0.000000000000      0.762485897686                 2
   194   195   197   216     1      0.000000000000      0.124362804952                 3
   194   195   197   230     1    180.000000000000     -2.883499339083                 2
   194   195   197   230     1      0.000000000000      1.141330947302                 1
   194   198   199   200     1    180.000000000000     15.321515534534                 2
   194   198   199   218     1    180.000000000000     15.321515534534                 2
   195   194   193   211     1    180.000000000000     15.321515534534                 2
   195   194   198   199     1    180.000000000000     15.321515534534                 2
   195   194   198   217     1    180.000000000000     15.321515534534                 2
   195   197   230   229     1    180.000000000000      7.569054279773                 2
   195   197   230   229     1      0.000000000000     -0.201513062842                 1
   195   197   230   231     1    180.000000000000     12.978553656010                 2
   195   197   230   231     1      0.000000000000     -1.779100933344                 1
   196   195   194   198     1      0.000000000000      0.111501038139                 3
   196   195   197   216     1      0.000000000000      0.762485897686                 2
   196   195   197   216     1      0.000000000000      0.124362804952                 3
   196   195   197   230     1    180.000000000000     -0.622862944840                 4
   196   195   197   230     1    180.000000000000     -0.514769632165                 3
   196   195   197   230     1      0.000000000000      1.229801223351                 2
   196   195   197   230     1      0.000000000000     -1.265294746367                 1
   197   195   194   198     1      0.000000000000      0.111501038139                 3
   197   195   196   213     1      0.000000000000      0.483407861024                 3
   197   195   196   214     1      0.000000000000      0.483407861024                 3
   197   195   196   215     1      0.000000000000      0.483407861024                 3
   197   230   229   228     1    180.000000000000      4.173190890070                 2
   197   230   229   232     1    180.000000000000      4.173190890070                 2
   198   194   193   211     1    180.000000000000     15.321515534534                 2
   198   194   195   212     1      0.000000000000      0.111501038139                 3
   198   199   200   219     1    180.000000000000     15.321515534534                 2
   200   192   191   201     1    180.000000000000      4.866977563957                 2
   200   192   193   211     1    180.000000000000     15.321515534534                 2
   200   199   198   217     1    180.000000000000     15.321515534534                 2
   201   179   180   205     1    180.000000000000     15.321515534534                 2
   205   180   181   206     1    180.000000000000     15.321515534534                 2
   208   188   189   209     1    180.000000000000     15.321515534534                 2
   209   189   190   210     1    180.000000000000     15.321515534534                 2
   212   195   196   213     1      0.000000000000      0.799950138473                 3
   212   195   196   214     1      0.000000000000      0.799950138473                 3
   212   195   196   215     1      0.000000000000      0.799950138473                 3
   212   195   197   216     1      0.000000000000      0.762485897686                 2
   212   195   197   216     1      0.000000000000      0.124362804952                 3
   212   195   197   230     1      0.000000000000      0.762485897686                 2
   212   195   197   230     1      0.000000000000      0.124362804952                 3
   216   197   230   229     1    180.000000000000      7.569054279773                 2
   216   197   230   229     1      0.000000000000     -0.201513062842                 1
   216   197   230   231     1    180.000000000000      9.825603686166                 2
   216   197   230   231     1      0.000000000000      5.255757435828                 1
   217   198   199   218     1    180.000000000000     15.321515534534                 2
   218   199   200   219     1    180.000000000000     15.321515534534                 2
   221   222   223   224     1    180.000000000000      6.410861677363                 2
   221   222   223   245     1    180.000000000000      6.410861677363                 2
   222   223   224   225     1    180.000000000000     15.321515534534                 2
   222   223   224   249     1    180.000000000000     15.321515534534                 2
   222   223   245   235     1    180.000000000000     15.321515534534                 2
   222   223   245   264     1    180.000000000000     15.321515534534                 2
   223   222   221   246     1      0.000000000000      0.198220506977                 3
   223   222   221   247     1      0.000000000000      0.198220506977                 3
   223   222   221   248     1      0.000000000000      0.198220506977                 3
   223   224   225   226     1    180.000000000000     15.321515534534                 2
   223   224   225   250     1    180.000000000000     15.321515534534                 2
   223   245   235   226     1    180.000000000000     15.321515534534                 2
   223   245   235   236     1    180.000000000000     15.321515534534                 2
   224   223   245   235     1    180.000000000000     15.321515534534                 2
   224   223   245   264     1    180.000000000000     15.321515534534                 2
   224   225   226   227     1    180.000000000000     15.321515534534                 2
   224   225   226   235     1    180.000000000000     15.321515534534                 2
   225   224   223   245     1    180.000000000000     15.321515534534                 2
   225   226   227   228     1    180.000000000000      4.866977563957                 2
   225   226   227   234     1    180.000000000000      4.866977563957                 2
   225   226   235   236     1    180.000000000000     15.321515534534                 2
   225   226   235   245     1    180.000000000000     15.321515534534                 2
   226   225   224   249     1    180.000000000000     15.321515534534                 2
   226   227   228   229     1    180.000000000000     15.321515534534                 2
   226   227   228   251     1    180.000000000000     15.321515534534                 2
   226   227   234   233     1    180.000000000000     15.321515534534                 2
   226   227   234   254     1    180.000000000000     15.321515534534                 2
   226   235   236   237     1    180.000000000000      4.866977563957                 2
   226   235   236   244     1    180.000000000000      4.866977563957                 2
   226   235   245   264     1    180.000000000000     15.321515534534                 2
   227   226   225   250     1    180.000000000000     15.321515534534                 2
   227   226   235   236     1    180.000000000000     15.321515534534                 2
   227   226   235   245     1    180.000000000000     15.321515534534                 2
   227   228   229   230     1    180.000000000000     15.321515534534                 2
   227   228   229   232     1    180.000000000000     15.321515534534                 2
   227   234   233   232     1    180.000000000000     15.321515534534                 2
   227   234   233   253     1    180.000000000000     15.321515534534                 2
   228   227   226   235     1    180.000000000000      4.866977563957                 2
   228   227   234   233     1    180.000000000000     15.321515534534                 2
   228   227   234   254     1    180.000000000000     15.321515534534                 2
   228   229   230   231     1    180.000000000000      4.173190890070                 2
   228   229   232   233     1    180.000000000000     15.321515534534                 2
   228   229   232   252     1    180.000000000000     15.321515534534                 2
   229   228   227   234     1    180.000000000000     15.321515534534                 2
   229   232   233   234     1    180.000000000000     15.321515534534                 2
   229   232   233   253     1    180.000000000000     15.321515534534                 2
   230   229   228   251     1    180.000000000000     15.321515534534                 2
   230   229   232   233     1    180.000000000000     15.321515534534                 2
   230   229   232   252     1    180.000000000000     15.321515534534                 2
   231   230   229   232     1    180.000000000000      4.173190890070                 2
   232   229   228   251     1    180.000000000000     15.321515534534                 2
   232   233   234   254     1    180.000000000000     15.321515534534                 2
   234   227   226   235     1    180.000000000000      4.866977563957                 2
   234   227   228   251     1    180.000000000000     15.321515534534                 2
   234   233   232   252     1    180.000000000000     15.321515534534                 2
   235   226   225   250     1    180.000000000000     15.321515534534                 2
   235   236   237   238     1    180.000000000000     15.321515534534                 2
   235   236   237   255     1    180.000000000000     15.321515534534                 2
   235   236   244   243     1    180.000000000000     15.321515534534                 2
   235   236   244   263     1    180.000000000000     15.321515534534                 2
   236   235   245   264     1    180.000000000000     15.321515534534                 2
   236   237   238   239     1    180.000000000000     15.321515534534                 2
   236   237   238   242     1    180.000000000000     15.321515534534                 2
   236   244   243   242     1    180.000000000000     15.321515534534                 2
   236   244   243   262     1    180.000000000000     15.321515534534                 2
   237   236   235   245     1    180.000000000000      4.866977563957                 2
   237   236   244   243     1    180.000000000000     15.321515534534                 2
   237   236   244   263     1    180.000000000000     15.321515534534                 2
   237   238   239   240     1      0.000000000000      0.111501038139                 3
   237   238   239   241     1      0.000000000000      0.111501038139                 3
   237   238   239   256     1      0.000000000000      0.111501038139                 3
   237   238   242   243     1    180.000000000000     15.321515534534                 2
   237   238   242   261     1    180.000000000000     15.321515534534                 2
   238   237   236   244     1    180.000000000000     15.321515534534                 2
   238   239   240   257     1      0.000000000000      0.483407861024                 3
   238   239   240   258     1      0.000000000000      0.483407861024                 3
   238   239   240   259     1      0.000000000000      0.483407861024                 3
   238   239   241   260     1      0.000000000000      0.762485897686                 2
   238   239   241   260     1      0.000000000000      0.124362804952                 3
   238   239   241   274     1    180.000000000000     -2.883499339083                 2
   238   239   241   274     1      0.000000000000      1.141330947302                 1
   238   242   243   244     1    180.000000000000     15.321515534534                 2
   238   242   243   262     1    180.000000000000     15.321515534534                 2
   239   238   237   255     1    180.000000000000     15.321515534534                 2
   239   238   242   243     1    180.000000000000     15.321515534534                 2
   239   238   242   261     1    180.000000000000     15.321515534534                 2
   239   241   274   273     1    180.000000000000      7.569054279773                 2
   239   241   274   273     1      0.000000000000     -0.201513062842                 1
   239   241   274   275     1    180.000000000000     12.978553656010                 2
   239   241   274   275     1      0.000000000000     -1.779100933344                 1
   240   239   238   242     1      0.000000000000      0.111501038139                 3
   240   239   241   260     1      0.000000000000      0.762485897686                 2
   240   239   241   260     1      0.000000000000      0.124362804952                 3
   240   239   241   274     1    180.000000000000     -0.622862944840                 4
   240   239   241   274     1    180.000000000000     -0.514769632165                 3
   240   239   241   274     1      0.000000000000      1.229801223351                 2
   240   239   241   274     1      0.000000000000     -1.265294746367                 1
   241   239   238   242     1      0.000000000000      0.111501038139                 3
   241   239   240   257     1      0.000000000000      0.483407861024                 3
   241   239   240   258     1      0.000000000000      0.483407861024                 3
   241   239   240   259     1      0.000000000000      0.483407861024                 3
   241   274   273   272     1    180.000000000000      4.173190890070                 2
   241   274   273   276     1    180.000000000000      4.173190890070                 2
   242   238   237   255     1    180.000000000000     15.321515534534                 2
   242   238   239   256     1      0.000000000000      0.111501038139                 3
   242   243   244   263     1    180.000000000000     15.321515534534                 2
   244   236   235   245     1    180.000000000000      4.866977563957                 2
   244   236   237   255     1    180.000000000000     15.321515534534                 2
   244   243   242   261     1    180.000000000000     15.321515534534                 2
   245   223   224   249     1    180.000000000000     15.321515534534                 2
   249   224   225   250     1    180.000000000000     15.321515534534                 2
   252   232   233   253     1    180.000000000000     15.321515534534                 2
   253   233   234   254     1    180.000000000000     15.321515534534                 2
   256   239   240   257     1      0.000000000000      0.799950138473                 3
   256   239   240   258     1      0.000000000000      0.799950138473                 3
   256   239   240   259     1      0.000000000000      0.799950138473                 3
   256   239   241   260     1      0.000000000000      0.762485897686                 2
   256   239   241   260     1      0.000000000000      0.124362804952                 3
   256   239   241   274     1      0.000000000000      0.762485897686                 2
   256   239   241   274     1      0.000000000000      0.124362804952                 3
   260   241   274   273     1    180.000000000000      7.569054279773                 2
   260   241   274   273     1      0.000000000000     -0.201513062842                 1
   260   241   274   275     1    180.000000000000      9.825603686166                 2
   260   241   274   275     1      0.000000000000      5.255757435828                 1
   261   242   243   262     1    180.000000000000     15.321515534534                 2
   262   243   244   263     1    180.000000000000     15.321515534534                 2
   265   266   267   268     1    180.000000000000      6.410861677363                 2
   265   266   267   289     1    180.000000000000      6.410861677363                 2
   266   267   268   269     1    180.000000000000     15.321515534534                 2
   266   267   268   293     1    180.000000000000     15.321515534534                 2
   266   267   289   279     1    180.000000000000     15.321515534534                 2
   266   267   289   308     1    180.000000000000     15.321515534534                 2
   267   266   265   290     1      0.000000000000      0.198220506977                 3
   267   266   265   291     1      0.000000000000      0.198220506977                 3
   267   266   265   292     1      0.000000000000      0.198220506977                 3
   267   268   269   270     1    180.000000000000     15.321515534534                 2
   267   268   269   294     1    180.000000000000     15.321515534534                 2
   267   289   279   270     1    180.000000000000     15.321515534534                 2
   267   289   279   280     1    180.000000000000     15.321515534534                 2
   268   267   289   279     1    180.000000000000     15.321515534534                 2
   268   267   289   308     1    180.000000000000     15.321515534534                 2
   268   269   270   271     1    180.000000000000     15.321515534534                 2
   268   269   270   279     1    180.000000000000     15.321515534534                 2
   269   268   267   289     1    180.000000000000     15.321515534534                 2
   269   270   271   272     1    180.000000000000      4.866977563957                 2
   269   270   271   278     1    180.000000000000      4.866977563957                 2
   269   270   279   280     1    180.000000000000     15.321515534534                 2
   269   270   279   289     1    180.000000000000     15.321515534534                 2
   270   269   268   293     1    180.000000000000     15.321515534534                 2
   270   271   272   273     1    180.000000000000     15.321515534534                 2
   270   271   272   295     1    180.000000000000     15.321515534534                 2
   270   271   278   277     1    180.000000000000     15.321515534534                 2
   270   271   278   298     1    180.000000000000     15.321515534534                 2
   270   279   280   281     1    180.000000000000      4.866977563957                 2
   270   279   280   288     1    180.000000000000      4.866977563957                 2
   270   279   289   308     1    180.000000000000     15.321515534534                 2
   271   270   269   294     1    180.000000000000     15.321515534534                 2
   271   270   279   280     1    180.000000000000     15.321515534534                 2
   271   270   279   289     1    180.000000000000     15.321515534534                 2
   271   272   273   274     1    180.000000000000     15.321515534534                 2
   271   272   273   276     1    180.000000000000     15.321515534534                 2
   271   278   277   276     1    180.000000000000     15.321515534534                 2
   271   278   277   297     1    180.000000000000     15.321515534534                 2
   272   271   270   279     1    180.000000000000      4.866977563957                 2
   272   271   278   277     1    180.000000000000     15.321515534534                 2
   272   271   278   298     1    180.000000000000     15.321515534534                 2
   272   273   274   275     1    180.000000000000      4.173190890070                 2
   272   273   276   277     1    180.000000000000     15.321515534534                 2
   272   273   276   296     1    180.000000000000     15.321515534534                 2
   273   272   271   278     1    180.000000000000     15.321515534534                 2
   273   276   277   278     1    180.000000000000     15.321515534534                 2
   273   276   277   297     1    180.000000000000     15.321515534534                 2
   274   273   272   295     1    180.000000000000     15.321515534534                 2
   274   273   276   277     1    180.000000000000     15.321515534534                 2
   274   273   276   296     1    180.000000000000     15.321515534534                 2
   275   274   273   276     1    180.000000000000      4.173190890070                 2
   276   273   272   295     1    180.000000000000     15.321515534534                 2
   276   277   278   298     1    180.000000000000     15.321515534534                 2
   278   271   270   279     1    180.000000000000      4.866977563957                 2
   278   271   272   295     1    180.000000000000     15.321515534534                 2
   278   277   276   296     1    180.000000000000     15.321515534534                 2
   279   270   269   294     1    180.000000000000     15.321515534534                 2
   279   280   281   282     1    180.000000000000     15.321515534534                 2
   279   280   281   299     1    180.000000000000     15.321515534534                 2
   279   280   288   287     1    180.000000000000     15.321515534534                 2
   279   280   288   307     1    180.000000000000     15.321515534534                 2
   280   279   289   308     1    180.000000000000     15.321515534534                 2
   280   281   282   283     1    180.000000000000     15.321515534534                 2
   280   281   282   286     1    180.000000000000     15.321515534534                 2
   280   288   287   286     1    180.000000000000     15.321515534534                 2
   280   288   287   306     1    180.000000000000     15.321515534534                 2
   281   280   279   289     1    180.000000000000      4.866977563957                 2
   281   280   288   287     1    180.000000000000     15.321515534534                 2
   281   280   288   307     1    180.000000000000     15.321515534534                 2
   281   282   283   284     1      0.000000000000      0.111501038139                 3
   281   282   283   285     1      0.000000000000      0.111501038139                 3
   281   282   283   300     1      0.000000000000      0.111501038139                 3
   281   282   286   287     1    180.000000000000     15.321515534534                 2
   281   282   286   305     1    180.000000000000     15.321515534534                 2
   282   281   280   288     1    180.000000000000     15.321515534534                 2
   282   283   284   301     1      0.000000000000      0.483407861024                 3
   282   283   284   302     1      0.000000000000      0.483407861024                 3
   282   283   284   303     1      0.000000000000      0.483407861024                 3
   282   283   285   304     1      0.000000000000      0.762485897686                 2
   282   283   285   304     1      0.000000000000      0.124362804952                 3
   282   283   285   318     1    180.000000000000     -2.883499339083                 2
   282   283   285   318     1      0.000000000000      1.141330947302                 1
   282   286   287   288     1    180.000000000000     15.321515534534                 2
   282   286   287   306     1    180.000000000000     15.321515534534                 2
   283   282   281   299     1    180.000000000000     15.321515534534                 2
   283   282   286   287     1    180.000000000000     15.321515534534                 2
   283   282   286   305     1    180.000000000000     15.321515534534                 2
   283   285   318   317     1    180.000000000000      7.569054279773                 2
   283   285   318   317     1      0.000000000000     -0.201513062842                 1
   283   285   318   319     1    180.000000000000     12.978553656010                 2
   283   285   318   319     1      0.000000000000     -1.779100933344                 1
   284   283   282   286     1      0.000000000000      0.111501038139                 3
   284   283   285   304     1      0.000000000000      0.762485897686                 2
   284   283   285   304     1      0.000000000000      0.124362804952                 3
   284   283   285   318     1    180.000000000000     -0.622862944840                 4
   284   283   285   318     1    180.000000000000     -0.514769632165                 3
   284   283   285   318     1      0.000000000000      1.229801223351                 2
   284   283   285   318     1      0.000000000000     -1.265294746367                 1
   285   283   282   286     1      0.000000000000      0.111501038139                 3
   285   283   284   301     1      0.000000000000      0.483407861024                 3
   285   283   284   302     1      0.000000000000      0.483407861024                 3
   285   283   284   303     1      0.000000000000      0.483407861024                 3
   285   318   317   316     1    180.000000000000      4.173190890070                 2
   285   318   317   320     1    180.000000000000      4.173190890070                 2
   286   282   281   299     1    180.000000000000     15.321515534534                 2
   286   282   283   300     1      0.000000000000      0.111501038139                 3
   286   287   288   307     1    180.000000000000     15.321515534534                 2
   288   280   279   289     1    180.000000000000      4.866977563957                 2
   288   280   281   299     1    180.000000000000     15.321515534534                 2
   288   287   286   305     1    180.000000000000     15.321515534534                 2
   289   267   268   293     1    180.000000000000     15.321515534534                 2
   293   268   269   294     1    180.000000000000     15.321515534534                 2
   296   276   277   297     1    180.000000000000     15.321515534534                 2
   297   277   278   298     1    180.000000000000     15.321515534534                 2
   300   283   284   301     1      0.000000000000      0.799950138473                 3
   300   283   284   302     1      0.000000000000      0.799950138473                 3
   300   283   284   303     1      0.000000000000      0.799950138473                 3
   300   283   285   304     1      0.000000000000      0.762485897686                 2
   300   283   285   304     1      0.000000000000      0.124362804952                 3
   300   283   285   318     1      0.000000000000      0.762485897686                 2
   300   283   285   318     1      0.000000000000      0.124362804952                 3
   304   285   318   317     1    180.000000000000      7.569054279773                 2
   304   285   318   317     1      0.000000000000     -0.201513062842                 1
   304   285   318   319     1    180.000000000000      9.825603686166                 2
   304   285   318   319     1      0.000000000000      5.255757435828                 1
   305   286   287   306     1    180.000000000000     15.321515534534                 2
   306   287   288   307     1    180.000000000000     15.321515534534                 2
   309   310   311   312     1    180.000000000000      6.410861677363                 2
   309   310   311   333     1    180.000000000000      6.410861677363                 2
   310   311   312   313     1    180.000000000000     15.321515534534                 2
   310   311   312   337     1    180.000000000000     15.321515534534                 2
   310   311   333   323     1    180.000000000000     15.321515534534                 2
   310   311   333   352     1    180.000000000000     15.321515534534                 2
   311   310   309   334     1      0.000000000000      0.198220506977                 3
   311   310   309   335     1      0.000000000000      0.198220506977                 3
   311   310   309   336     1      0.000000000000      0.198220506977                 3
   311   312   313   314     1    180.000000000000     15.321515534534                 2
   311   312   313   338     1    180.000000000000     15.321515534534                 2
   311   333   323   314     1    180.000000000000     15.321515534534                 2
   311   333   323   324     1    180.000000000000     15.321515534534                 2
   312   311   333   323     1    180.000000000000     15.321515534534                 2
   312   311   333   352     1    180.000000000000     15.321515534534                 2
   312   313   314   315     1    180.000000000000     15.321515534534                 2
   312   313   314   323     1    180.000000000000     15.321515534534                 2
   313   312   311   333     1    180.000000000000     15.321515534534                 2
   313   314   315   316     1    180.000000000000      4.866977563957                 2
   313   314   315   322     1    180.000000000000      4.866977563957                 2
   313   314   323   324     1    180.000000000000     15.321515534534                 2
   313   314   323   333     1    180.000000000000     15.321515534534                 2
   314   313   312   337     1    180.000000000000     15.321515534534                 2
   314   315   316   317     1    180.000000000000     15.321515534534                 2
   314   315   316   339     1    180.000000000000     15.321515534534                 2
   314   315   322   321     1    180.000000000000     15.321515534534                 2
   314   315   322   342     1    180.000000000000     15.321515534534                 2
   314   323   324   325     1    180.000000000000      4.866977563957                 2
   314   323   324   332     1    180.000000000000      4.866977563957                 2
   314   323   333   352     1    180.000000000000     15.321515534534                 2
   315   314   313   338     1    180.000000000000     15.321515534534                 2
   315   314   323   324     1    180.000000000000     15.321515534534                 2
   315   314   323   333     1    180.000000000000     15.321515534534                 2
   315   316   317   318     1    180.000000000000     15.321515534534                 2
   315   316   317   320     1    180.000000000000     15.321515534534                 2
   315   322   321   320     1    180.000000000000     15.321515534534                 2
   315   322   321   341     1    180.000000000000     15.321515534534                 2
   316   315   314   323     1    180.000000000000      4.866977563957                 2
   316   315   322   321     1    180.000000000000     15.321515534534                 2
   316   315   322   342     1    180.000000000000     15.321515534534                 2
   316   317   318   319     1    180.000000000000      4.173190890070                 2
   316   317   320   321     1    180.000000000000     15.321515534534                 2
   316   317   320   340     1    180.000000000000     15.321515534534                 2
   317   316   315   322     1    180.000000000000     15.321515534534                 2
   317   320   321   322     1    180.000000000000     15.321515534534                 2
   317   320   321   341     1    180.000000000000     15.321515534534                 2
   318   317   316   339     1    180.000000000000     15.321515534534                 2
   318   317   320   321     1    180.000000000000     15.321515534534                 2
   318   317   320   340     1    180.000000000000     15.321515534534                 2
   319   318   317   320     1    180.000000000000      4.173190890070                 2
   320   317   316   339     1    180.000000000000     15.321515534534                 2
   320   321   322   342     1    180.000000000000     15.321515534534                 2
   322   315   314   323     1    180.000000000000      4.866977563957                 2
   322   315   316   339     1    180.000000000000     15.321515534534                 2
   322   321   320   340     1    180.000000000000     15.321515534534                 2
   323   314   313   338     1    180.000000000000     15.321515534534                 2
   323   324   325   326     1    180.000000000000     15.321515534534                 2
   323   324   325   343     1    180.000000000000     15.321515534534                 2
   323   324   332   331     1    180.000000000000     15.321515534534                 2
   323   324   332   351     1    180.000000000000     15.321515534534                 2
   324   323   333   352     1    180.000000000000     15.321515534534                 2
   324   325   326   327     1    180.000000000000     15.321515534534                 2
   324   325   326   330     1    180.000000000000     15.321515534534                 2
   324   332   331   330     1    180.000000000000     15.321515534534                 2
   324   332   331   350     1    180.000000000000     15.321515534534                 2
   325   324   323   333     1    180.000000000000      4.866977563957                 2
   325   324   332   331     1    180.000000000000     15.321515534534                 2
   325   324   332   351     1    180.000000000000     15.321515534534                 2
   325   326   327   328     1      0.000000000000      0.111501038139                 3
   325   326   327   329     1      0.000000000000      0.111501038139                 3
   325   326   327   344     1      0.000000000000      0.111501038139                 3
   325   326   330   331     1    180.000000000000     15.321515534534                 2
   325   326   330   349     1    180.000000000000     15.321515534534                 2
   326   325   324   332     1    180.000000000000     15.321515534534                 2
   326   327   328   345     1      0.000000000000      0.483407861024                 3
   326   327   328   346     1      0.000000000000      0.483407861024                 3
   326   327   328   347     1      0.000000000000      0.483407861024                 3
   326   327   329   348     1      0.000000000000      0.762485897686                 2
   326   327   329   348     1      0.000000000000      0.124362804952                 3
   326   327   329   363     1    180.000000000000     -2.883499339083                 2
   326   327   329   363     1      0.000000000000      1.141330947302                 1
   326   330   331   332     1    180.000000000000     15.321515534534                 2
   326   330   331   350     1    180.000000000000     15.321515534534                 2
   327   326   325   343     1    180.000000000000     15.321515534534                 2
   327   326   330   331     1    180.000000000000     15.321515534534                 2
   327   326   330   349     1    180.000000000000     15.321515534534                 2
   327   329   363   362     1    180.000000000000      7.569054279773                 2
   327   329   363   362     1      0.000000000000     -0.201513062842                 1
   327   329   363   364     1    180.000000000000      7.569054279773                 2
   327   329   363   364     1      0.000000000000     -0.201513062842                 1
   328   327   326   330     1      0.000000000000      0.111501038139                 3
   328   327   329   348     1      0.000000000000      0.762485897686                 2
   328   327   329   348     1      0.000000000000      0.124362804952                 3
   328   327   329   363     1    180.000000000000     -0.622862944840                 4
   328   327   329   363     1    180.000000000000     -0.514769632165                 3
   328   327   329   363     1      0.000000000000      1.229801223351                 2
   328   327   329   363     1      0.000000000000     -1.265294746367                 1
   329   327   326   330     1      0.000000000000      0.111501038139                 3
   329   327   328   345     1      0.000000000000      0.483407861024                 3
   329   327   328   346     1      0.000000000000      0.483407861024                 3
   329   327   328   347     1      0.000000000000      0.483407861024                 3
   329   363   362   359     1    180.000000000000     11.630908055712                 2
   330   326   325   343     1    180.000000000000     15.321515534534                 2
   330   326   327   344     1      0.000000000000      0.111501038139                 3
   330   331   332   351     1    180.000000000000     15.321515534534                 2
   332   324   323   333     1    180.000000000000      4.866977563957                 2
   332   324   325   343     1    180.000000000000     15.321515534534                 2
   332   331   330   349     1    180.000000000000     15.321515534534                 2
   333   311   312   337     1    180.000000000000     15.321515534534                 2
   337   312   313   338     1    180.000000000000     15.321515534534                 2
   340   320   321   341     1    180.000000000000     15.321515534534                 2
   341   321   322   342     1    180.000000000000     15.321515534534                 2
   344   327   328   345     1      0.000000000000      0.799950138473                 3
   344   327   328   346     1      0.000000000000      0.799950138473                 3
   344   327   328   347     1      0.000000000000      0.799950138473                 3
   344   327   329   348     1      0.000000000000      0.762485897686                 2
   344   327   329   348     1      0.000000000000      0.124362804952                 3
   344   327   329   363     1      0.000000000000      0.762485897686                 2
   344   327   329   363     1      0.000000000000      0.124362804952                 3
   348   329   363   362     1    180.000000000000      7.569054279773                 2
   348   329   363   362     1      0.000000000000     -0.201513062842                 1
   348   329   363   364     1    180.000000000000      2.033839522640                 2
   348   329   363   364     1      0.000000000000      3.730867000451                 1
   349   330   331   350     1    180.000000000000     15.321515534534                 2
   350   331   332   351     1    180.000000000000     15.321515534534                 2
   358   359   360   368     1      0.000000000000      0.435413753811                 3
   358   359   360   369     1      0.000000000000      0.435413753811                 3
   358   359   360   370     1      0.000000000000      0.435413753811                 3
   358   359   361   371     1      0.000000000000      0.435413753811                 3
   358   359   361   372     1      0.000000000000      0.435413753811                 3
   358   359   361   373     1      0.000000000000      0.435413753811                 3
   358   359   362   363     1      0.000000000000      0.802605161760                 3
   358   359   362   363     1    180.000000000000      3.850192060290                 1
   359   362   363   364     1    180.000000000000      4.869377577648                 2
   359   362   363   364     1    180.000000000000      0.702571835515                 1
   360   359   358   365     1      0.000000000000      0.435413753811                 3
   360   359   358   366     1      0.000000000000      0.435413753811                 3
   360   359   358   367     1      0.000000000000      0.435413753811                 3
   360   359   361   371     1      0.000000000000      0.435413753811                 3
   360   359   361   372     1      0.000000000000      0.435413753811                 3
   360   359   361   373     1      0.000000000000      0.435413753811                 3
   360   359   362   363     1      0.000000000000      0.802605161760                 3
   360   359   362   363     1    180.000000000000      3.850192060290                 1
   361   359   358   365     1      0.000000000000      0.435413753811                 3
   361   359   358   366     1      0.000000000000      0.435413753811                 3
   361   359   358   367     1      0.000000000000      0.435413753811                 3
   361   359   360   368     1      0.000000000000      0.435413753811                 3
   361   359   360   369     1      0.000000000000      0.435413753811                 3
   361   359   360   370     1      0.000000000000      0.435413753811                 3
   361   359   362   363     1      0.000000000000      0.802605161760                 3
   361   359   362   363     1    180.000000000000      3.850192060290                 1
   362   359   358   365     1      0.000000000000      0.466735938990                 3
   362   359   358   365     1      0.000000000000      1.436153909162                 1
   362   359   358   366     1      0.000000000000      0.466735938990                 3
   362   359   358   366     1      0.000000000000      1.436153909162                 1
   362   359   358   367     1      0.000000000000      0.466735938990                 3
   362   359   358   367     1      0.000000000000      1.436153909162                 1
   362   359   360   368     1      0.000000000000      0.466735938990                 3
   362   359   360   368     1      0.000000000000      1.436153909162                 1
   362   359   360   369     1      0.000000000000      0.466735938990                 3
   362   359   360   369     1      0.000000000000      1.436153909162                 1
   362   359   360   370     1      0.000000000000      0.466735938990                 3
   362   359   360   370     1      0.000000000000      1.436153909162                 1
   362   359   361   371     1      0.000000000000      0.466735938990                 3
   362   359   361   371     1      0.000000000000      1.436153909162                 1
   362   359   361   372     1      0.000000000000      0.466735938990                 3
   362   359   361   372     1      0.000000000000      1.436153909162                 1
   362   359   361   373     1      0.000000000000      0.466735938990                 3
   362   359   361   373     1      0.000000000000      1.436153909162                 1
    23    22    24    42     4    180.000000000000      1.534133333333                 2
    48    47    49    73     4    180.000000000000      1.534133333333                 2
   229   228   230   232     4    180.000000000000      1.534133333333                 2
   330   349   326   331     4    180.000000000000      1.534133333333                 2
   136   137   161   135     4    180.000000000000      1.534133333333                 2
     8     7     9    31     4    180.000000000000      1.534133333333                 2
   282   283   286   281     4    180.000000000000      1.534133333333                 2
   200   192   199   219     4    180.000000000000      1.534133333333                 2
   150   154   149   151     4    180.000000000000      1.534133333333                 2
    92    91    93   117     4    180.000000000000      1.534133333333                 2
    53    52    54    56     4    180.000000000000      1.534133333333                 2
    68    67    87    60     4    180.000000000000      1.534133333333                 2
   139   138   140   146     4    180.000000000000      1.534133333333                 2
    17    16    18    35     4    180.000000000000      1.534133333333                 2
   145   146   165   144     4    180.000000000000      1.534133333333                 2
    59    69    50    60     4    180.000000000000      1.534133333333                 2
   269   268   270   294     4    180.000000000000      1.534133333333                 2
    62    66    61    63     4    180.000000000000      1.534133333333                 2
    53    56    52    54     4    180.000000000000      1.534133333333                 2
   244   236   243   263     4    180.000000000000      1.534133333333                 2
   102    95   101   122     4    180.000000000000      1.534133333333                 2
   317   318   320   316     4    180.000000000000      1.534133333333                 2
     5     6    30     4     4    180.000000000000      1.534133333333                 2
   237   238   255   236     4    180.000000000000      1.534133333333                 2
   110   106   111   129     4    180.000000000000      1.534133333333                 2
    96    97   119    95     4    180.000000000000      1.534133333333                 2
    51    58    50    52     4    180.000000000000      1.534133333333                 2
   110   129   106   111     4    180.000000000000      1.534133333333                 2
   144   164   141   145     4    180.000000000000      1.534133333333                 2
    61    79    60    62     4    180.000000000000      1.534133333333                 2
   135   134   136   157     4    180.000000000000      1.534133333333                 2
   145   165   144   146     4    180.000000000000      1.534133333333                 2
   317   320   316   318     4    180.000000000000      1.534133333333                 2
    12    13    32     9     4    180.000000000000      1.534133333333                 2
   321   320   322   341     4    180.000000000000      1.534133333333                 2
    91    92   113    90     4    180.000000000000      1.534133333333                 2
    98    99    65    97     4    180.000000000000      1.534133333333                 2
   288   307   280   287     4    180.000000000000      1.534133333333                 2
   193   192   194   211     4    180.000000000000      1.534133333333                 2
   269   270   294   268     4    180.000000000000      1.534133333333                 2
   323   314   324   333     4    180.000000000000      1.534133333333                 2
   147   148   157   138     4    180.000000000000      1.534133333333                 2
   237   236   238   255     4    180.000000000000      1.534133333333                 2
   185   188   184   186     4    180.000000000000      1.534133333333                 2
   106   110   105   107     4    180.000000000000      1.534133333333                 2
   245   264   223   235     4    180.000000000000      1.534133333333                 2
    95   102    94    96     4    180.000000000000      1.534133333333                 2
    50    59    49    51     4    180.000000000000      1.534133333333                 2
    98    97    99    65     4    180.000000000000      1.534133333333                 2
   233   234   253   232     4    180.000000000000      1.534133333333                 2
   311   333   310   312     4    180.000000000000      1.534133333333                 2
   192   191   193   200     4    180.000000000000      1.534133333333                 2
   331   330   332   350     4    180.000000000000      1.534133333333                 2
   201   179   191   220     4    180.000000000000      1.534133333333                 2
   199   218   198   200     4    180.000000000000      1.534133333333                 2
   270   279   269   271     4    180.000000000000      1.534133333333                 2
    24    23    43    16     4    180.000000000000      1.534133333333                 2
   322   315   321   342     4    180.000000000000      1.534133333333                 2
    69    88    47    59     4    180.000000000000      1.534133333333                 2
   225   226   250   224     4    180.000000000000      1.534133333333                 2
   113   103   132    91     4    180.000000000000      1.534133333333                 2
   311   312   333   310     4    180.000000000000      1.534133333333                 2
   150   149   151   154     4    180.000000000000      1.534133333333                 2
    96   119    95    97     4    180.000000000000      1.534133333333                 2
     5     4     6    30     4    180.000000000000      1.534133333333                 2
   198   217   194   199     4    180.000000000000      1.534133333333                 2
    52    53    75    51     4    180.000000000000      1.534133333333                 2
    67    68    86    66     4    180.000000000000      1.534133333333                 2
   156   175   148   155     4    180.000000000000      1.534133333333                 2
   113    91   103   132     4    180.000000000000      1.534133333333                 2
   268   293   267   269     4    180.000000000000      1.534133333333                 2
   315   314   316   322     4    180.000000000000      1.534133333333                 2
   136   161   135   137     4    180.000000000000      1.534133333333                 2
   245   223   235   264     4    180.000000000000      1.534133333333                 2
    91    90    92   113     4    180.000000000000      1.534133333333                 2
   228   227   229   251     4    180.000000000000      1.534133333333                 2
   183   184   190   182     4    180.000000000000      1.534133333333                 2
   109   128   142   107     4    180.000000000000      1.394666666667                 2
    94   103    93    95     4    180.000000000000      1.534133333333                 2
    97    96    98   100     4    180.000000000000      1.534133333333                 2
   103    94   104   113     4    180.000000000000      1.534133333333                 2
    51    52    58    50     4    180.000000000000      1.534133333333                 2
    92   117    91    93     4    180.000000000000      1.534133333333                 2
   314   313   315   323     4    180.000000000000      1.534133333333                 2
     7    14     6     8     4    180.000000000000      1.534133333333                 2
   198   194   199   217     4    180.000000000000      1.534133333333                 2
   191   192   201   182     4    180.000000000000      1.534133333333                 2
   281   299   280   282     4    180.000000000000      1.534133333333                 2
   272   295   271   273     4    180.000000000000      1.534133333333                 2
    58    78    51    57     4    180.000000000000      1.534133333333                 2
   140   163   139   141     4    180.000000000000      1.534133333333                 2
     8     9    31     7     4    180.000000000000      1.534133333333                 2
    94    95   103    93     4    180.000000000000      1.534133333333                 2
   153   151   172   186     4    180.000000000000      1.394666666667                 2
    15    16    25     6     4    180.000000000000      1.534133333333                 2
   273   272   274   276     4    180.000000000000      1.534133333333                 2
   285   318   283   304     4    180.000000000000      1.394666666667                 2
   141   140   142   144     4    180.000000000000      1.534133333333                 2
   326   327   330   325     4    180.000000000000      1.534133333333                 2
   276   273   277   296     4    180.000000000000      1.534133333333                 2
    12    32     9    13     4    180.000000000000      1.534133333333                 2
   278   298   271   277     4    180.000000000000      1.534133333333                 2
    24    16    23    43     4    180.000000000000      1.534133333333                 2
   281   282   299   280     4    180.000000000000      1.534133333333                 2
   236   235   237   244     4    180.000000000000      1.534133333333                 2
    60    61    68    59     4    180.000000000000      1.534133333333                 2
   139   140   146   138     4    180.000000000000      1.534133333333                 2
   230   231   197   229     4    180.000000000000      1.534133333333                 2
   146   145   166   139     4    180.000000000000      1.534133333333                 2
   185   186   188   184     4    180.000000000000      1.534133333333                 2
   270   271   279   269     4    180.000000000000      1.534133333333                 2
    66    85    62    67     4    180.000000000000      1.534133333333                 2
   280   279   281   288     4    180.000000000000      1.534133333333                 2
   227   234   226   228     4    180.000000000000      1.534133333333                 2
   200   219   192   199     4    180.000000000000      1.534133333333                 2
   226   235   225   227     4    180.000000000000      1.534133333333                 2
   312   313   337   311     4    180.000000000000      1.534133333333                 2
   270   269   271   279     4    180.000000000000      1.534133333333                 2
   241   260   274   239     4    180.000000000000      1.394666666667                 2
    92    93   117    91     4    180.000000000000      1.534133333333                 2
   272   273   295   271     4    180.000000000000      1.534133333333                 2
   105   106   123   104     4    180.000000000000      1.534133333333                 2
    18    17    19    22     4    180.000000000000      1.534133333333                 2
   188   208   185   189     4    180.000000000000      1.534133333333                 2
    57    77    56    58     4    180.000000000000      1.534133333333                 2
    22    23    41    18     4    180.000000000000      1.534133333333                 2
   271   278   270   272     4    180.000000000000      1.534133333333                 2
   269   294   268   270     4    180.000000000000      1.534133333333                 2
   313   314   338   312     4    180.000000000000      1.534133333333                 2
    54    53    55    21     4    180.000000000000      1.534133333333                 2
   311   310   312   333     4    180.000000000000      1.534133333333                 2
   104   105   112   103     4    180.000000000000      1.534133333333                 2
   312   337   311   313     4    180.000000000000      1.534133333333                 2
   198   199   217   194     4    180.000000000000      1.534133333333                 2
   333   323   352   311     4    180.000000000000      1.534133333333                 2
    52    75    51    53     4    180.000000000000      1.534133333333                 2
   324   332   323   325     4    180.000000000000      1.534133333333                 2
    98    65    97    99     4    180.000000000000      1.534133333333                 2
   277   278   297   276     4    180.000000000000      1.534133333333                 2
   140   139   141   163     4    180.000000000000      1.534133333333                 2
   233   253   232   234     4    180.000000000000      1.534133333333                 2
   244   263   236   243     4    180.000000000000      1.534133333333                 2
   325   326   343   324     4    180.000000000000      1.534133333333                 2
   113   132    91   103     4    180.000000000000      1.534133333333                 2
    61    62    79    60     4    180.000000000000      1.534133333333                 2
   155   174   154   156     4    180.000000000000      1.534133333333                 2
   104   112   103   105     4    180.000000000000      1.534133333333                 2
    47    46    48    69     4    180.000000000000      1.534133333333                 2
   142   143   109   141     4    180.000000000000      1.534133333333                 2
   323   333   314   324     4    180.000000000000      1.534133333333                 2
   223   245   222   224     4    180.000000000000      1.534133333333                 2
   106   105   107   110     4    180.000000000000      1.534133333333                 2
   235   236   245   226     4    180.000000000000      1.534133333333                 2
   111   130   110   112     4    180.000000000000      1.534133333333                 2
   314   323   313   315     4    180.000000000000      1.534133333333                 2
     4     5    29     3     4    180.000000000000      1.534133333333                 2
    56    53    57    76     4    180.000000000000      1.534133333333                 2
   194   198   193   195     4    180.000000000000      1.534133333333                 2
    57    56    58    77     4    180.000000000000      1.534133333333                 2
     7     6     8    14     4    180.000000000000      1.534133333333                 2
   184   183   185   207     4    180.000000000000      1.534133333333                 2
    62    63    66    61     4    180.000000000000      1.534133333333                 2
   313   312   314   338     4    180.000000000000      1.534133333333                 2
   154   155   173   150     4    180.000000000000      1.534133333333                 2
   318   319   285   317     4    180.000000000000      1.534133333333                 2
   273   276   272   274     4    180.000000000000      1.534133333333                 2
   191   201   182   192     4    180.000000000000      1.534133333333                 2
    60    68    59    61     4    180.000000000000      1.534133333333                 2
   317   316   318   320     4    180.000000000000      1.534133333333                 2
    14    34     7    13     4    180.000000000000      1.534133333333                 2
   267   266   268   289     4    180.000000000000      1.534133333333                 2
   144   145   164   141     4    180.000000000000      1.534133333333                 2
   242   261   238   243     4    180.000000000000      1.534133333333                 2
    58    51    57    78     4    180.000000000000      1.534133333333                 2
    62    61    63    66     4    180.000000000000      1.534133333333                 2
    97    98   100    96     4    180.000000000000      1.534133333333                 2
   232   229   233   252     4    180.000000000000      1.534133333333                 2
   100    97   101   120     4    180.000000000000      1.534133333333                 2
   193   194   211   192     4    180.000000000000      1.534133333333                 2
   199   198   200   218     4    180.000000000000      1.534133333333                 2
    24    43    16    23     4    180.000000000000      1.534133333333                 2
   243   242   244   262     4    180.000000000000      1.534133333333                 2
    65    98    63    84     4    180.000000000000      1.394666666667                 2
   224   225   249   223     4    180.000000000000      1.534133333333                 2
   149   167   148   150     4    180.000000000000      1.534133333333                 2
    16    24    15    17     4    180.000000000000      1.534133333333                 2
   190   183   189   210     4    180.000000000000      1.534133333333                 2
    56    57    76    53     4    180.000000000000      1.534133333333                 2
   289   267   279   308     4    180.000000000000      1.534133333333                 2
   183   190   182   184     4    180.000000000000      1.534133333333                 2
   194   193   195   198     4    180.000000000000      1.534133333333                 2
   149   148   150   167     4    180.000000000000      1.534133333333                 2
   326   325   327   330     4    180.000000000000      1.534133333333                 2
   312   311   313   337     4    180.000000000000      1.534133333333                 2
    47    48    69    46     4    180.000000000000      1.534133333333                 2
     7     8    14     6     4    180.000000000000      1.534133333333                 2
    93   118    92    94     4    180.000000000000      1.534133333333                 2
   324   325   332   323     4    180.000000000000      1.534133333333                 2
    60    59    61    68     4    180.000000000000      1.534133333333                 2
   329   363   327   348     4    180.000000000000      1.394666666667                 2
   193   211   192   194     4    180.000000000000      1.534133333333                 2
    69    59    88    47     4    180.000000000000      1.534133333333                 2
   274   273   275   241     4    180.000000000000      1.534133333333                 2
    49    48    50    74     4    180.000000000000      1.534133333333                 2
   109   107   128   142     4    180.000000000000      1.394666666667                 2
   329   327   348   363     4    180.000000000000      1.394666666667                 2
   111   110   112   130     4    180.000000000000      1.534133333333                 2
   181   206   180   182     4    180.000000000000      1.534133333333                 2
   324   323   325   332     4    180.000000000000      1.534133333333                 2
    13    14    33    12     4    180.000000000000      1.534133333333                 2
    10     9    11   354     4    180.000000000000     14.644000000000                 2
    14    13    34     7     4    180.000000000000      1.534133333333                 2
   182   181   183   191     4    180.000000000000      1.534133333333                 2
    53    54    56    52     4    180.000000000000      1.534133333333                 2
   184   185   207   183     4    180.000000000000      1.534133333333                 2
   197   216   230   195     4    180.000000000000      1.394666666667                 2
   101   121   100   102     4    180.000000000000      1.534133333333                 2
    66    62    67    85     4    180.000000000000      1.534133333333                 2
    65    84    98    63     4    180.000000000000      1.394666666667                 2
   245   235   264   223     4    180.000000000000      1.534133333333                 2
   314   315   323   313     4    180.000000000000      1.534133333333                 2
   280   288   279   281     4    180.000000000000      1.534133333333                 2
    15     6    16    25     4    180.000000000000      1.534133333333                 2
   136   135   137   161     4    180.000000000000      1.534133333333                 2
   280   281   288   279     4    180.000000000000      1.534133333333                 2
    13    33    12    14     4    180.000000000000      1.534133333333                 2
   281   280   282   299     4    180.000000000000      1.534133333333                 2
   142   141   143   109     4    180.000000000000      1.534133333333                 2
   146   139   145   166     4    180.000000000000      1.534133333333                 2
   188   185   189   208     4    180.000000000000      1.534133333333                 2
   315   316   322   314     4    180.000000000000      1.534133333333                 2
   156   148   155   175     4    180.000000000000      1.534133333333                 2
   229   232   228   230     4    180.000000000000      1.534133333333                 2
   182   191   181   183     4    180.000000000000      1.534133333333                 2
    95    96   102    94     4    180.000000000000      1.534133333333                 2
   139   146   138   140     4    180.000000000000      1.534133333333                 2
   157   135   147   176     4    180.000000000000      1.534133333333                 2
   315   322   314   316     4    180.000000000000      1.534133333333                 2
   267   289   266   268     4    180.000000000000      1.534133333333                 2
    48    73    47    49     4    180.000000000000      1.534133333333                 2
   181   182   206   180     4    180.000000000000      1.534133333333                 2
    51    50    52    58     4    180.000000000000      1.534133333333                 2
     3    25     2     4     4    180.000000000000      1.534133333333                 2
   197   195   216   230     4    180.000000000000      1.394666666667                 2
   273   274   276   272     4    180.000000000000      1.534133333333                 2
    10    11   354     9     4    180.000000000000     14.644000000000                 2
    91   113    90    92     4    180.000000000000      1.534133333333                 2
   189   190   209   188     4    180.000000000000      1.534133333333                 2
   276   277   296   273     4    180.000000000000      1.534133333333                 2
   197   230   195   216     4    180.000000000000      1.394666666667                 2
   223   222   224   245     4    180.000000000000      1.534133333333                 2
   234   233   254   227     4    180.000000000000      1.534133333333                 2
    22    18    23    41     4    180.000000000000      1.534133333333                 2
    56    76    53    57     4    180.000000000000      1.534133333333                 2
   288   280   287   307     4    180.000000000000      1.534133333333                 2
   101   100   102   121     4    180.000000000000      1.534133333333                 2
   148   147   149   156     4    180.000000000000      1.534133333333                 2
   101   102   121   100     4    180.000000000000      1.534133333333                 2
   326   330   325   327     4    180.000000000000      1.534133333333                 2
   154   150   155   173     4    180.000000000000      1.534133333333                 2
   189   188   190   209     4    180.000000000000      1.534133333333                 2
   279   280   289   270     4    180.000000000000      1.534133333333                 2
   105   104   106   123     4    180.000000000000      1.534133333333                 2
   271   272   278   270     4    180.000000000000      1.534133333333                 2
   285   304   318   283     4    180.000000000000      1.394666666667                 2
   321   322   341   320     4    180.000000000000      1.534133333333                 2
   242   238   243   261     4    180.000000000000      1.534133333333                 2
    49    74    48    50     4    180.000000000000      1.534133333333                 2
   229   230   232   228     4    180.000000000000      1.534133333333                 2
   180   179   181   205     4    180.000000000000      1.534133333333                 2
   146   166   139   145     4    180.000000000000      1.534133333333                 2
   287   306   286   288     4    180.000000000000      1.534133333333                 2
     5    30     4     6     4    180.000000000000      1.534133333333                 2
   282   286   281   283     4    180.000000000000      1.534133333333                 2
    23    24    42    22     4    180.000000000000      1.534133333333                 2
   112   111   131   104     4    180.000000000000      1.534133333333                 2
     4    29     3     5     4    180.000000000000      1.534133333333                 2
   201   191   220   179     4    180.000000000000      1.534133333333                 2
   333   311   323   352     4    180.000000000000      1.534133333333                 2
   282   281   283   286     4    180.000000000000      1.534133333333                 2
   332   324   331   351     4    180.000000000000      1.534133333333                 2
   225   250   224   226     4    180.000000000000      1.534133333333                 2
   268   269   293   267     4    180.000000000000      1.534133333333                 2
   147   157   138   148     4    180.000000000000      1.534133333333                 2
    58    57    78    51     4    180.000000000000      1.534133333333                 2
   186   185   187   153     4    180.000000000000      1.534133333333                 2
    93    92    94   118     4    180.000000000000      1.534133333333                 2
   289   279   308   267     4    180.000000000000      1.534133333333                 2
   154   173   150   155     4    180.000000000000      1.534133333333                 2
   105   123   104   106     4    180.000000000000      1.534133333333                 2
    16    15    17    24     4    180.000000000000      1.534133333333                 2
   153   186   151   172     4    180.000000000000      1.394666666667                 2
   286   305   282   287     4    180.000000000000      1.534133333333                 2
   186   153   185   187     4    180.000000000000      1.534133333333                 2
   320   317   321   340     4    180.000000000000      1.534133333333                 2
   182   183   191   181     4    180.000000000000      1.534133333333                 2
    22    41    18    23     4    180.000000000000      1.534133333333                 2
    61    60    62    79     4    180.000000000000      1.534133333333                 2
   234   254   227   233     4    180.000000000000      1.534133333333                 2
    69    47    59    88     4    180.000000000000      1.534133333333                 2
   271   270   272   278     4    180.000000000000      1.534133333333                 2
    54    21    53    55     4    180.000000000000      1.534133333333                 2
   331   350   330   332     4    180.000000000000      1.534133333333                 2
    65    63    84    98     4    180.000000000000      1.394666666667                 2
   320   321   340   317     4    180.000000000000      1.534133333333                 2
   286   282   287   305     4    180.000000000000      1.534133333333                 2
   106   107   110   105     4    180.000000000000      1.534133333333                 2
   331   332   350   330     4    180.000000000000      1.534133333333                 2
   238   237   239   242     4    180.000000000000      1.534133333333                 2
   235   245   226   236     4    180.000000000000      1.534133333333                 2
   103   113    94   104     4    180.000000000000      1.534133333333                 2
   322   321   342   315     4    180.000000000000      1.534133333333                 2
   330   326   331   349     4    180.000000000000      1.534133333333                 2
   288   287   307   280     4    180.000000000000      1.534133333333                 2
    18    19    22    17     4    180.000000000000      1.534133333333                 2
    14     7    13    34     4    180.000000000000      1.534133333333                 2
    21    19    40    54     4    180.000000000000      1.394666666667                 2
   186   187   153   185     4    180.000000000000      1.534133333333                 2
     6    15     5     7     4    180.000000000000      1.534133333333                 2
   181   180   182   206     4    180.000000000000      1.534133333333                 2
   225   224   226   250     4    180.000000000000      1.534133333333                 2
   156   155   175   148     4    180.000000000000      1.534133333333                 2
   112   131   104   111     4    180.000000000000      1.534133333333                 2
    59    60    69    50     4    180.000000000000      1.534133333333                 2
   268   267   269   293     4    180.000000000000      1.534133333333                 2
   179   178   180   201     4    180.000000000000      1.534133333333                 2
   145   144   146   165     4    180.000000000000      1.534133333333                 2
   179   201   178   180     4    180.000000000000      1.534133333333                 2
    68    87    60    67     4    180.000000000000      1.534133333333                 2
   277   276   278   297     4    180.000000000000      1.534133333333                 2
   111   112   130   110     4    180.000000000000      1.534133333333                 2
   223   224   245   222     4    180.000000000000      1.534133333333                 2
   200   199   219   192     4    180.000000000000      1.534133333333                 2
   138   139   147   137     4    180.000000000000      1.534133333333                 2
   325   343   324   326     4    180.000000000000      1.534133333333                 2
   157   147   176   135     4    180.000000000000      1.534133333333                 2
   322   342   315   321     4    180.000000000000      1.534133333333                 2
    25     3    15    44     4    180.000000000000      1.534133333333                 2
   316   315   317   339     4    180.000000000000      1.534133333333                 2
     3     4    25     2     4    180.000000000000      1.534133333333                 2
    95    94    96   102     4    180.000000000000      1.534133333333                 2
    47    69    46    48     4    180.000000000000      1.534133333333                 2
    57    58    77    56     4    180.000000000000      1.534133333333                 2
    67    86    66    68     4    180.000000000000      1.534133333333                 2
   228   251   227   229     4    180.000000000000      1.534133333333                 2
   185   184   186   188     4    180.000000000000      1.534133333333                 2
   157   176   135   147     4    180.000000000000      1.534133333333                 2
     6     7    15     5     4    180.000000000000      1.534133333333                 2
    96    95    97   119     4    180.000000000000      1.534133333333                 2
   100   120    97   101     4    180.000000000000      1.534133333333                 2
   140   141   163   139     4    180.000000000000      1.534133333333                 2
   135   157   134   136     4    180.000000000000      1.534133333333                 2
    25    44     3    15     4    180.000000000000      1.534133333333                 2
   147   138   148   157     4    180.000000000000      1.534133333333                 2
   234   227   233   254     4    180.000000000000      1.534133333333                 2
    13    12    14    33     4    180.000000000000      1.534133333333                 2
   316   317   339   315     4    180.000000000000      1.534133333333                 2
   236   237   244   235     4    180.000000000000      1.534133333333                 2
   238   242   237   239     4    180.000000000000      1.534133333333                 2
   102   122    95   101     4    180.000000000000      1.534133333333                 2
     9    12     8    10     4    180.000000000000      1.534133333333                 2
    12     9    13    32     4    180.000000000000      1.534133333333                 2
   241   274   239   260     4    180.000000000000      1.394666666667                 2
   230   229   231   197     4    180.000000000000      1.534133333333                 2
   287   286   288   306     4    180.000000000000      1.534133333333                 2
   285   283   304   318     4    180.000000000000      1.394666666667                 2
     6     5     7    15     4    180.000000000000      1.534133333333                 2
   287   288   306   286     4    180.000000000000      1.534133333333                 2
   330   331   349   326     4    180.000000000000      1.534133333333                 2
    21    40    54    19     4    180.000000000000      1.394666666667                 2
   277   297   276   278     4    180.000000000000      1.534133333333                 2
     9     8    10    12     4    180.000000000000      1.534133333333                 2
   155   156   174   154     4    180.000000000000      1.534133333333                 2
   289   308   267   279     4    180.000000000000      1.534133333333                 2
   135   136   157   134     4    180.000000000000      1.534133333333                 2
   112   104   111   131     4    180.000000000000      1.534133333333                 2
   138   137   139   147     4    180.000000000000      1.534133333333                 2
   276   296   273   277     4    180.000000000000      1.534133333333                 2
    66    67    85    62     4    180.000000000000      1.534133333333                 2
   191   182   192   201     4    180.000000000000      1.534133333333                 2
   320   340   317   321     4    180.000000000000      1.534133333333                 2
   235   226   236   245     4    180.000000000000      1.534133333333                 2
   141   144   140   142     4    180.000000000000      1.534133333333                 2
   228   229   251   227     4    180.000000000000      1.534133333333                 2
   233   232   234   253     4    180.000000000000      1.534133333333                 2
   333   352   311   323     4    180.000000000000      1.534133333333                 2
   141   142   144   140     4    180.000000000000      1.534133333333                 2
   137   162   136   138     4    180.000000000000      1.534133333333                 2
   230   197   229   231     4    180.000000000000      1.534133333333                 2
   325   324   326   343     4    180.000000000000      1.534133333333                 2
    59    50    60    69     4    180.000000000000      1.534133333333                 2
   232   252   229   233     4    180.000000000000      1.534133333333                 2
    16    17    24    15     4    180.000000000000      1.534133333333                 2
   363   329   362   364     4    180.000000000000     14.644000000000                 2
   226   227   235   225     4    180.000000000000      1.534133333333                 2
   274   275   241   273     4    180.000000000000      1.534133333333                 2
   279   289   270   280     4    180.000000000000      1.534133333333                 2
   180   205   179   181     4    180.000000000000      1.534133333333                 2
   236   244   235   237     4    180.000000000000      1.534133333333                 2
    93    94   118    92     4    180.000000000000      1.534133333333                 2
   323   324   333   314     4    180.000000000000      1.534133333333                 2
   102   101   122    95     4    180.000000000000      1.534133333333                 2
    17    18    35    16     4    180.000000000000      1.534133333333                 2
   313   338   312   314     4    180.000000000000      1.534133333333                 2
   238   239   242   237     4    180.000000000000      1.534133333333                 2
    23    42    22    24     4    180.000000000000      1.534133333333                 2
   192   200   191   193     4    180.000000000000      1.534133333333                 2
    52    51    53    75     4    180.000000000000      1.534133333333                 2
    21    54    19    40     4    180.000000000000      1.394666666667                 2
   142   109   141   143     4    180.000000000000      1.534133333333                 2
     4     3     5    29     4    180.000000000000      1.534133333333                 2
   242   243   261   238     4    180.000000000000      1.534133333333                 2
    97   100    96    98     4    180.000000000000      1.534133333333                 2
   201   220   179   191     4    180.000000000000      1.534133333333                 2
   150   151   154   149     4    180.000000000000      1.534133333333                 2
    49    50    74    48     4    180.000000000000      1.534133333333                 2
   137   136   138   162     4    180.000000000000      1.534133333333                 2
    25    15    44     3     4    180.000000000000      1.534133333333                 2
   189   209   188   190     4    180.000000000000      1.534133333333                 2
   279   270   280   289     4    180.000000000000      1.534133333333                 2
   237   255   236   238     4    180.000000000000      1.534133333333                 2
    15    25     6    16     4    180.000000000000      1.534133333333                 2
     8    31     7     9     4    180.000000000000      1.534133333333                 2
   232   233   252   229     4    180.000000000000      1.534133333333                 2
   224   249   223   225     4    180.000000000000      1.534133333333                 2
   138   147   137   139     4    180.000000000000      1.534133333333                 2
   363   364   329   362     4    180.000000000000     14.644000000000                 2
    17    35    16    18     4    180.000000000000      1.534133333333                 2
   318   285   317   319     4    180.000000000000      1.534133333333                 2
   104   103   105   112     4    180.000000000000      1.534133333333                 2
   192   193   200   191     4    180.000000000000      1.534133333333                 2
   155   154   156   174     4    180.000000000000      1.534133333333                 2
   179   180   201   178     4    180.000000000000      1.534133333333                 2
   227   228   234   226     4    180.000000000000      1.534133333333                 2
   272   271   273   295     4    180.000000000000      1.534133333333                 2
   363   362   364   329     4    180.000000000000     14.644000000000                 2
   278   277   298   271     4    180.000000000000      1.534133333333                 2
   148   156   147   149     4    180.000000000000      1.534133333333                 2
   184   207   183   185     4    180.000000000000      1.534133333333                 2
   227   226   228   234     4    180.000000000000      1.534133333333                 2
   332   331   351   324     4    180.000000000000      1.534133333333                 2
   144   141   145   164     4    180.000000000000      1.534133333333                 2
   180   181   205   179     4    180.000000000000      1.534133333333                 2
    18    22    17    19     4    180.000000000000      1.534133333333                 2
   188   189   208   185     4    180.000000000000      1.534133333333                 2
   199   200   218   198     4    180.000000000000      1.534133333333                 2
   274   241   273   275     4    180.000000000000      1.534133333333                 2
   103   104   113    94     4    180.000000000000      1.534133333333                 2
    50    49    51    59     4    180.000000000000      1.534133333333                 2
   267   268   289   266     4    180.000000000000      1.534133333333                 2
   241   239   260   274     4    180.000000000000      1.394666666667                 2
   190   210   183   189     4    180.000000000000      1.534133333333                 2
   243   262   242   244     4    180.000000000000      1.534133333333                 2
   194   195   198   193     4    180.000000000000      1.534133333333                 2
   278   271   277   298     4    180.000000000000      1.534133333333                 2
   100   101   120    97     4    180.000000000000      1.534133333333                 2
    54    55    21    53     4    180.000000000000      1.534133333333                 2
   243   244   262   242     4    180.000000000000      1.534133333333                 2
   316   339   315   317     4    180.000000000000      1.534133333333                 2
   149   150   167   148     4    180.000000000000      1.534133333333                 2
   286   287   305   282     4    180.000000000000      1.534133333333                 2
    94    93    95   103     4    180.000000000000      1.534133333333                 2
   332   351   324   331     4    180.000000000000      1.534133333333                 2
     9    10    12     8     4    180.000000000000      1.534133333333                 2
   226   225   227   235     4    180.000000000000      1.534133333333                 2
   153   172   186   151     4    180.000000000000      1.394666666667                 2
    50    51    59    49     4    180.000000000000      1.534133333333                 2
   244   243   263   236     4    180.000000000000      1.534133333333                 2
    67    66    68    86     4    180.000000000000      1.534133333333                 2
   321   341   320   322     4    180.000000000000      1.534133333333                 2
   148   149   156   147     4    180.000000000000      1.534133333333                 2
   109   142   107   128     4    180.000000000000      1.394666666667                 2
   183   182   184   190     4    180.000000000000      1.534133333333                 2
   190   189   210   183     4    180.000000000000      1.534133333333                 2
   137   138   162   136     4    180.000000000000      1.534133333333                 2
   318   317   319   285     4    180.000000000000      1.534133333333                 2
   224   223   225   249     4    180.000000000000      1.534133333333                 2
   110   111   129   106     4    180.000000000000      1.534133333333                 2
    68    60    67    87     4    180.000000000000      1.534133333333                 2
    48    49    73    47     4    180.000000000000      1.534133333333                 2
   329   348   363   327     4    180.000000000000      1.394666666667                 2
     3     2     4    25     4    180.000000000000      1.534133333333                 2
    10   354     9    11     4    180.000000000000     14.644000000000                 2

[ settles ]
;i  funct   dOH  dHH


[ exclusions ]
;ai    aj

[ moleculetype ]
TCM	         3

[ atoms ]
;index, atom type, resnum, resname, name, cgnr, charge, mass
     1 TCM_0        1 TCM      c1         1      0.224379999936     12.010780000000
     2 TCM_1        1 TCM      cl1        1     -0.114630000293     35.453200000000
     3 TCM_2        1 TCM      cl2        1     -0.114630000293     35.453200000000
     4 TCM_3        1 TCM      h1         1      0.119510000944      1.007947000000
     5 TCM_4        1 TCM      cl3        1     -0.114630000293     35.453200000000

[ pairs ]
;ai    aj   funct

[ bonds ]
;ai    aj   funct r k
     1      2      1      0.179482617418  173885.040698109922 
     1      3      1      0.179482617418  173885.040698109922 
     1      4      1      0.109288837838  317186.185378679947 
     1      5      1      0.179482617418  173885.040698109922 

[ angles ]
;ai    aj   ak   funct theta  k
     2      1      3      1     107.660782175200     425.669014814353 
     2      1      4      1     107.660782175200     425.669014814353 
     2      1      5      1     107.660782175200     425.669014814353 
     3      1      4      1     107.660782175200     425.669014814353 
     3      1      5      1     107.660782175200     425.669014814353 
     4      1      5      1     107.660782175200     425.669014814353 

[ dihedrals ]
;ai    aj   ak   al   funct phi  k

[ settles ]
;i  funct   dOH  dHH


[ exclusions ]
;ai    aj


[ system ]
;name
FOO

[ molecules ]
;name	number
em_helix_mom_octamer	1
TCM	634

