GROup of MAchos and Cynical Suckers
 3543
    1MOM     C1    1   2.036   1.692   2.721
    1MOM     O2    2   1.897   1.709   2.691
    1MOM     C3    3   1.859   1.714   2.559
    1MOM     C4    4   1.945   1.692   2.450
    1MOM     C5    5   1.895   1.700   2.320
    1MOM     C6    6   1.761   1.731   2.291
    1MOM     C7    7   1.720   1.741   2.147
    1MOM     C8    8   1.590   1.707   2.101
    1MOM     C9    9   1.554   1.716   1.966
    1MOM    C10   10   1.415   1.687   1.923
    1MOM    O11   11   1.393   1.676   1.803
    1MOM    C12   12   1.652   1.754   1.874
    1MOM    C13   13   1.780   1.787   1.915
    1MOM    C14   14   1.813   1.781   2.050
    1MOM    C15   15   1.674   1.750   2.403
    1MOM    C16   16   1.530   1.778   2.396
    1MOM    C17   17   1.480   1.904   2.358
    1MOM    C18   18   1.342   1.929   2.359
    1MOM    C19   19   1.283   2.065   2.319
    1MOM    C20   20   1.353   2.181   2.390
    1MOM    N21   21   1.298   2.079   2.176
    1MOM    C22   22   1.253   1.827   2.394
    1MOM    C23   23   1.302   1.701   2.432
    1MOM    C24   24   1.440   1.677   2.435
    1MOM    C25   25   1.725   1.741   2.533
    1MOM    H26   26   2.097   1.770   2.676
    1MOM    H27   27   2.071   1.593   2.686
    1MOM    H28   28   2.051   1.696   2.830
    1MOM    H29   29   2.049   1.668   2.463
    1MOM    H30   30   1.965   1.678   2.239
    1MOM    H31   31   1.516   1.671   2.172
    1MOM    H32   32   1.627   1.761   1.768
    1MOM    H33   33   1.854   1.819   1.842
    1MOM    H34   34   1.914   1.811   2.078
    1MOM    H35   35   1.550   1.980   2.328
    1MOM    H36   36   1.178   2.067   2.347
    1MOM    H37   37   1.303   2.275   2.364
    1MOM    H38   38   1.347   2.168   2.498
    1MOM    H39   39   1.457   2.188   2.361
    1MOM    H40   40   1.390   2.108   2.139
    1MOM    H41   41   1.146   1.842   2.391
    1MOM    H42   42   1.233   1.622   2.459
    1MOM    H43   43   1.477   1.581   2.465
    1MOM    H44   44   1.660   1.757   2.618
    2MOM    C45   45   1.989   1.965   1.471
    2MOM    O46   46   1.950   2.035   1.590
    2MOM    C47   47   1.818   2.036   1.626
    2MOM    C48   48   1.714   1.973   1.555
    2MOM    C49   49   1.582   1.980   1.602
    2MOM    C50   50   1.549   2.050   1.719
    2MOM    C51   51   1.406   2.047   1.762
    2MOM    C52   52   1.370   2.042   1.897
    2MOM    C53   53   1.236   2.041   1.940
    2MOM    C54   54   1.202   2.043   2.083
    2MOM    O55   55   1.090   2.011   2.121
    2MOM    C56   56   1.135   2.038   1.842
    2MOM    C57   57   1.168   2.037   1.707
    2MOM    C58   58   1.302   2.044   1.668
    2MOM    C59   59   1.654   2.114   1.791
    2MOM    C60   60   1.639   2.191   1.915
    2MOM    C61   61   1.590   2.323   1.916
    2MOM    C62   62   1.586   2.398   2.035
    2MOM    C63   63   1.538   2.542   2.042
    2MOM    C64   64   1.584   2.626   1.923
    2MOM    N65   65   1.394   2.541   2.047
    2MOM    C66   66   1.627   2.336   2.155
    2MOM    C67   67   1.675   2.206   2.155
    2MOM    C68   68   1.683   2.134   2.036
    2MOM    C69   69   1.785   2.105   1.742
    2MOM    H70   70   1.939   2.008   1.383
    2MOM    H71   71   1.964   1.858   1.479
    2MOM    H72   72   2.096   1.974   1.457
    2MOM    H73   73   1.733   1.916   1.465
    2MOM    H74   74   1.507   1.925   1.546
    2MOM    H75   75   1.448   2.035   1.972
    2MOM    H76   76   1.031   2.035   1.872
    2MOM    H77   77   1.089   2.034   1.633
    2MOM    H78   78   1.323   2.046   1.561
    2MOM    H79   79   1.558   2.366   1.822
    2MOM    H80   80   1.579   2.589   2.132
    2MOM    H81   81   1.555   2.730   1.938
    2MOM    H82   82   1.692   2.622   1.912
    2MOM    H83   83   1.539   2.592   1.830
    2MOM    H84   84   1.343   2.529   1.960
    2MOM    H85   85   1.621   2.392   2.249
    2MOM    H86   86   1.708   2.160   2.249
    2MOM    H87   87   1.722   2.033   2.036
    2MOM    H88   88   1.865   2.154   1.796
    3MOM    C89   89   0.660   2.049   1.595
    3MOM    O90   90   0.773   2.137   1.582
    3MOM    C91   91   0.820   2.200   1.695
    3MOM    C92   92   0.773   2.179   1.825
    3MOM    C93   93   0.830   2.249   1.931
    3MOM    C94   94   0.933   2.343   1.913
    3MOM    C95   95   0.988   2.411   2.033
    3MOM    C96   96   1.124   2.438   2.046
    3MOM    C97   97   1.177   2.504   2.158
    3MOM    C98   98   1.321   2.536   2.163
    3MOM    O99   99   1.376   2.553   2.272
    3MOM   C100  100   1.091   2.539   2.263
    3MOM   C101  101   0.955   2.510   2.254
    3MOM   C102  102   0.903   2.447   2.140
    3MOM   C103  103   0.981   2.363   1.780
    3MOM   C104  104   1.089   2.455   1.742
    3MOM   C105  105   1.069   2.594   1.732
    3MOM   C106  106   1.171   2.679   1.686
    3MOM   C107  107   1.153   2.828   1.671
    3MOM   C108  108   1.019   2.866   1.608
    3MOM   N109  109   1.165   2.888   1.802
    3MOM   C110  110   1.296   2.623   1.655
    3MOM   C111  111   1.318   2.486   1.666
    3MOM   C112  112   1.214   2.403   1.708
    3MOM   C113  113   0.923   2.292   1.675
    3MOM   H114  114   0.574   2.103   1.637
    3MOM   H115  115   0.684   1.964   1.659
    3MOM   H116  116   0.631   2.011   1.497
    3MOM   H117  117   0.694   2.109   1.846
    3MOM   H118  118   0.794   2.226   2.032
    3MOM   H119  119   1.192   2.401   1.970
    3MOM   H120  120   1.130   2.590   2.350
    3MOM   H121  121   0.888   2.538   2.336
    3MOM   H122  122   0.797   2.429   2.135
    3MOM   H123  123   0.972   2.634   1.760
    3MOM   H124  124   1.231   2.868   1.604
    3MOM   H125  125   1.016   2.974   1.590
    3MOM   H126  126   1.006   2.816   1.512
    3MOM   H127  127   0.936   2.839   1.673
    3MOM   H128  128   1.082   2.894   1.860
    3MOM   H129  129   1.377   2.688   1.622
    3MOM   H130  130   1.415   2.444   1.641
    3MOM   H131  131   1.232   2.296   1.716
    3MOM   H132  132   0.959   2.308   1.574
    4MOM   C133  133   0.810   2.712   2.710
    4MOM   O134  134   0.780   2.748   2.574
    4MOM   C135  135   0.882   2.796   2.496
    4MOM   C136  136   1.015   2.812   2.536
    4MOM   C137  137   1.110   2.860   2.447
    4MOM   C138  138   1.077   2.896   2.314
    4MOM   C139  139   1.186   2.943   2.226
    4MOM   C140  140   1.189   2.908   2.089
    4MOM   C141  141   1.289   2.955   2.003
    4MOM   C142  142   1.286   2.921   1.860
    4MOM   O143  143   1.390   2.915   1.795
    4MOM   C144  144   1.394   3.033   2.056
    4MOM   C145  145   1.395   3.065   2.192
    4MOM   C146  146   1.291   3.021   2.276
    4MOM   C147  147   0.941   2.881   2.274
    4MOM   C148  148   0.889   2.913   2.140
    4MOM   C149  149   0.881   3.045   2.094
    4MOM   C150  150   0.824   3.075   1.968
    4MOM   C151  151   0.808   3.216   1.918
    4MOM   C152  152   0.737   3.305   2.020
    4MOM   N153  153   0.939   3.270   1.890
    4MOM   C154  154   0.781   2.968   1.887
    4MOM   C155  155   0.791   2.836   1.931
    4MOM   C156  156   0.843   2.809   2.057
    4MOM   C157  157   0.848   2.831   2.366
    4MOM   H158  158   0.846   2.797   2.766
    4MOM   H159  159   0.883   2.631   2.714
    4MOM   H160  160   0.717   2.675   2.759
    4MOM   H161  161   1.047   2.785   2.636
    4MOM   H162  162   1.213   2.866   2.480
    4MOM   H163  163   1.114   2.841   2.050
    4MOM   H164  164   1.473   3.069   1.991
    4MOM   H165  165   1.476   3.124   2.233
    4MOM   H166  166   1.294   3.051   2.380
    4MOM   H167  167   0.918   3.125   2.158
    4MOM   H168  168   0.747   3.216   1.827
    4MOM   H169  169   0.719   3.404   1.977
    4MOM   H170  170   0.640   3.260   2.047
    4MOM   H171  171   0.796   3.317   2.110
    4MOM   H172  172   0.990   3.316   1.965
    4MOM   H173  173   0.740   2.988   1.788
    4MOM   H174  174   0.756   2.756   1.868
    4MOM   H175  175   0.848   2.707   2.093
    4MOM   H176  176   0.744   2.820   2.335
    5MOM   C177  177   1.833   3.348   2.300
    5MOM   O178  178   1.693   3.376   2.313
    5MOM   C179  179   1.617   3.378   2.198
    5MOM   C180  180   1.662   3.349   2.069
    5MOM   C181  181   1.575   3.352   1.961
    5MOM   C182  182   1.439   3.385   1.977
    5MOM   C183  183   1.352   3.380   1.857
    5MOM   C184  184   1.223   3.324   1.865
    5MOM   C185  185   1.137   3.321   1.753
    5MOM   C186  186   1.001   3.268   1.766
    5MOM   O187  187   0.942   3.222   1.669
    5MOM   C188  188   1.185   3.368   1.630
    5MOM   C189  189   1.314   3.421   1.620
    5MOM   C190  190   1.396   3.427   1.732
    5MOM   C191  191   1.392   3.415   2.108
    5MOM   C192  192   1.253   3.454   2.139
    5MOM   C193  193   1.197   3.571   2.088
    5MOM   C194  194   1.067   3.609   2.123
    5MOM   C195  195   1.006   3.739   2.074
    5MOM   C196  196   1.095   3.859   2.110
    5MOM   N197  197   0.989   3.732   1.931
    5MOM   C198  198   0.990   3.525   2.205
    5MOM   C199  199   1.045   3.407   2.255
    5MOM   C200  200   1.176   3.372   2.224
    5MOM   C201  201   1.482   3.411   2.214
    5MOM   H202  202   1.881   3.421   2.235
    5MOM   H203  203   1.849   3.248   2.259
    5MOM   H204  204   1.880   3.353   2.399
    5MOM   H205  205   1.766   3.322   2.050
    5MOM   H206  206   1.612   3.326   1.863
    5MOM   H207  207   1.190   3.280   1.958
    5MOM   H208  208   1.120   3.365   1.542
    5MOM   H209  209   1.350   3.457   1.523
    5MOM   H210  210   1.495   3.470   1.723
    5MOM   H211  211   1.257   3.633   2.022
    5MOM   H212  212   0.909   3.755   2.123
    5MOM   H213  213   1.046   3.952   2.079
    5MOM   H214  214   1.111   3.862   2.217
    5MOM   H215  215   1.192   3.852   2.060
    5MOM   H216  216   1.065   3.764   1.871
    5MOM   H217  217   0.888   3.552   2.231
    5MOM   H218  218   0.985   3.342   2.320
    5MOM   H219  219   1.218   3.281   2.264
    5MOM   H220  220   1.447   3.434   2.314
    6MOM   C221  221   1.487   3.548   1.096
    6MOM   O222  222   1.476   3.633   1.211
    6MOM   C223  223   1.357   3.638   1.277
    6MOM   C224  224   1.240   3.571   1.239
    6MOM   C225  225   1.123   3.584   1.315
    6MOM   C226  226   1.118   3.664   1.430
    6MOM   C227  227   0.990   3.669   1.506
    6MOM   C228  228   0.990   3.670   1.646
    6MOM   C229  229   0.871   3.678   1.720
    6MOM   C230  230   0.875   3.687   1.867
    6MOM   O231  231   0.775   3.658   1.935
    6MOM   C232  232   0.749   3.676   1.651
    6MOM   C233  233   0.747   3.671   1.512
    6MOM   C234  234   0.867   3.669   1.441
    6MOM   C235  235   1.236   3.734   1.468
    6MOM   C236  236   1.247   3.823   1.585
    6MOM   C237  237   1.166   3.936   1.599
    6MOM   C238  238   1.179   4.021   1.711
    6MOM   C239  239   1.097   4.147   1.724
    6MOM   C240  240   1.130   4.245   1.611
    6MOM   N241  241   0.955   4.114   1.719
    6MOM   C242  242   1.271   3.988   1.811
    6MOM   C243  243   1.351   3.874   1.799
    6MOM   C244  244   1.340   3.793   1.687
    6MOM   C245  245   1.352   3.719   1.391
    6MOM   H246  246   1.418   3.580   1.017
    6MOM   H247  247   1.465   3.444   1.122
    6MOM   H248  248   1.589   3.552   1.057
    6MOM   H249  249   1.237   3.507   1.152
    6MOM   H250  250   1.035   3.527   1.285
    6MOM   H251  251   1.084   3.663   1.700
    6MOM   H252  252   0.655   3.681   1.707
    6MOM   H253  253   0.652   3.670   1.459
    6MOM   H254  254   0.862   3.668   1.332
    6MOM   H255  255   1.094   3.960   1.522
    6MOM   H256  256   1.120   4.198   1.819
    6MOM   H257  257   1.072   4.337   1.623
    6MOM   H258  258   1.236   4.271   1.615
    6MOM   H259  259   1.108   4.201   1.514
    6MOM   H260  260   0.910   4.109   1.628
    6MOM   H261  261   1.281   4.051   1.899
    6MOM   H262  262   1.422   3.849   1.878
    6MOM   H263  263   1.403   3.706   1.678
    6MOM   H264  264   1.442   3.772   1.419
    7MOM   C265  265   0.270   3.631   1.198
    7MOM   O266  266   0.374   3.729   1.194
    7MOM   C267  267   0.410   3.791   1.312
    7MOM   C268  268   0.353   3.766   1.438
    7MOM   C269  269   0.399   3.833   1.550
    7MOM   C270  270   0.502   3.929   1.543
    7MOM   C271  271   0.547   3.992   1.670
    7MOM   C272  272   0.684   4.014   1.694
    7MOM   C273  273   0.729   4.076   1.812
    7MOM   C274  274   0.872   4.107   1.829
    7MOM   O275  275   0.917   4.131   1.941
    7MOM   C276  276   0.636   4.109   1.910
    7MOM   C277  277   0.499   4.084   1.890
    7MOM   C278  278   0.456   4.027   1.771
    7MOM   C279  279   0.558   3.957   1.416
    7MOM   C280  280   0.667   4.055   1.392
    7MOM   C281  281   0.654   4.189   1.431
    7MOM   C282  282   0.758   4.281   1.409
    7MOM   C283  283   0.744   4.427   1.447
    7MOM   C284  284   0.637   4.495   1.363
    7MOM   N285  285   0.710   4.441   1.587
    7MOM   C286  286   0.876   4.237   1.347
    7MOM   C287  287   0.890   4.103   1.308
    7MOM   C288  288   0.785   4.013   1.329
    7MOM   C289  289   0.511   3.886   1.304
    7MOM   H290  290   0.176   3.674   1.234
    7MOM   H291  291   0.298   3.547   1.263
    7MOM   H292  292   0.253   3.592   1.098
    7MOM   H293  293   0.275   3.692   1.450
    7MOM   H294  294   0.355   3.808   1.647
    7MOM   H295  295   0.756   3.981   1.621
    7MOM   H296  296   0.668   4.155   2.003
    7MOM   H297  297   0.428   4.109   1.968
    7MOM   H298  298   0.349   4.011   1.756
    7MOM   H299  299   0.563   4.222   1.480
    7MOM   H300  300   0.840   4.478   1.426
    7MOM   H301  301   0.625   4.600   1.392
    7MOM   H302  302   0.664   4.491   1.257
    7MOM   H303  303   0.540   4.445   1.374
    7MOM   H304  304   0.613   4.423   1.615
    7MOM   H305  305   0.957   4.306   1.330
    7MOM   H306  306   0.981   4.070   1.260
    7MOM   H307  307   0.797   3.910   1.298
    7MOM   H308  308   0.554   3.908   1.205
    8MOM   C309  309   0.087   4.143   2.283
    8MOM   O310  310   0.099   4.195   2.150
    8MOM   C311  311   0.214   4.264   2.117
    8MOM   C312  312   0.323   4.285   2.203
    8MOM   C313  313   0.435   4.357   2.159
    8MOM   C314  314   0.442   4.408   2.029
    8MOM   C315  315   0.565   4.478   1.988
    8MOM   C316  316   0.626   4.450   1.865
    8MOM   C317  317   0.737   4.522   1.819
    8MOM   C318  318   0.791   4.497   1.684
    8MOM   O319  319   0.904   4.533   1.654
    8MOM   C320  320   0.793   4.619   1.903
    8MOM   C321  321   0.737   4.646   2.027
    8MOM   C322  322   0.623   4.576   2.070
    8MOM   C323  323   0.331   4.388   1.942
    8MOM   C324  324   0.325   4.441   1.804
    8MOM   C325  325   0.354   4.576   1.779
    8MOM   C326  326   0.357   4.627   1.648
    8MOM   C327  327   0.392   4.772   1.621
    8MOM   C328  328   0.279   4.864   1.667
    8MOM   N329  329   0.513   4.808   1.694
    8MOM   C330  330   0.327   4.541   1.541
    8MOM   C331  331   0.296   4.407   1.565
    8MOM   C332  332   0.295   4.357   1.696
    8MOM   C333  333   0.220   4.316   1.988
    8MOM   H334  334   0.092   4.224   2.357
    8MOM   H335  335   0.166   4.070   2.304
    8MOM   H336  336  -0.009   4.093   2.294
    8MOM   H337  337   0.324   4.246   2.305
    8MOM   H338  338   0.518   4.370   2.227
    8MOM   H339  339   0.583   4.371   1.803
    8MOM   H340  340   0.878   4.677   1.868
    8MOM   H341  341   0.781   4.722   2.091
    8MOM   H342  342   0.580   4.600   2.166
    8MOM   H343  343   0.376   4.642   1.862
    8MOM   H344  344   0.406   4.787   1.513
    8MOM   H345  345   0.304   4.968   1.644
    8MOM   H346  346   0.186   4.838   1.616
    8MOM   H347  347   0.263   4.854   1.775
    8MOM   H348  348   0.522   4.783   1.792
    8MOM   H349  349   0.327   4.578   1.439
    8MOM   H350  350   0.272   4.341   1.482
    8MOM   H351  351   0.273   4.252   1.714
    8MOM   H352  352   0.134   4.301   1.923
    9CAP   C353  353   1.185   1.665   1.975
    9CAP   O354  354   1.321   1.674   2.021
    9CAP   H355  355   1.159   1.751   1.913
    9CAP   H356  356   1.118   1.663   2.061
    9CAP   H357  357   1.170   1.573   1.917
   10CAP   C358  358   0.733   4.901   1.289
   10CAP   C359  359   0.762   4.906   1.440
   10CAP   C360  360   0.885   4.818   1.467
   10CAP   C361  361   0.791   5.052   1.478
   10CAP   O362  362   0.641   4.857   1.501
   10CAP   C363  363   0.632   4.847   1.636
   10CAP   O364  364   0.718   4.873   1.719
   10CAP   H365  365   0.820   4.938   1.232
   10CAP   H366  366   0.712   4.799   1.258
   10CAP   H367  367   0.647   4.964   1.265
   10CAP   H368  368   0.861   4.713   1.444
   10CAP   H369  369   0.915   4.823   1.572
   10CAP   H370  370   0.969   4.848   1.405
   10CAP   H371  371   0.701   5.113   1.465
   10CAP   H372  372   0.823   5.060   1.582
   10CAP   H373  373   0.871   5.093   1.415
    1TCM     c1  374   4.302   0.321   2.758
    1TCM    cl1  375   4.362   0.169   2.689
    1TCM    cl2  376   4.432   0.400   2.850
    1TCM     h1  377   4.269   0.389   2.675
    1TCM    cl3  378   4.164   0.288   2.865
    1TCM     c1  379   1.650   2.911   3.676
    1TCM    cl1  380   1.734   2.940   3.522
    1TCM    cl2  381   1.753   2.963   3.811
    1TCM     h1  382   1.555   2.968   3.677
    1TCM    cl3  383   1.614   2.737   3.692
    1TCM     c1  384   3.647   4.808   4.543
    1TCM    cl1  385   3.526   4.888   4.440
    1TCM    cl2  386   3.636   4.632   4.521
    1TCM     h1  387   3.748   4.843   4.515
    1TCM    cl3  388   3.615   4.848   4.713
    1TCM     c1  389   3.006   0.496   3.730
    1TCM    cl1  390   2.938   0.557   3.577
    1TCM    cl2  391   3.169   0.562   3.752
    1TCM     h1  392   2.941   0.528   3.814
    1TCM    cl3  393   3.013   0.318   3.725
    1TCM     c1  394   1.515   2.825   1.397
    1TCM    cl1  395   1.554   2.960   1.508
    1TCM    cl2  396   1.353   2.762   1.435
    1TCM     h1  397   1.517   2.862   1.293
    1TCM    cl3  398   1.635   2.696   1.417
    1TCM     c1  399   5.114   2.390   0.076
    1TCM    cl1  400   5.193   2.456   0.220
    1TCM    cl2  401   5.003   2.511   0.008
    1TCM     h1  402   5.191   2.364   0.000
    1TCM    cl3  403   5.023   2.243   0.120
    1TCM     c1  404   5.238   1.227   0.467
    1TCM    cl1  405   5.340   1.228   0.613
    1TCM    cl2  406   5.340   1.199   0.324
    1TCM     h1  407   5.163   1.145   0.475
    1TCM    cl3  408   5.155   1.383   0.452
    1TCM     c1  409   3.398   3.837   4.333
    1TCM    cl1  410   3.246   3.922   4.373
    1TCM    cl2  411   3.385   3.769   4.169
    1TCM     h1  412   3.482   3.909   4.337
    1TCM    cl3  413   3.425   3.706   4.450
    1TCM     c1  414   0.658   4.661   3.761
    1TCM    cl1  415   0.783   4.787   3.762
    1TCM    cl2  416   0.725   4.511   3.695
    1TCM     h1  417   0.622   4.644   3.865
    1TCM    cl3  418   0.521   4.714   3.660
    1TCM     c1  419   2.130   5.146   3.620
    1TCM    cl1  420   2.056   5.057   3.755
    1TCM    cl2  421   2.145   5.318   3.663
    1TCM     h1  422   2.231   5.105   3.599
    1TCM    cl3  423   2.028   5.130   3.475
    1TCM     c1  424   4.388   3.578   3.976
    1TCM    cl1  425   4.460   3.532   3.820
    1TCM    cl2  426   4.259   3.463   4.018
    1TCM     h1  427   4.466   3.576   4.054
    1TCM    cl3  428   4.320   3.741   3.963
    1TCM     c1  429   0.167   1.993   1.126
    1TCM    cl1  430   0.305   1.918   1.042
    1TCM    cl2  431   0.179   1.959   1.300
    1TCM     h1  432   0.169   2.102   1.109
    1TCM    cl3  433   0.015   1.926   1.063
    1TCM     c1  434   2.740   2.692   2.631
    1TCM    cl1  435   2.826   2.546   2.578
    1TCM    cl2  436   2.600   2.721   2.525
    1TCM     h1  437   2.705   2.678   2.736
    1TCM    cl3  438   2.850   2.832   2.624
    1TCM     c1  439   4.464   4.926   0.578
    1TCM    cl1  440   4.304   4.973   0.517
    1TCM    cl2  441   4.478   4.974   0.749
    1TCM     h1  442   4.475   4.816   0.570
    1TCM    cl3  443   4.590   5.006   0.483
    1TCM     c1  444   2.182   5.203   4.002
    1TCM    cl1  445   2.060   5.135   4.111
    1TCM    cl2  446   2.111   5.229   3.842
    1TCM     h1  447   2.219   5.300   4.043
    1TCM    cl3  448   2.319   5.090   3.988
    1TCM     c1  449   2.705   2.136   3.522
    1TCM    cl1  450   2.822   2.051   3.419
    1TCM    cl2  451   2.548   2.145   3.438
    1TCM     h1  452   2.692   2.081   3.617
    1TCM    cl3  453   2.763   2.300   3.555
    1TCM     c1  454   0.593   2.941   4.550
    1TCM    cl1  455   0.757   2.925   4.615
    1TCM    cl2  456   0.580   2.845   4.400
    1TCM     h1  457   0.520   2.904   4.624
    1TCM    cl3  458   0.559   3.112   4.514
    1TCM     c1  459   4.957   3.458   2.164
    1TCM    cl1  460   4.896   3.402   2.006
    1TCM    cl2  461   4.912   3.629   2.187
    1TCM     h1  462   4.912   3.397   2.245
    1TCM    cl3  463   5.134   3.443   2.168
    1TCM     c1  464   5.288   3.773   4.916
    1TCM    cl1  465   5.327   3.856   5.069
    1TCM    cl2  466   5.340   3.874   4.779
    1TCM     h1  467   5.340   3.675   4.913
    1TCM    cl3  468   5.112   3.747   4.907
    1TCM     c1  469   2.810   5.273   3.471
    1TCM    cl1  470   2.906   5.340   3.605
    1TCM    cl2  471   2.887   5.317   3.316
    1TCM     h1  472   2.806   5.163   3.480
    1TCM    cl3  473   2.646   5.340   3.476
    1TCM     c1  474   3.231   1.336   3.063
    1TCM    cl1  475   3.218   1.169   3.124
    1TCM    cl2  476   3.145   1.349   2.908
    1TCM     h1  477   3.187   1.406   3.136
    1TCM    cl3  478   3.403   1.376   3.039
    1TCM     c1  479   3.135   4.700   4.807
    1TCM    cl1  480   3.204   4.538   4.826
    1TCM    cl2  481   3.114   4.775   4.968
    1TCM     h1  482   3.203   4.763   4.746
    1TCM    cl3  483   2.977   4.688   4.727
    1TCM     c1  484   2.662   2.486   2.218
    1TCM    cl1  485   2.774   2.524   2.085
    1TCM    cl2  486   2.725   2.552   2.370
    1TCM     h1  487   2.563   2.530   2.196
    1TCM    cl3  488   2.646   2.309   2.232
    1TCM     c1  489   2.737   2.026   5.072
    1TCM    cl1  490   2.633   2.165   5.109
    1TCM    cl2  491   2.880   2.029   5.179
    1TCM     h1  492   2.681   1.932   5.088
    1TCM    cl3  493   2.791   2.035   4.902
    1TCM     c1  494   5.016   0.261   1.330
    1TCM    cl1  495   5.122   0.152   1.423
    1TCM    cl2  496   5.028   0.220   1.157
    1TCM     h1  497   4.912   0.248   1.363
    1TCM    cl3  498   5.068   0.429   1.355
    1TCM     c1  499   3.152   0.919   1.311
    1TCM    cl1  500   3.327   0.893   1.293
    1TCM    cl2  501   3.067   0.846   1.174
    1TCM     h1  502   3.118   0.872   1.406
    1TCM    cl3  503   3.119   1.094   1.316
    1TCM     c1  504   4.939   1.199   0.719
    1TCM    cl1  505   4.774   1.144   0.680
    1TCM    cl2  506   5.031   1.065   0.790
    1TCM     h1  507   4.989   1.234   0.627
    1TCM    cl3  508   4.930   1.333   0.836
    1TCM     c1  509   2.397   2.736   2.989
    1TCM    cl1  510   2.474   2.862   2.889
    1TCM    cl2  511   2.310   2.813   3.124
    1TCM     h1  512   2.326   2.678   2.927
    1TCM    cl3  513   2.522   2.628   3.053
    1TCM     c1  514   2.833   3.628   3.468
    1TCM    cl1  515   2.857   3.456   3.430
    1TCM    cl2  516   2.855   3.654   3.643
    1TCM     h1  517   2.908   3.689   3.412
    1TCM    cl3  518   2.669   3.678   3.421
    1TCM     c1  519   0.356   0.881   2.453
    1TCM    cl1  520   0.301   1.013   2.558
    1TCM    cl2  521   0.412   0.948   2.298
    1TCM     h1  522   0.440   0.827   2.502
    1TCM    cl3  523   0.222   0.768   2.424
    1TCM     c1  524   4.978   2.006   2.137
    1TCM    cl1  525   5.135   1.928   2.106
    1TCM    cl2  526   4.889   2.023   1.984
    1TCM     h1  527   4.919   1.944   2.207
    1TCM    cl3  528   5.005   2.167   2.208
    1TCM     c1  529   1.386   3.822   2.385
    1TCM    cl1  530   1.325   3.708   2.263
    1TCM    cl2  531   1.444   3.732   2.527
    1TCM     h1  532   1.470   3.881   2.342
    1TCM    cl3  533   1.256   3.932   2.434
    1TCM     c1  534   3.910   1.416   2.039
    1TCM    cl1  535   3.831   1.574   2.050
    1TCM    cl2  536   4.067   1.434   1.956
    1TCM     h1  537   3.927   1.375   2.140
    1TCM    cl3  538   3.807   1.304   1.946
    1TCM     c1  539   0.612   2.265   2.127
    1TCM    cl1  540   0.759   2.254   2.227
    1TCM    cl2  541   0.556   2.101   2.087
    1TCM     h1  542   0.533   2.318   2.183
    1TCM    cl3  543   0.649   2.352   1.977
    1TCM     c1  544   2.232   3.809   1.728
    1TCM    cl1  545   2.352   3.762   1.850
    1TCM    cl2  546   2.279   3.742   1.570
    1TCM     h1  547   2.132   3.770   1.757
    1TCM    cl3  548   2.225   3.987   1.717
    1TCM     c1  549   1.023   4.533   1.099
    1TCM    cl1  550   0.982   4.541   1.272
    1TCM    cl2  551   1.057   4.697   1.039
    1TCM     h1  552   1.112   4.469   1.085
    1TCM    cl3  553   0.886   4.464   1.009
    1TCM     c1  554   5.093   2.776   4.826
    1TCM    cl1  555   5.218   2.791   4.701
    1TCM    cl2  556   5.095   2.611   4.892
    1TCM     h1  557   5.114   2.849   4.908
    1TCM    cl3  558   4.934   2.811   4.756
    1TCM     c1  559   1.334   3.885   4.779
    1TCM    cl1  560   1.431   3.988   4.886
    1TCM    cl2  561   1.403   3.888   4.615
    1TCM     h1  562   1.335   3.780   4.818
    1TCM    cl3  563   1.167   3.944   4.774
    1TCM     c1  564   0.259   4.546   3.417
    1TCM    cl1  565   0.425   4.597   3.455
    1TCM    cl2  566   0.264   4.412   3.299
    1TCM     h1  567   0.208   4.511   3.509
    1TCM    cl3  568   0.169   4.682   3.347
    1TCM     c1  569   1.069   4.367   2.348
    1TCM    cl1  570   1.051   4.406   2.521
    1TCM    cl2  571   1.207   4.457   2.282
    1TCM     h1  572   1.086   4.259   2.336
    1TCM    cl3  573   0.921   4.415   2.262
    1TCM     c1  574   3.690   4.109   0.143
    1TCM    cl1  575   3.807   3.996   0.216
    1TCM    cl2  576   3.776   4.251   0.080
    1TCM     h1  577   3.637   4.059   0.060
    1TCM    cl3  578   3.573   4.161   0.267
    1TCM     c1  579   1.362   2.747   2.328
    1TCM    cl1  580   1.267   2.727   2.179
    1TCM    cl2  581   1.526   2.682   2.302
    1TCM     h1  582   1.368   2.854   2.354
    1TCM    cl3  583   1.283   2.658   2.460
    1TCM     c1  584   2.561   3.038   3.666
    1TCM    cl1  585   2.593   2.939   3.523
    1TCM    cl2  586   2.617   2.953   3.812
    1TCM     h1  587   2.615   3.135   3.657
    1TCM    cl3  588   2.386   3.069   3.679
    1TCM     c1  589   0.161   0.608   1.987
    1TCM    cl1  590   0.267   0.521   1.874
    1TCM    cl2  591   0.077   0.738   1.901
    1TCM     h1  592   0.087   0.537   2.030
    1TCM    cl3  593   0.259   0.677   2.118
    1TCM     c1  594   3.869   2.582   1.113
    1TCM    cl1  595   3.786   2.628   1.264
    1TCM    cl2  596   3.904   2.408   1.116
    1TCM     h1  597   3.803   2.605   1.027
    1TCM    cl3  598   4.021   2.674   1.099
    1TCM     c1  599   4.963   1.803   3.410
    1TCM    cl1  600   5.099   1.728   3.323
    1TCM    cl2  601   4.986   1.782   3.585
    1TCM     h1  602   4.958   1.911   3.386
    1TCM    cl3  603   4.811   1.724   3.361
    1TCM     c1  604   2.027   3.614   2.440
    1TCM    cl1  605   2.172   3.704   2.491
    1TCM    cl2  606   2.074   3.481   2.332
    1TCM     h1  607   1.976   3.573   2.530
    1TCM    cl3  608   1.916   3.724   2.354
    1TCM     c1  609   3.870   3.932   4.640
    1TCM    cl1  610   3.875   4.094   4.567
    1TCM    cl2  611   3.804   3.816   4.522
    1TCM     h1  612   3.973   3.901   4.668
    1TCM    cl3  613   3.767   3.934   4.785
    1TCM     c1  614   4.612   0.792   4.512
    1TCM    cl1  615   4.517   0.643   4.491
    1TCM    cl2  616   4.784   0.758   4.477
    1TCM     h1  617   4.575   0.870   4.443
    1TCM    cl3  618   4.596   0.849   4.680
    1TCM     c1  619   3.889   4.696   1.534
    1TCM    cl1  620   3.732   4.613   1.541
    1TCM    cl2  621   3.959   4.703   1.697
    1TCM     h1  622   3.957   4.641   1.466
    1TCM    cl3  623   3.865   4.861   1.472
    1TCM     c1  624   4.491   4.564   4.899
    1TCM    cl1  625   4.398   4.714   4.875
    1TCM    cl2  626   4.532   4.547   5.071
    1TCM     h1  627   4.429   4.477   4.867
    1TCM    cl3  628   4.640   4.570   4.802
    1TCM     c1  629   4.063   4.365   1.752
    1TCM    cl1  630   4.074   4.360   1.929
    1TCM    cl2  631   3.893   4.389   1.704
    1TCM     h1  632   4.124   4.449   1.713
    1TCM    cl3  633   4.122   4.211   1.684
    1TCM     c1  634   3.868   4.113   3.394
    1TCM    cl1  635   3.983   4.233   3.331
    1TCM    cl2  636   3.737   4.196   3.482
    1TCM     h1  637   3.824   4.055   3.310
    1TCM    cl3  638   3.952   4.002   3.504
    1TCM     c1  639   0.456   1.020   3.430
    1TCM    cl1  640   0.347   0.898   3.361
    1TCM    cl2  641   0.478   0.988   3.604
    1TCM     h1  642   0.554   1.016   3.379
    1TCM    cl3  643   0.385   1.182   3.408
    1TCM     c1  644   3.043   2.661   2.868
    1TCM    cl1  645   3.208   2.595   2.852
    1TCM    cl2  646   2.940   2.594   2.740
    1TCM     h1  647   3.002   2.634   2.968
    1TCM    cl3  648   3.049   2.838   2.853
    1TCM     c1  649   3.607   2.415   2.417
    1TCM    cl1  650   3.701   2.313   2.528
    1TCM    cl2  651   3.539   2.553   2.507
    1TCM     h1  652   3.672   2.452   2.336
    1TCM    cl3  653   3.474   2.319   2.347
    1TCM     c1  654   5.100   0.663   2.308
    1TCM    cl1  655   4.993   0.797   2.353
    1TCM    cl2  656   5.245   0.728   2.227
    1TCM     h1  657   5.131   0.607   2.399
    1TCM    cl3  658   5.015   0.554   2.197
    1TCM     c1  659   0.227   0.138   2.822
    1TCM    cl1  660   0.306   0.288   2.769
    1TCM    cl2  661   0.251   0.117   2.997
    1TCM     h1  662   0.118   0.144   2.799
    1TCM    cl3  663   0.298   0.000   2.735
    1TCM     c1  664   5.259   3.700   1.294
    1TCM    cl1  665   5.088   3.651   1.281
    1TCM    cl2  666   5.274   3.828   1.417
    1TCM     h1  667   5.320   3.613   1.323
    1TCM    cl3  668   5.314   3.763   1.137
    1TCM     c1  669   1.768   3.352   0.699
    1TCM    cl1  670   1.832   3.245   0.572
    1TCM    cl2  671   1.597   3.311   0.731
    1TCM     h1  672   1.827   3.338   0.792
    1TCM    cl3  673   1.779   3.521   0.646
    1TCM     c1  674   2.698   4.470   4.207
    1TCM    cl1  675   2.641   4.596   4.095
    1TCM    cl2  676   2.617   4.490   4.364
    1TCM     h1  677   2.674   4.370   4.165
    1TCM    cl3  678   2.874   4.485   4.229
    1TCM     c1  679   4.705   1.737   0.323
    1TCM    cl1  680   4.542   1.755   0.393
    1TCM    cl2  681   4.696   1.754   0.147
    1TCM     h1  682   4.772   1.816   0.365
    1TCM    cl3  683   4.770   1.577   0.364
    1TCM     c1  684   2.903   4.734   4.418
    1TCM    cl1  685   2.790   4.776   4.288
    1TCM    cl2  686   2.812   4.678   4.560
    1TCM     h1  687   2.971   4.653   4.384
    1TCM    cl3  688   2.999   4.877   4.463
    1TCM     c1  689   3.764   4.224   2.032
    1TCM    cl1  690   3.692   4.266   1.875
    1TCM    cl2  691   3.810   4.373   2.118
    1TCM     h1  692   3.690   4.168   2.092
    1TCM    cl3  693   3.908   4.124   2.006
    1TCM     c1  694   1.075   0.319   3.322
    1TCM    cl1  695   1.034   0.422   3.182
    1TCM    cl2  696   0.967   0.177   3.324
    1TCM     h1  697   1.180   0.286   3.314
    1TCM    cl3  698   1.053   0.412   3.472
    1TCM     c1  699   2.797   0.390   3.879
    1TCM    cl1  700   2.940   0.338   3.972
    1TCM    cl2  701   2.764   0.561   3.912
    1TCM     h1  702   2.817   0.377   3.770
    1TCM    cl3  703   2.657   0.292   3.926
    1TCM     c1  704   5.148   3.494   5.117
    1TCM    cl1  705   5.192   3.422   5.274
    1TCM    cl2  706   5.245   3.640   5.090
    1TCM     h1  707   5.169   3.420   5.036
    1TCM    cl3  708   4.976   3.536   5.117
    1TCM     c1  709   2.883   1.100   4.057
    1TCM    cl1  710   3.003   1.157   3.938
    1TCM    cl2  711   2.891   1.202   4.202
    1TCM     h1  712   2.781   1.106   4.013
    1TCM    cl3  713   2.918   0.931   4.100
    1TCM     c1  714   4.627   5.133   1.250
    1TCM    cl1  715   4.790   5.198   1.220
    1TCM    cl2  716   4.557   5.212   1.393
    1TCM     h1  717   4.563   5.153   1.162
    1TCM    cl3  718   4.638   4.958   1.278
    1TCM     c1  719   0.339   4.499   0.092
    1TCM    cl1  720   0.512   4.457   0.095
    1TCM    cl2  721   0.277   4.506   0.258
    1TCM     h1  722   0.326   4.598   0.043
    1TCM    cl3  723   0.250   4.376  -0.000
    1TCM     c1  724   2.427   3.427   2.252
    1TCM    cl1  725   2.556   3.495   2.151
    1TCM    cl2  726   2.444   3.487   2.419
    1TCM     h1  727   2.328   3.457   2.212
    1TCM    cl3  728   2.440   3.249   2.252
    1TCM     c1  729   0.344   2.943   0.905
    1TCM    cl1  730   0.358   2.878   0.740
    1TCM    cl2  731   0.326   3.120   0.897
    1TCM     h1  732   0.255   2.899   0.954
    1TCM    cl3  733   0.490   2.902   0.997
    1TCM     c1  734   3.383   3.651   1.029
    1TCM    cl1  735   3.359   3.602   0.860
    1TCM    cl2  736   3.521   3.562   1.097
    1TCM     h1  737   3.404   3.760   1.033
    1TCM    cl3  738   3.237   3.615   1.123
    1TCM     c1  739   3.215   3.015   4.956
    1TCM    cl1  740   3.239   3.066   4.787
    1TCM    cl2  741   3.329   3.103   5.061
    1TCM     h1  742   3.111   3.038   4.987
    1TCM    cl3  743   3.244   2.841   4.970
    1TCM     c1  744   0.880   1.142   1.830
    1TCM    cl1  745   1.040   1.082   1.780
    1TCM    cl2  746   0.803   1.023   1.938
    1TCM     h1  747   0.892   1.239   1.884
    1TCM    cl3  748   0.778   1.167   1.686
    1TCM     c1  749   2.187   2.681   4.884
    1TCM    cl1  750   2.155   2.618   5.047
    1TCM    cl2  751   2.058   2.795   4.838
    1TCM     h1  752   2.285   2.734   4.884
    1TCM    cl3  753   2.192   2.547   4.768
    1TCM     c1  754   2.208   4.153   4.144
    1TCM    cl1  755   2.132   4.132   3.984
    1TCM    cl2  756   2.262   4.321   4.162
    1TCM     h1  757   2.134   4.129   4.223
    1TCM    cl3  758   2.347   4.044   4.158
    1TCM     c1  759   0.830   0.371   0.131
    1TCM    cl1  760   0.722   0.352   0.271
    1TCM    cl2  761   0.743   0.455   0.000
    1TCM     h1  762   0.918   0.431   0.161
    1TCM    cl3  763   0.882   0.211   0.074
    1TCM     c1  764   1.090   0.644   3.034
    1TCM    cl1  765   1.041   0.613   2.866
    1TCM    cl2  766   0.945   0.670   3.135
    1TCM     h1  767   1.147   0.557   3.073
    1TCM    cl3  768   1.193   0.789   3.040
    1TCM     c1  769   4.527   3.223   3.222
    1TCM    cl1  770   4.619   3.116   3.330
    1TCM    cl2  771   4.514   3.384   3.296
    1TCM     h1  772   4.580   3.231   3.125
    1TCM    cl3  773   4.364   3.157   3.196
    1TCM     c1  774   3.279   4.959   5.215
    1TCM    cl1  775   3.114   4.919   5.268
    1TCM    cl2  776   3.271   5.060   5.069
    1TCM     h1  777   3.331   5.015   5.296
    1TCM    cl3  778   3.368   4.810   5.179
    1TCM     c1  779   1.810   0.050   3.578
    1TCM    cl1  780   1.972   0.000   3.630
    1TCM    cl2  781   1.785   0.002   3.409
    1TCM     h1  782   1.734   0.000   3.642
    1TCM    cl3  783   1.794   0.226   3.593
    1TCM     c1  784   0.936   0.595   4.130
    1TCM    cl1  785   0.813   0.713   4.181
    1TCM    cl2  786   0.973   0.619   3.958
    1TCM     h1  787   1.028   0.610   4.190
    1TCM    cl3  788   0.875   0.430   4.155
    1TCM     c1  789   2.016   5.079   2.449
    1TCM    cl1  790   2.097   5.042   2.296
    1TCM    cl2  791   2.130   5.056   2.584
    1TCM     h1  792   1.981   5.184   2.448
    1TCM    cl3  793   1.877   4.970   2.470
    1TCM     c1  794   4.345   3.641   2.037
    1TCM    cl1  795   4.286   3.506   1.937
    1TCM    cl2  796   4.208   3.741   2.089
    1TCM     h1  797   4.398   3.601   2.126
    1TCM    cl3  798   4.458   3.740   1.941
    1TCM     c1  799   1.646   1.635   0.109
    1TCM    cl1  800   1.671   1.636   0.285
    1TCM    cl2  801   1.472   1.640   0.074
    1TCM     h1  802   1.695   1.724   0.065
    1TCM    cl3  803   1.717   1.488   0.040
    1TCM     c1  804   5.108   0.904   0.492
    1TCM    cl1  805   4.955   0.993   0.477
    1TCM    cl2  806   5.075   0.740   0.552
    1TCM     h1  807   5.157   0.898   0.392
    1TCM    cl3  808   5.215   0.988   0.606
    1TCM     c1  809   2.917   4.808   1.382
    1TCM    cl1  810   2.838   4.668   1.308
    1TCM    cl2  811   2.918   4.790   1.559
    1TCM     h1  812   3.022   4.816   1.346
    1TCM    cl3  813   2.828   4.956   1.339
    1TCM     c1  814   4.237   2.555   3.385
    1TCM    cl1  815   4.060   2.560   3.363
    1TCM    cl2  816   4.313   2.679   3.283
    1TCM     h1  817   4.262   2.573   3.491
    1TCM    cl3  818   4.297   2.394   3.337
    1TCM     c1  819   4.338   0.536   4.038
    1TCM    cl1  820   4.207   0.586   4.147
    1TCM    cl2  821   4.299   0.584   3.872
    1TCM     h1  822   4.433   0.585   4.069
    1TCM    cl3  823   4.357   0.359   4.046
    1TCM     c1  824   4.148   1.016   3.518
    1TCM    cl1  825   4.160   0.838   3.511
    1TCM    cl2  826   4.074   1.076   3.368
    1TCM     h1  827   4.085   1.045   3.605
    1TCM    cl3  828   4.310   1.085   3.537
    1TCM     c1  829   2.070   0.085   3.274
    1TCM    cl1  830   2.096   0.008   3.116
    1TCM    cl2  831   2.001   0.248   3.250
    1TCM     h1  832   2.000   0.024   3.334
    1TCM    cl3  833   2.225   0.099   3.360
    1TCM     c1  834   0.479   4.464   3.668
    1TCM    cl1  835   0.430   4.310   3.593
    1TCM    cl2  836   0.560   4.432   3.823
    1TCM     h1  837   0.549   4.517   3.600
    1TCM    cl3  838   0.336   4.564   3.695
    1TCM     c1  839   0.288   1.966   4.851
    1TCM    cl1  840   0.421   2.082   4.871
    1TCM    cl2  841   0.321   1.820   4.946
    1TCM     h1  842   0.193   2.013   4.885
    1TCM    cl3  843   0.273   1.923   4.679
    1TCM     c1  844   1.088   5.164   5.234
    1TCM    cl1  845   0.938   5.218   5.312
    1TCM    cl2  846   1.149   5.293   5.128
    1TCM     h1  847   1.164   5.141   5.312
    1TCM    cl3  848   1.056   5.018   5.138
    1TCM     c1  849   5.270   4.134   1.590
    1TCM    cl1  850   5.340   4.295   1.617
    1TCM    cl2  851   5.307   4.029   1.729
    1TCM     h1  852   5.160   4.143   1.578
    1TCM    cl3  853   5.340   4.064   1.442
    1TCM     c1  854   4.874   1.645   2.289
    1TCM    cl1  855   4.889   1.786   2.397
    1TCM    cl2  856   4.813   1.698   2.130
    1TCM     h1  857   4.973   1.597   2.276
    1TCM    cl3  858   4.760   1.528   2.359
    1TCM     c1  859   4.084   4.298   1.099
    1TCM    cl1  860   4.015   4.255   0.941
    1TCM    cl2  861   4.223   4.192   1.133
    1TCM     h1  862   4.118   4.404   1.097
    1TCM    cl3  863   3.961   4.278   1.226
    1TCM     c1  864   4.439   4.179   0.379
    1TCM    cl1  865   4.318   4.103   0.273
    1TCM    cl2  866   4.404   4.353   0.394
    1TCM     h1  867   4.436   4.132   0.479
    1TCM    cl3  868   4.601   4.157   0.309
    1TCM     c1  869   2.443   4.609   1.020
    1TCM    cl1  870   2.323   4.520   0.924
    1TCM    cl2  871   2.576   4.499   1.065
    1TCM     h1  872   2.484   4.693   0.960
    1TCM    cl3  873   2.366   4.672   1.167
    1TCM     c1  874   0.566   3.327   4.020
    1TCM    cl1  875   0.527   3.490   4.082
    1TCM    cl2  876   0.711   3.335   3.919
    1TCM     h1  877   0.583   3.259   4.105
    1TCM    cl3  878   0.429   3.267   3.923
    1TCM     c1  879   2.630   0.089   1.805
    1TCM    cl1  880   2.594   0.264   1.804
    1TCM    cl2  881   2.669   0.036   1.640
    1TCM     h1  882   2.716   0.070   1.871
    1TCM    cl3  883   2.488   0.000   1.864
    1TCM     c1  884   2.628   4.886   3.603
    1TCM    cl1  885   2.610   4.802   3.759
    1TCM    cl2  886   2.740   5.022   3.621
    1TCM     h1  887   2.668   4.815   3.527
    1TCM    cl3  888   2.469   4.946   3.549
    1TCM     c1  889   3.700   3.555   4.910
    1TCM    cl1  890   3.573   3.620   5.016
    1TCM    cl2  891   3.780   3.689   4.825
    1TCM     h1  892   3.775   3.500   4.971
    1TCM    cl3  893   3.628   3.444   4.791
    1TCM     c1  894   1.756   0.158   4.796
    1TCM    cl1  895   1.714   0.303   4.701
    1TCM    cl2  896   1.730   0.191   4.969
    1TCM     h1  897   1.691   0.073   4.765
    1TCM    cl3  898   1.926   0.116   4.768
    1TCM     c1  899   3.424   3.803   1.878
    1TCM    cl1  900   3.272   3.873   1.937
    1TCM    cl2  901   3.427   3.811   1.700
    1TCM     h1  902   3.510   3.859   1.919
    1TCM    cl3  903   3.434   3.633   1.930
    1TCM     c1  904   0.136   2.619   2.168
    1TCM    cl1  905   0.247   2.687   2.289
    1TCM    cl2  906   0.223   2.596   2.014
    1TCM     h1  907   0.098   2.521   2.204
    1TCM    cl3  908   0.000   2.730   2.143
    1TCM     c1  909   1.677   0.654   3.493
    1TCM    cl1  910   1.736   0.540   3.370
    1TCM    cl2  911   1.517   0.601   3.552
    1TCM     h1  912   1.748   0.656   3.578
    1TCM    cl3  913   1.663   0.816   3.422
    1TCM     c1  914   1.461   4.567   3.669
    1TCM    cl1  915   1.337   4.498   3.776
    1TCM    cl2  916   1.505   4.729   3.726
    1TCM     h1  917   1.550   4.501   3.669
    1TCM    cl3  918   1.396   4.578   3.503
    1TCM     c1  919   1.272   3.135   3.506
    1TCM    cl1  920   1.317   2.989   3.596
    1TCM    cl2  921   1.378   3.152   3.364
    1TCM     h1  922   1.167   3.127   3.472
    1TCM    cl3  923   1.291   3.278   3.610
    1TCM     c1  924   4.948   2.328   2.482
    1TCM    cl1  925   5.107   2.254   2.449
    1TCM    cl2  926   4.885   2.265   2.636
    1TCM     h1  927   4.959   2.438   2.488
    1TCM    cl3  928   4.836   2.287   2.350
    1TCM     c1  929   4.453   3.230   4.462
    1TCM    cl1  930   4.551   3.172   4.326
    1TCM    cl2  931   4.326   3.112   4.499
    1TCM     h1  932   4.518   3.244   4.551
    1TCM    cl3  933   4.379   3.386   4.419
    1TCM     c1  934   1.312   0.129   3.657
    1TCM    cl1  935   1.304   0.268   3.768
    1TCM    cl2  936   1.410   0.000   3.729
    1TCM     h1  937   1.209   0.092   3.638
    1TCM    cl3  938   1.385   0.180   3.503
    1TCM     c1  939   4.364   3.860   2.810
    1TCM    cl1  940   4.198   3.801   2.827
    1TCM    cl2  941   4.387   3.926   2.646
    1TCM     h1  942   4.383   3.940   2.885
    1TCM    cl3  943   4.478   3.726   2.836
    1TCM     c1  944   4.520   1.290   4.036
    1TCM    cl1  945   4.567   1.214   4.190
    1TCM    cl2  946   4.371   1.384   4.059
    1TCM     h1  947   4.602   1.357   4.002
    1TCM    cl3  948   4.492   1.164   3.914
    1TCM     c1  949   3.674   2.044   2.563
    1TCM    cl1  950   3.780   2.165   2.637
    1TCM    cl2  951   3.627   2.098   2.400
    1TCM     h1  952   3.727   1.947   2.556
    1TCM    cl3  953   3.528   2.024   2.663
    1TCM     c1  954   5.024   4.040   3.311
    1TCM    cl1  955   4.965   4.190   3.236
    1TCM    cl2  956   5.110   3.943   3.190
    1TCM     h1  957   5.093   4.066   3.394
    1TCM    cl3  958   4.886   3.948   3.375
    1TCM     c1  959   0.049   1.782   0.539
    1TCM    cl1  960   0.000   1.920   0.437
    1TCM    cl2  961   0.000   1.813   0.707
    1TCM     h1  962   0.000   1.690   0.502
    1TCM    cl3  963   0.226   1.763   0.531
    1TCM     c1  964   3.581   2.051   3.639
    1TCM    cl1  965   3.428   2.059   3.730
    1TCM    cl2  966   3.623   2.213   3.580
    1TCM     h1  967   3.662   2.014   3.706
    1TCM    cl3  968   3.562   1.940   3.502
    1TCM     c1  969   3.113   5.008   3.769
    1TCM    cl1  970   3.066   4.907   3.908
    1TCM    cl2  971   3.184   4.906   3.643
    1TCM     h1  972   3.023   5.060   3.729
    1TCM    cl3  973   3.232   5.129   3.822
    1TCM     c1  974   0.316   3.150   0.075
    1TCM    cl1  975   0.401   3.153   0.232
    1TCM    cl2  976   0.327   3.311   0.000
    1TCM     h1  977   0.364   3.075   0.009
    1TCM    cl3  978   0.146   3.107   0.101
    1TCM     c1  979   0.827   4.625   5.017
    1TCM    cl1  980   0.871   4.483   5.115
    1TCM    cl2  981   0.802   4.575   4.848
    1TCM     h1  982   0.734   4.670   5.057
    1TCM    cl3  983   0.958   4.745   5.025
    1TCM     c1  984   4.749   4.822   0.214
    1TCM    cl1  985   4.803   4.846   0.382
    1TCM    cl2  986   4.891   4.816   0.107
    1TCM     h1  987   4.693   4.726   0.206
    1TCM    cl3  988   4.644   4.956   0.165
    1TCM     c1  989   0.380   1.325   0.413
    1TCM    cl1  990   0.379   1.424   0.266
    1TCM    cl2  991   0.539   1.337   0.491
    1TCM     h1  992   0.302   1.361   0.483
    1TCM    cl3  993   0.348   1.155   0.371
    1TCM     c1  994   2.516   0.465   3.232
    1TCM    cl1  995   2.403   0.433   3.366
    1TCM    cl2  996   2.450   0.394   3.083
    1TCM     h1  997   2.528   0.574   3.219
    1TCM    cl3  998   2.673   0.391   3.268
    1TCM     c1  999   0.446   1.533   3.326
    1TCM    cl1 1000   0.540   1.439   3.443
    1TCM    cl2 1001   0.437   1.444   3.172
    1TCM     h1 1002   0.343   1.549   3.365
    1TCM    cl3 1003   0.524   1.690   3.299
    1TCM     c1 1004   0.311   4.443   5.017
    1TCM    cl1 1005   0.423   4.526   4.907
    1TCM    cl2 1006   0.323   4.515   5.179
    1TCM     h1 1007   0.207   4.453   4.979
    1TCM    cl3 1008   0.353   4.270   5.026
    1TCM     c1 1009   4.262   1.406   2.095
    1TCM    cl1 1010   4.383   1.369   2.220
    1TCM    cl2 1011   4.118   1.305   2.119
    1TCM     h1 1012   4.234   1.513   2.102
    1TCM    cl3 1013   4.331   1.374   1.934
    1TCM     c1 1014   1.592   0.561   1.891
    1TCM    cl1 1015   1.710   0.578   1.760
    1TCM    cl2 1016   1.623   0.683   2.016
    1TCM     h1 1017   1.489   0.575   1.851
    1TCM    cl3 1018   1.606   0.398   1.962
    1TCM     c1 1019   0.129   5.074   3.570
    1TCM    cl1 1020   0.007   5.062   3.442
    1TCM    cl2 1021   0.051   5.057   3.729
    1TCM     h1 1022   0.205   4.994   3.557
    1TCM    cl3 1023   0.209   5.233   3.561
    1TCM     c1 1024   2.255   2.290   2.980
    1TCM    cl1 1025   2.406   2.206   2.937
    1TCM    cl2 1026   2.117   2.197   2.917
    1TCM     h1 1027   2.247   2.298   3.090
    1TCM    cl3 1028   2.255   2.452   2.908
    1TCM     c1 1029   2.635   3.563   3.793
    1TCM    cl1 1030   2.598   3.615   3.628
    1TCM    cl2 1031   2.798   3.493   3.798
    1TCM     h1 1032   2.631   3.650   3.862
    1TCM    cl3 1033   2.516   3.441   3.845
    1TCM     c1 1034   0.771   1.335   3.608
    1TCM    cl1 1035   0.723   1.163   3.613
    1TCM    cl2 1036   0.894   1.366   3.732
    1TCM     h1 1037   0.812   1.359   3.508
    1TCM    cl3 1038   0.628   1.436   3.639
    1TCM     c1 1039   0.843   4.306   2.009
    1TCM    cl1 1040   0.778   4.450   2.089
    1TCM    cl2 1041   0.748   4.272   1.862
    1TCM     h1 1042   0.949   4.324   1.981
    1TCM    cl3 1043   0.834   4.167   2.119
    1TCM     c1 1044   3.747   4.191   2.534
    1TCM    cl1 1045   3.821   4.142   2.380
    1TCM    cl2 1046   3.874   4.218   2.655
    1TCM     h1 1047   3.690   4.285   2.519
    1TCM    cl3 1048   3.638   4.063   2.591
    1TCM     c1 1049   0.644   4.085   3.288
    1TCM    cl1 1050   0.794   4.178   3.308
    1TCM    cl2 1051   0.672   3.948   3.179
    1TCM     h1 1052   0.610   4.048   3.387
    1TCM    cl3 1053   0.518   4.191   3.219
    1TCM     c1 1054   1.907   3.815   1.876
    1TCM    cl1 1055   2.067   3.825   1.954
    1TCM    cl2 1056   1.894   3.662   1.786
    1TCM     h1 1057   1.828   3.820   1.953
    1TCM    cl3 1058   1.888   3.952   1.763
    1TCM     c1 1059   1.542   1.479   1.612
    1TCM    cl1 1060   1.525   1.655   1.632
    1TCM    cl2 1061   1.557   1.402   1.771
    1TCM     h1 1062   1.453   1.439   1.560
    1TCM    cl3 1063   1.687   1.445   1.515
    1TCM     c1 1064   4.080   0.077   4.052
    1TCM    cl1 1065   4.085   0.211   4.169
    1TCM    cl2 1066   4.110   0.140   3.889
    1TCM     h1 1067   4.157   0.002   4.078
    1TCM    cl3 1068   3.919   0.001   4.058
    1TCM     c1 1069   0.172   4.545   4.598
    1TCM    cl1 1070   0.164   4.686   4.706
    1TCM    cl2 1071   0.284   4.580   4.464
    1TCM     h1 1072   0.208   4.457   4.654
    1TCM    cl3 1073   0.010   4.511   4.532
    1TCM     c1 1074   1.272   1.794   0.172
    1TCM    cl1 1075   1.414   1.732   0.259
    1TCM    cl2 1076   1.308   1.804  -0.002
    1TCM     h1 1077   1.186   1.726   0.189
    1TCM    cl3 1078   1.231   1.957   0.233
    1TCM     c1 1079   2.760   2.835   0.299
    1TCM    cl1 1080   2.725   2.710   0.177
    1TCM    cl2 1081   2.767   2.760   0.460
    1TCM     h1 1082   2.857   2.883   0.276
    1TCM    cl3 1083   2.631   2.958   0.296
    1TCM     c1 1084   3.596   1.548   3.333
    1TCM    cl1 1085   3.477   1.537   3.464
    1TCM    cl2 1086   3.534   1.465   3.188
    1TCM     h1 1087   3.615   1.655   3.309
    1TCM    cl3 1088   3.748   1.472   3.385
    1TCM     c1 1089   3.548   0.324   1.964
    1TCM    cl1 1090   3.708   0.308   1.887
    1TCM    cl2 1091   3.558   0.270   2.133
    1TCM     h1 1092   3.516   0.430   1.961
    1TCM    cl3 1093   3.430   0.223   1.877
    1TCM     c1 1094   4.147   2.804   1.405
    1TCM    cl1 1095   4.141   2.952   1.306
    1TCM    cl2 1096   4.316   2.754   1.426
    1TCM     h1 1097   4.102   2.823   1.504
    1TCM    cl3 1098   4.057   2.674   1.323
    1TCM     c1 1099   2.975   4.267   2.673
    1TCM    cl1 1100   3.004   4.341   2.832
    1TCM    cl2 1101   3.111   4.160   2.632
    1TCM     h1 1102   2.881   4.208   2.677
    1TCM    cl3 1103   2.960   4.395   2.550
    1TCM     c1 1104   1.912   2.597   4.151
    1TCM    cl1 1105   1.863   2.530   3.994
    1TCM    cl2 1106   2.020   2.482   4.233
    1TCM     h1 1107   1.965   2.693   4.136
    1TCM    cl3 1108   1.768   2.624   4.251
    1TCM     c1 1109   1.123   2.073   4.961
    1TCM    cl1 1110   1.132   2.236   5.031
    1TCM    cl2 1111   1.266   2.044   4.859
    1TCM     h1 1112   1.120   1.998   5.042
    1TCM    cl3 1113   0.976   2.059   4.861
    1TCM     c1 1114   2.411   4.641   4.604
    1TCM    cl1 1115   2.388   4.567   4.764
    1TCM    cl2 1116   2.484   4.802   4.623
    1TCM     h1 1117   2.479   4.577   4.543
    1TCM    cl3 1118   2.254   4.656   4.522
    1TCM     c1 1119   2.329   5.134   5.074
    1TCM    cl1 1120   2.392   5.002   5.174
    1TCM    cl2 1121   2.448   5.176   4.949
    1TCM     h1 1122   2.234   5.102   5.026
    1TCM    cl3 1123   2.298   5.276   5.176
    1TCM     c1 1124   3.897   4.352   4.748
    1TCM    cl1 1125   3.734   4.340   4.680
    1TCM    cl2 1126   3.887   4.408   4.917
    1TCM     h1 1127   3.945   4.252   4.745
    1TCM    cl3 1128   3.994   4.467   4.653
    1TCM     c1 1129   1.936   2.224   5.139
    1TCM    cl1 1130   1.853   2.203   5.295
    1TCM    cl2 1131   2.050   2.091   5.114
    1TCM     h1 1132   1.860   2.224   5.057
    1TCM    cl3 1133   2.023   2.379   5.138
    1TCM     c1 1134   2.382   2.242   1.979
    1TCM    cl1 1135   2.265   2.222   1.847
    1TCM    cl2 1136   2.308   2.190   2.132
    1TCM     h1 1137   2.472   2.180   1.958
    1TCM    cl3 1138   2.430   2.413   1.991
    1TCM     c1 1139   2.780   2.754   0.891
    1TCM    cl1 1140   2.849   2.738   0.728
    1TCM    cl2 1141   2.794   2.599   0.977
    1TCM     h1 1142   2.835   2.832   0.947
    1TCM    cl3 1143   2.609   2.799   0.879
    1TCM     c1 1144   1.198   3.067   5.169
    1TCM    cl1 1145   1.228   2.926   5.273
    1TCM    cl2 1146   1.190   3.015   4.999
    1TCM     h1 1147   1.102   3.115   5.198
    1TCM    cl3 1148   1.330   3.185   5.189
    1TCM     c1 1149   4.642   4.602   2.668
    1TCM    cl1 1150   4.697   4.558   2.505
    1TCM    cl2 1151   4.768   4.561   2.786
    1TCM     h1 1152   4.622   4.711   2.672
    1TCM    cl3 1153   4.493   4.513   2.706
    1TCM     c1 1154   3.175   0.511   4.857
    1TCM    cl1 1155   3.041   0.560   4.962
    1TCM    cl2 1156   3.140   0.560   4.689
    1TCM     h1 1157   3.269   0.560   4.891
    1TCM    cl3 1158   3.195   0.335   4.864
    1TCM     c1 1159   3.965   3.993   4.141
    1TCM    cl1 1160   4.062   4.129   4.203
    1TCM    cl2 1161   4.073   3.862   4.090
    1TCM     h1 1162   3.898   3.957   4.222
    1TCM    cl3 1163   3.868   4.048   4.003
    1TCM     c1 1164   1.816   1.951   0.624
    1TCM    cl1 1165   1.942   2.035   0.530
    1TCM    cl2 1166   1.831   1.996   0.796
    1TCM     h1 1167   1.717   1.981   0.586
    1TCM    cl3 1168   1.836   1.776   0.606
    1TCM     c1 1169   2.692   0.467   0.125
    1TCM    cl1 1170   2.563   0.493   0.005
    1TCM    cl2 1171   2.624   0.481   0.289
    1TCM     h1 1172   2.735   0.365   0.112
    1TCM    cl3 1173   2.820   0.588   0.104
    1TCM     c1 1174   2.464   2.934   2.010
    1TCM    cl1 1175   2.310   2.896   1.929
    1TCM    cl2 1176   2.468   2.856   2.170
    1TCM     h1 1177   2.549   2.897   1.948
    1TCM    cl3 1178   2.479   3.110   2.030
    1TCM     c1 1179   1.151   4.927   1.683
    1TCM    cl1 1180   1.175   5.030   1.825
    1TCM    cl2 1181   1.081   5.023   1.550
    1TCM     h1 1182   1.249   4.886   1.650
    1TCM    cl3 1183   1.042   4.793   1.724
    1TCM     c1 1184   4.297   2.439   4.480
    1TCM    cl1 1185   4.396   2.378   4.345
    1TCM    cl2 1186   4.370   2.588   4.544
    1TCM     h1 1187   4.195   2.461   4.444
    1TCM    cl3 1188   4.290   2.316   4.608
    1TCM     c1 1189   1.947   5.083   5.124
    1TCM    cl1 1190   2.003   4.949   5.021
    1TCM    cl2 1191   1.837   5.020   5.249
    1TCM     h1 1192   2.034   5.132   5.172
    1TCM    cl3 1193   1.860   5.202   5.024
    1TCM     c1 1194   3.435   3.901   0.634
    1TCM    cl1 1195   3.467   4.061   0.563
    1TCM    cl2 1196   3.582   3.843   0.717
    1TCM     h1 1197   3.352   3.908   0.707
    1TCM    cl3 1198   3.391   3.787   0.505
    1TCM     c1 1199   4.667   0.986   1.056
    1TCM    cl1 1200   4.641   0.818   1.110
    1TCM    cl2 1201   4.772   1.070   1.172
    1TCM     h1 1202   4.715   0.985   0.956
    1TCM    cl3 1203   4.511   1.070   1.045
    1TCM     c1 1204   4.203   1.892   1.974
    1TCM    cl1 1205   4.047   1.961   2.025
    1TCM    cl2 1206   4.223   1.915   1.799
    1TCM     h1 1207   4.285   1.943   2.029
    1TCM    cl3 1208   4.206   1.718   2.012
    1TCM     c1 1209   4.134   1.741   0.116
    1TCM    cl1 1210   4.202   1.883   0.198
    1TCM    cl2 1211   3.990   1.685   0.204
    1TCM     h1 1212   4.105   1.768   0.012
    1TCM    cl3 1213   4.255   1.611   0.111
    1TCM     c1 1214   3.999   3.235   4.800
    1TCM    cl1 1215   4.091   3.284   4.656
    1TCM    cl2 1216   3.886   3.366   4.844
    1TCM     h1 1217   3.942   3.143   4.778
    1TCM    cl3 1218   4.111   3.205   4.935
    1TCM     c1 1219   1.158   0.100   3.965
    1TCM    cl1 1220   1.126   0.232   3.851
    1TCM    cl2 1221   1.292   0.000   3.904
    1TCM     h1 1222   1.186   0.143   4.064
    1TCM    cl3 1223   1.012   0.000   3.983
    1TCM     c1 1224   3.532   0.415   1.433
    1TCM    cl1 1225   3.688   0.392   1.517
    1TCM    cl2 1226   3.401   0.348   1.533
    1TCM     h1 1227   3.514   0.524   1.418
    1TCM    cl3 1228   3.536   0.332   1.276
    1TCM     c1 1229   1.154   0.332   4.193
    1TCM    cl1 1230   1.143   0.177   4.280
    1TCM    cl2 1231   1.086   0.313   4.029
    1TCM     h1 1232   1.097   0.409   4.248
    1TCM    cl3 1233   1.324   0.381   4.181
    1TCM     c1 1234   2.450   0.881   4.356
    1TCM    cl1 1235   2.523   0.782   4.485
    1TCM    cl2 1236   2.487   0.808   4.198
    1TCM     h1 1237   2.340   0.885   4.370
    1TCM    cl3 1238   2.517   1.046   4.363
    1TCM     c1 1239   4.242   4.564   0.788
    1TCM    cl1 1240   4.085   4.620   0.726
    1TCM    cl2 1241   4.278   4.646   0.941
    1TCM     h1 1242   4.239   4.455   0.804
    1TCM    cl3 1243   4.369   4.603   0.669
    1TCM     c1 1244   5.199   1.334   0.760
    1TCM    cl1 1245   5.090   1.408   0.639
    1TCM    cl2 1246   5.200   1.158   0.738
    1TCM     h1 1247   5.302   1.374   0.746
    1TCM    cl3 1248   5.141   1.373   0.923
    1TCM     c1 1249   4.972   4.020   4.679
    1TCM    cl1 1250   5.080   4.151   4.731
    1TCM    cl2 1251   5.033   3.949   4.528
    1TCM     h1 1252   4.968   3.941   4.758
    1TCM    cl3 1253   4.808   4.085   4.652
    1TCM     c1 1254   0.845   0.881   2.612
    1TCM    cl1 1255   0.714   0.993   2.657
    1TCM    cl2 1256   0.779   0.716   2.599
    1TCM     h1 1257   0.887   0.911   2.514
    1TCM    cl3 1258   0.972   0.885   2.736
    1TCM     c1 1259   4.810   1.333   3.712
    1TCM    cl1 1260   4.953   1.438   3.701
    1TCM    cl2 1261   4.756   1.289   3.548
    1TCM     h1 1262   4.836   1.241   3.768
    1TCM    cl3 1263   4.679   1.419   3.796
    1TCM     c1 1264   5.097   4.799   0.694
    1TCM    cl1 1265   5.018   4.667   0.783
    1TCM    cl2 1266   5.035   4.804   0.527
    1TCM     h1 1267   5.076   4.895   0.744
    1TCM    cl3 1268   5.273   4.771   0.690
    1TCM     c1 1269   0.684   3.699   0.670
    1TCM    cl1 1270   0.799   3.564   0.668
    1TCM    cl2 1271   0.567   3.679   0.537
    1TCM     h1 1272   0.629   3.700   0.767
    1TCM    cl3 1273   0.771   3.853   0.649
    1TCM     c1 1274   1.193   2.560   4.756
    1TCM    cl1 1275   1.259   2.404   4.806
    1TCM    cl2 1276   1.238   2.592   4.587
    1TCM     h1 1277   1.082   2.558   4.765
    1TCM    cl3 1278   1.258   2.689   4.860
    1TCM     c1 1279   1.807   4.312   0.135
    1TCM    cl1 1280   1.707   4.308   0.282
    1TCM    cl2 1281   1.712   4.378   0.000
    1TCM     h1 1282   1.896   4.377   0.153
    1TCM    cl3 1283   1.861   4.148   0.095
    1TCM     c1 1284   0.825   3.278   0.653
    1TCM    cl1 1285   0.863   3.301   0.481
    1TCM    cl2 1286   0.935   3.378   0.751
    1TCM     h1 1287   0.720   3.309   0.672
    1TCM    cl3 1288   0.846   3.107   0.696
    1TCM     c1 1289   4.085   1.582   2.326
    1TCM    cl1 1290   3.951   1.567   2.210
    1TCM    cl2 1291   4.146   1.421   2.368
    1TCM     h1 1292   4.167   1.642   2.280
    1TCM    cl3 1293   4.027   1.664   2.473
    1TCM     c1 1294   2.159   0.688   4.594
    1TCM    cl1 1295   2.319   0.613   4.616
    1TCM    cl2 1296   2.043   0.614   4.708
    1TCM     h1 1297   2.166   0.797   4.615
    1TCM    cl3 1298   2.103   0.663   4.427
    1TCM     c1 1299   0.424   0.101   2.368
    1TCM    cl1 1300   0.272   0.029   2.427
    1TCM    cl2 1301   0.422   0.108   2.191
    1TCM     h1 1302   0.435   0.204   2.410
    1TCM    cl3 1303   0.561   0.002   2.422
    1TCM     c1 1304   1.866   4.546   4.456
    1TCM    cl1 1305   1.906   4.719   4.451
    1TCM    cl2 1306   1.916   4.478   4.612
    1TCM     h1 1307   1.756   4.533   4.444
    1TCM    cl3 1308   1.951   4.461   4.325
    1TCM     c1 1309   4.224   4.619   1.526
    1TCM    cl1 1310   4.119   4.478   1.499
    1TCM    cl2 1311   4.263   4.694   1.369
    1TCM     h1 1312   4.172   4.692   1.590
    1TCM    cl3 1313   4.375   4.566   1.605
    1TCM     c1 1314   1.128   2.510   0.431
    1TCM    cl1 1315   1.237   2.649   0.419
    1TCM    cl2 1316   0.977   2.545   0.342
    1TCM     h1 1317   1.176   2.421   0.387
    1TCM    cl3 1318   1.089   2.478   0.602
    1TCM     c1 1319   1.156   0.889   4.285
    1TCM    cl1 1320   1.130   0.977   4.437
    1TCM    cl2 1321   1.233   0.732   4.320
    1TCM     h1 1322   1.058   0.872   4.235
    1TCM    cl3 1323   1.261   0.984   4.178
    1TCM     c1 1324   1.998   1.481   1.054
    1TCM    cl1 1325   1.948   1.603   0.936
    1TCM    cl2 1326   2.123   1.377   0.983
    1TCM     h1 1327   2.039   1.531   1.144
    1TCM    cl3 1328   1.858   1.382   1.101
    1TCM     c1 1329   1.216   4.716   1.332
    1TCM    cl1 1330   1.378   4.676   1.393
    1TCM    cl2 1331   1.218   4.720   1.155
    1TCM     h1 1332   1.143   4.639   1.367
    1TCM    cl3 1333   1.167   4.876   1.394
    1TCM     c1 1334   5.094   2.785   2.600
    1TCM    cl1 1335   4.938   2.851   2.656
    1TCM    cl2 1336   5.128   2.847   2.436
    1TCM     h1 1337   5.174   2.817   2.669
    1TCM    cl3 1338   5.084   2.608   2.595
    1TCM     c1 1339   0.846   2.918   0.093
    1TCM    cl1 1340   0.922   2.941   0.252
    1TCM    cl2 1341   0.939   2.799   0.000
    1TCM     h1 1342   0.742   2.881   0.107
    1TCM    cl3 1343   0.844   3.073   0.006
    1TCM     c1 1344   3.694   4.735   3.445
    1TCM    cl1 1345   3.757   4.572   3.413
    1TCM    cl2 1346   3.667   4.755   3.620
    1TCM     h1 1347   3.767   4.811   3.410
    1TCM    cl3 1348   3.540   4.757   3.359
    1TCM     c1 1349   4.156   4.733   0.459
    1TCM    cl1 1350   4.231   4.864   0.366
    1TCM    cl2 1351   4.129   4.788   0.626
    1TCM     h1 1352   4.059   4.705   0.413
    1TCM    cl3 1353   4.264   4.591   0.460
    1TCM     c1 1354   0.701   4.582   4.502
    1TCM    cl1 1355   0.744   4.700   4.377
    1TCM    cl2 1356   0.603   4.452   4.430
    1TCM     h1 1357   0.793   4.538   4.546
    1TCM    cl3 1358   0.607   4.662   4.630
    1TCM     c1 1359   2.038   4.853   3.922
    1TCM    cl1 1360   2.152   4.980   3.971
    1TCM    cl2 1361   2.080   4.700   4.003
    1TCM     h1 1362   1.935   4.883   3.951
    1TCM    cl3 1363   2.046   4.831   3.746
    1TCM     c1 1364   1.501   0.306   1.298
    1TCM    cl1 1365   1.385   0.366   1.177
    1TCM    cl2 1366   1.467   0.382   1.455
    1TCM     h1 1367   1.492   0.196   1.308
    1TCM    cl3 1368   1.667   0.347   1.247
    1TCM     c1 1369   2.555   3.239   1.057
    1TCM    cl1 1370   2.721   3.275   1.007
    1TCM    cl2 1371   2.544   3.070   1.112
    1TCM     h1 1372   2.525   3.307   1.140
    1TCM    cl3 1373   2.445   3.264   0.919
    1TCM     c1 1374   0.765   3.484   0.934
    1TCM    cl1 1375   0.689   3.576   1.065
    1TCM    cl2 1376   0.890   3.583   0.856
    1TCM     h1 1377   0.812   3.392   0.975
    1TCM    cl3 1378   0.642   3.439   0.814
    1TCM     c1 1379   3.734   2.381   2.064
    1TCM    cl1 1380   3.739   2.242   2.175
    1TCM    cl2 1381   3.714   2.322   1.897
    1TCM     h1 1382   3.649   2.447   2.090
    1TCM    cl3 1383   3.887   2.471   2.077
    1TCM     c1 1384   3.137   2.955   0.789
    1TCM    cl1 1385   3.095   2.821   0.679
    1TCM    cl2 1386   3.161   2.891   0.953
    1TCM     h1 1387   3.231   3.003   0.754
    1TCM    cl3 1388   3.006   3.075   0.790
    1TCM     c1 1389   2.743   3.510   4.282
    1TCM    cl1 1390   2.821   3.522   4.442
    1TCM    cl2 1391   2.735   3.340   4.233
    1TCM     h1 1392   2.640   3.552   4.288
    1TCM    cl3 1393   2.838   3.602   4.163
    1TCM     c1 1394   1.318   2.706   4.145
    1TCM    cl1 1395   1.286   2.870   4.083
    1TCM    cl2 1396   1.194   2.664   4.266
    1TCM     h1 1397   1.314   2.634   4.061
    1TCM    cl3 1398   1.479   2.701   4.220
    1TCM     c1 1399   1.526   2.928   3.392
    1TCM    cl1 1400   1.637   2.907   3.255
    1TCM    cl2 1401   1.580   3.065   3.492
    1TCM     h1 1402   1.423   2.949   3.354
    1TCM    cl3 1403   1.524   2.780   3.490
    1TCM     c1 1404   3.817   4.819   3.911
    1TCM    cl1 1405   3.734   4.907   3.781
    1TCM    cl2 1406   3.713   4.688   3.970
    1TCM     h1 1407   3.912   4.776   3.871
    1TCM    cl3 1408   3.854   4.931   4.044
    1TCM     c1 1409   0.107   3.047   0.379
    1TCM    cl1 1410   0.194   3.182   0.303
    1TCM    cl2 1411   0.010   2.962   0.257
    1TCM     h1 1412   0.180   2.976   0.424
    1TCM    cl3 1413   0.000   3.109   0.507
    1TCM     c1 1414   1.543   2.285   5.092
    1TCM    cl1 1415   1.558   2.233   4.923
    1TCM    cl2 1416   1.382   2.241   5.153
    1TCM     h1 1417   1.621   2.236   5.153
    1TCM    cl3 1418   1.564   2.462   5.101
    1TCM     c1 1419   0.286   1.937   3.011
    1TCM    cl1 1420   0.389   2.049   2.919
    1TCM    cl2 1421   0.187   2.029   3.127
    1TCM     h1 1422   0.220   1.882   2.941
    1TCM    cl3 1423   0.388   1.821   3.100
    1TCM     c1 1424   3.660   0.207   4.971
    1TCM    cl1 1425   3.521   0.105   5.013
    1TCM    cl2 1426   3.728   0.278   5.119
    1TCM     h1 1427   3.738   0.145   4.920
    1TCM    cl3 1428   3.608   0.337   4.862
    1TCM     c1 1429   1.847   3.011   1.949
    1TCM    cl1 1430   1.788   2.921   1.808
    1TCM    cl2 1431   1.907   2.897   2.072
    1TCM     h1 1432   1.929   3.079   1.919
    1TCM    cl3 1433   1.714   3.107   2.018
    1TCM     c1 1434   1.555   2.033   4.540
    1TCM    cl1 1435   1.548   2.080   4.368
    1TCM    cl2 1436   1.402   2.075   4.619
    1TCM     h1 1437   1.572   1.924   4.548
    1TCM    cl3 1438   1.688   2.120   4.619
    1TCM     c1 1439   0.214   4.063   1.376
    1TCM    cl1 1440   0.168   3.925   1.478
    1TCM    cl2 1441   0.343   4.155   1.457
    1TCM     h1 1442   0.251   4.027   1.278
    1TCM    cl3 1443   0.074   4.169   1.351
    1TCM     c1 1444   0.233   1.117   0.836
    1TCM    cl1 1445   0.158   0.960   0.868
    1TCM    cl2 1446   0.205   1.163   0.666
    1TCM     h1 1447   0.188   1.194   0.902
    1TCM    cl3 1448   0.408   1.107   0.867
    1TCM     c1 1449   3.708   2.560   2.845
    1TCM    cl1 1450   3.591   2.512   2.970
    1TCM    cl2 1451   3.662   2.718   2.777
    1TCM     h1 1452   3.809   2.566   2.889
    1TCM    cl3 1453   3.708   2.438   2.715
    1TCM     c1 1454   0.262   4.865   2.836
    1TCM    cl1 1455   0.268   4.850   3.013
    1TCM    cl2 1456   0.107   4.801   2.776
    1TCM     h1 1457   0.271   4.972   2.807
    1TCM    cl3 1458   0.396   4.772   2.764
    1TCM     c1 1459   0.184   4.684   2.465
    1TCM    cl1 1460   0.056   4.724   2.349
    1TCM    cl2 1461   0.112   4.653   2.625
    1TCM     h1 1462   0.238   4.593   2.431
    1TCM    cl3 1463   0.298   4.820   2.477
    1TCM     c1 1464   0.531   2.531   2.352
    1TCM    cl1 1465   0.487   2.362   2.389
    1TCM    cl2 1466   0.684   2.571   2.433
    1TCM     h1 1467   0.543   2.543   2.243
    1TCM    cl3 1468   0.403   2.639   2.411
    1TCM     c1 1469   0.617   4.048   2.897
    1TCM    cl1 1470   0.511   4.135   2.784
    1TCM    cl2 1471   0.618   3.875   2.856
    1TCM     h1 1472   0.720   4.088   2.889
    1TCM    cl3 1473   0.558   4.069   3.063
    1TCM     c1 1474   2.323   0.628   4.220
    1TCM    cl1 1475   2.383   0.667   4.056
    1TCM    cl2 1476   2.238   0.472   4.217
    1TCM     h1 1477   2.409   0.623   4.290
    1TCM    cl3 1478   2.212   0.756   4.273
    1TCM     c1 1479   2.095   1.277   0.554
    1TCM    cl1 1480   2.203   1.142   0.511
    1TCM    cl2 1481   2.010   1.333   0.409
    1TCM     h1 1482   2.021   1.242   0.629
    1TCM    cl3 1483   2.191   1.410   0.622
    1TCM     c1 1484   3.134   4.656   5.190
    1TCM    cl1 1485   2.973   4.715   5.142
    1TCM    cl2 1486   3.233   4.630   5.045
    1TCM     h1 1487   3.183   4.731   5.256
    1TCM    cl3 1488   3.117   4.503   5.278
    1TCM     c1 1489   4.716   3.763   3.188
    1TCM    cl1 1490   4.609   3.655   3.280
    1TCM    cl2 1491   4.658   3.774   3.020
    1TCM     h1 1492   4.715   3.864   3.234
    1TCM    cl3 1493   4.881   3.698   3.190
    1TCM     c1 1494   4.281   1.189   4.570
    1TCM    cl1 1495   4.194   1.218   4.722
    1TCM    cl2 1496   4.166   1.134   4.446
    1TCM     h1 1497   4.329   1.283   4.537
    1TCM    cl3 1498   4.405   1.064   4.595
    1TCM     c1 1499   0.161   3.108   4.638
    1TCM    cl1 1500   0.175   3.280   4.681
    1TCM    cl2 1501   0.143   3.092   4.462
    1TCM     h1 1502   0.253   3.054   4.671
    1TCM    cl3 1503   0.020   3.037   4.719
    1TCM     c1 1504   1.023   1.837   0.306
    1TCM    cl1 1505   1.179   1.846   0.391
    1TCM    cl2 1506   0.910   1.954   0.377
    1TCM     h1 1507   1.039   1.861   0.199
    1TCM    cl3 1508   0.957   1.673   0.321
    1TCM     c1 1509   0.095   3.056   5.026
    1TCM    cl1 1510   0.136   3.114   4.863
    1TCM    cl2 1511   0.000   2.907   5.014
    1TCM     h1 1512   0.189   3.036   5.082
    1TCM    cl3 1513   0.000   3.180   5.111
    1TCM     c1 1514   2.594   4.461   3.880
    1TCM    cl1 1515   2.490   4.387   4.004
    1TCM    cl2 1516   2.760   4.476   3.943
    1TCM     h1 1517   2.594   4.397   3.789
    1TCM    cl3 1518   2.532   4.622   3.839
    1TCM     c1 1519   4.490   3.498   2.297
    1TCM    cl1 1520   4.411   3.401   2.170
    1TCM    cl2 1521   4.394   3.644   2.329
    1TCM     h1 1522   4.497   3.437   2.390
    1TCM    cl3 1523   4.653   3.544   2.243
    1TCM     c1 1524   2.464   4.848   4.888
    1TCM    cl1 1525   2.560   4.714   4.823
    1TCM    cl2 1526   2.570   4.988   4.918
    1TCM     h1 1527   2.386   4.876   4.815
    1TCM    cl3 1528   2.388   4.798   5.041
    1TCM     c1 1529   2.647   1.898   3.368
    1TCM    cl1 1530   2.746   1.892   3.515
    1TCM    cl2 1531   2.479   1.855   3.407
    1TCM     h1 1532   2.650   2.001   3.326
    1TCM    cl3 1533   2.711   1.783   3.248
    1TCM     c1 1534   2.654   4.952   4.043
    1TCM    cl1 1535   2.645   5.107   4.130
    1TCM    cl2 1536   2.707   4.982   3.876
    1TCM     h1 1537   2.727   4.886   4.094
    1TCM    cl3 1538   2.494   4.876   4.041
    1TCM     c1 1539   0.778   2.891   4.944
    1TCM    cl1 1540   0.793   2.996   4.801
    1TCM    cl2 1541   0.841   2.729   4.905
    1TCM     h1 1542   0.836   2.934   5.028
    1TCM    cl3 1543   0.607   2.878   4.990
    1TCM     c1 1544   3.698   0.761   1.671
    1TCM    cl1 1545   3.595   0.903   1.701
    1TCM    cl2 1546   3.795   0.727   1.816
    1TCM     h1 1547   3.634   0.674   1.648
    1TCM    cl3 1548   3.806   0.794   1.534
    1TCM     c1 1549   0.471   0.442   0.477
    1TCM    cl1 1550   0.620   0.366   0.537
    1TCM    cl2 1551   0.330   0.354   0.541
    1TCM     h1 1552   0.467   0.548   0.510
    1TCM    cl3 1553   0.469   0.435   0.299
    1TCM     c1 1554   0.846   3.828   3.730
    1TCM    cl1 1555   0.890   3.670   3.659
    1TCM    cl2 1556   0.966   3.950   3.680
    1TCM     h1 1557   0.746   3.858   3.694
    1TCM    cl3 1558   0.845   3.815   3.907
    1TCM     c1 1559   5.236   4.269   4.417
    1TCM    cl1 1560   5.327   4.360   4.540
    1TCM    cl2 1561   5.129   4.381   4.328
    1TCM     h1 1562   5.306   4.222   4.346
    1TCM    cl3 1563   5.137   4.144   4.496
    1TCM     c1 1564   3.761   1.797   0.914
    1TCM    cl1 1565   3.782   1.686   1.051
    1TCM    cl2 1566   3.895   1.914   0.912
    1TCM     h1 1567   3.761   1.740   0.819
    1TCM    cl3 1568   3.607   1.884   0.930
    1TCM     c1 1569   3.446   4.518   3.758
    1TCM    cl1 1570   3.586   4.617   3.802
    1TCM    cl2 1571   3.501   4.358   3.703
    1TCM     h1 1572   3.380   4.505   3.846
    1TCM    cl3 1573   3.356   4.598   3.627
    1TCM     c1 1574   1.692   4.730   3.208
    1TCM    cl1 1575   1.790   4.801   3.077
    1TCM    cl2 1576   1.609   4.860   3.297
    1TCM     h1 1577   1.617   4.661   3.164
    1TCM    cl3 1578   1.798   4.640   3.319
    1TCM     c1 1579   0.637   3.335   5.262
    1TCM    cl1 1580   0.778   3.385   5.166
    1TCM    cl2 1581   0.671   3.179   5.340
    1TCM     h1 1582   0.616   3.411   5.340
    1TCM    cl3 1583   0.496   3.318   5.156
    1TCM     c1 1584   3.283   2.145   4.243
    1TCM    cl1 1585   3.384   2.009   4.186
    1TCM    cl2 1586   3.112   2.096   4.244
    1TCM     h1 1587   3.314   2.173   4.345
    1TCM    cl3 1588   3.305   2.284   4.134
    1TCM     c1 1589   2.978   2.415   0.587
    1TCM    cl1 1590   2.852   2.532   0.633
    1TCM    cl2 1591   3.069   2.478   0.447
    1TCM     h1 1592   3.048   2.400   0.672
    1TCM    cl3 1593   2.903   2.260   0.544
    1TCM     c1 1594   1.587   0.592   4.936
    1TCM    cl1 1595   1.413   0.563   4.915
    1TCM    cl2 1596   1.679   0.460   4.859
    1TCM     h1 1597   1.614   0.688   4.888
    1TCM    cl3 1598   1.626   0.598   5.109
    1TCM     c1 1599   2.562   5.252   3.238
    1TCM    cl1 1600   2.399   5.256   3.309
    1TCM    cl2 1601   2.549   5.258   3.061
    1TCM     h1 1602   2.620   5.340   3.274
    1TCM    cl3 1603   2.645   5.103   3.287
    1TCM     c1 1604   5.019   3.209   0.290
    1TCM    cl1 1605   4.876   3.314   0.277
    1TCM    cl2 1606   5.104   3.206   0.134
    1TCM     h1 1607   5.087   3.249   0.368
    1TCM    cl3 1608   4.968   3.044   0.333
    1TCM     c1 1609   2.420   2.855   3.885
    1TCM    cl1 1610   2.445   2.784   3.724
    1TCM    cl2 1611   2.572   2.850   3.977
    1TCM     h1 1612   2.388   2.961   3.874
    1TCM    cl3 1613   2.295   2.764   3.972
    1TCM     c1 1614   0.892   0.695   0.312
    1TCM    cl1 1615   0.742   0.683   0.218
    1TCM    cl2 1616   0.861   0.642   0.479
    1TCM     h1 1617   0.970   0.629   0.266
    1TCM    cl3 1618   0.949   0.863   0.313
    1TCM     c1 1619   3.507   4.865   4.923
    1TCM    cl1 1620   3.620   4.946   5.033
    1TCM    cl2 1621   3.581   4.716   4.860
    1TCM     h1 1622   3.414   4.840   4.977
    1TCM    cl3 1623   3.468   4.973   4.787
    1TCM     c1 1624   3.151   3.969   3.635
    1TCM    cl1 1625   3.149   3.849   3.504
    1TCM    cl2 1626   3.296   3.946   3.735
    1TCM     h1 1627   3.152   4.071   3.591
    1TCM    cl3 1628   3.006   3.950   3.735
    1TCM     c1 1629   2.878   4.342   3.322
    1TCM    cl1 1630   2.833   4.211   3.211
    1TCM    cl2 1631   2.742   4.375   3.432
    1TCM     h1 1632   2.967   4.311   3.381
    1TCM    cl3 1633   2.916   4.489   3.229
    1TCM     c1 1634   3.618   1.362   2.602
    1TCM    cl1 1635   3.795   1.380   2.608
    1TCM    cl2 1636   3.558   1.418   2.444
    1TCM     h1 1637   3.590   1.256   2.617
    1TCM    cl3 1638   3.544   1.461   2.731
    1TCM     c1 1639   4.585   2.088   5.149
    1TCM    cl1 1640   4.629   2.258   5.121
    1TCM    cl2 1641   4.730   1.996   5.194
    1TCM     h1 1642   4.511   2.082   5.232
    1TCM    cl3 1643   4.515   2.019   5.001
    1TCM     c1 1644   3.201   2.213   0.791
    1TCM    cl1 1645   3.034   2.225   0.853
    1TCM    cl2 1646   3.268   2.376   0.769
    1TCM     h1 1647   3.263   2.157   0.864
    1TCM    cl3 1648   3.201   2.127   0.635
    1TCM     c1 1649   4.599   4.829   1.563
    1TCM    cl1 1650   4.530   4.702   1.459
    1TCM    cl2 1651   4.592   4.776   1.732
    1TCM     h1 1652   4.705   4.847   1.534
    1TCM    cl3 1653   4.506   4.979   1.543
    1TCM     c1 1654   4.669   0.531   3.238
    1TCM    cl1 1655   4.691   0.355   3.248
    1TCM    cl2 1656   4.732   0.607   3.386
    1TCM     h1 1657   4.723   0.570   3.150
    1TCM    cl3 1658   4.496   0.568   3.222
    1TCM     c1 1659   3.570   2.202   0.417
    1TCM    cl1 1660   3.405   2.237   0.472
    1TCM    cl2 1661   3.677   2.181   0.558
    1TCM     h1 1662   3.570   2.108   0.357
    1TCM    cl3 1663   3.629   2.336   0.317
    1TCM     c1 1664   1.750   0.115   2.703
    1TCM    cl1 1665   1.595   0.180   2.647
    1TCM    cl2 1666   1.737   0.068   2.874
    1TCM     h1 1667   1.777   0.025   2.642
    1TCM    cl3 1668   1.877   0.239   2.685
    1TCM     c1 1669   1.277   4.693   5.036
    1TCM    cl1 1670   1.349   4.539   4.985
    1TCM    cl2 1671   1.401   4.820   5.034
    1TCM     h1 1672   1.195   4.721   4.967
    1TCM    cl3 1673   1.212   4.677   5.201
    1TCM     c1 1674   5.156   0.285   4.515
    1TCM    cl1 1675   5.284   0.202   4.423
    1TCM    cl2 1676   5.173   0.248   4.688
    1TCM     h1 1677   5.165   0.395   4.499
    1TCM    cl3 1678   4.997   0.230   4.457
    1TCM     c1 1679   4.344   4.868   0.166
    1TCM    cl1 1680   4.359   5.045   0.150
    1TCM    cl2 1681   4.415   4.789   0.024
    1TCM     h1 1682   4.397   4.835   0.258
    1TCM    cl3 1683   4.172   4.825   0.179
    1TCM     c1 1684   5.183   2.958   4.406
    1TCM    cl1 1685   5.306   2.907   4.289
    1TCM    cl2 1686   5.106   2.815   4.477
    1TCM     h1 1687   5.231   3.017   4.487
    1TCM    cl3 1688   5.060   3.058   4.325
    1TCM     c1 1689   4.096   1.359   1.666
    1TCM    cl1 1690   4.125   1.516   1.746
    1TCM    cl2 1691   4.181   1.231   1.755
    1TCM     h1 1692   3.987   1.338   1.665
    1TCM    cl3 1693   4.157   1.366   1.499
    1TCM     c1 1694   1.453   4.952   0.344
    1TCM    cl1 1695   1.546   4.861   0.465
    1TCM    cl2 1696   1.325   4.847   0.277
    1TCM     h1 1697   1.407   5.041   0.391
    1TCM    cl3 1698   1.562   5.003   0.212
    1TCM     c1 1699   2.257   2.555   2.263
    1TCM    cl1 1700   2.268   2.460   2.113
    1TCM    cl2 1701   2.192   2.452   2.393
    1TCM     h1 1702   2.358   2.591   2.291
    1TCM    cl3 1703   2.148   2.693   2.238
    1TCM     c1 1704   4.650   3.526   3.680
    1TCM    cl1 1705   4.529   3.656   3.675
    1TCM    cl2 1706   4.571   3.372   3.720
    1TCM     h1 1707   4.699   3.517   3.580
    1TCM    cl3 1708   4.773   3.564   3.803
    1TCM     c1 1709   1.464   0.864   0.571
    1TCM    cl1 1710   1.621   0.946   0.581
    1TCM    cl2 1711   1.471   0.736   0.448
    1TCM     h1 1712   1.439   0.819   0.669
    1TCM    cl3 1713   1.338   0.981   0.527
    1TCM     c1 1714   2.445   5.268   4.163
    1TCM    cl1 1715   2.410   5.119   4.255
    1TCM    cl2 1716   2.463   5.228   3.991
    1TCM     h1 1717   2.362   5.340   4.176
    1TCM    cl3 1718   2.596   5.340   4.223
    1TCM     c1 1719   3.506   3.038   2.534
    1TCM    cl1 1720   3.385   3.168   2.523
    1TCM    cl2 1721   3.563   3.024   2.702
    1TCM     h1 1722   3.460   2.942   2.503
    1TCM    cl3 1723   3.643   3.075   2.427
    1TCM     c1 1724   3.240   3.572   2.831
    1TCM    cl1 1725   3.404   3.636   2.805
    1TCM    cl2 1726   3.205   3.568   3.005
    1TCM     h1 1727   3.167   3.638   2.780
    1TCM    cl3 1728   3.229   3.408   2.764
    1TCM     c1 1729   1.302   1.098   0.107
    1TCM    cl1 1730   1.258   0.963   0.000
    1TCM    cl2 1731   1.321   1.038   0.273
    1TCM     h1 1732   1.398   1.142   0.073
    1TCM    cl3 1733   1.175   1.222   0.103
    1TCM     c1 1734   3.244   0.158   0.900
    1TCM    cl1 1735   3.363   0.084   0.791
    1TCM    cl2 1736   3.326   0.211   1.049
    1TCM     h1 1737   3.198   0.245   0.851
    1TCM    cl3 1738   3.119   0.039   0.941
    1TCM     c1 1739   2.054   3.447   1.024
    1TCM    cl1 1740   2.023   3.605   0.949
    1TCM    cl2 1741   2.229   3.420   1.035
    1TCM     h1 1742   2.010   3.446   1.126
    1TCM    cl3 1743   1.979   3.319   0.926
    1TCM     c1 1744   2.976   3.806   1.989
    1TCM    cl1 1745   2.802   3.777   1.970
    1TCM    cl2 1746   3.045   3.855   1.833
    1TCM     h1 1747   2.992   3.886   2.064
    1TCM    cl3 1748   3.056   3.657   2.045
    1TCM     c1 1749   4.690   0.494   4.098
    1TCM    cl1 1750   4.588   0.363   4.036
    1TCM    cl2 1751   4.817   0.533   3.979
    1TCM     h1 1752   4.628   0.584   4.116
    1TCM    cl3 1753   4.766   0.443   4.251
    1TCM     c1 1754   4.665   3.007   4.780
    1TCM    cl1 1755   4.607   3.125   4.899
    1TCM    cl2 1756   4.842   2.999   4.785
    1TCM     h1 1757   4.622   2.907   4.803
    1TCM    cl3 1758   4.613   3.057   4.617
    1TCM     c1 1759   1.088   4.686   2.382
    1TCM    cl1 1760   1.218   4.688   2.260
    1TCM    cl2 1761   0.939   4.750   2.310
    1TCM     h1 1762   1.071   4.582   2.416
    1TCM    cl3 1763   1.135   4.787   2.520
    1TCM     c1 1764   5.146   0.240   0.349
    1TCM    cl1 1765   4.977   0.234   0.402
    1TCM    cl2 1766   5.153   0.246   0.171
    1TCM     h1 1767   5.195   0.330   0.391
    1TCM    cl3 1768   5.231   0.094   0.406
    1TCM     c1 1769   4.647   0.443   3.642
    1TCM    cl1 1770   4.537   0.424   3.504
    1TCM    cl2 1771   4.568   0.540   3.769
    1TCM     h1 1772   4.674   0.343   3.682
    1TCM    cl3 1773   4.795   0.526   3.588
    1TCM     c1 1774   3.624   5.116   4.459
    1TCM    cl1 1775   3.721   5.264   4.442
    1TCM    cl2 1776   3.680   4.995   4.341
    1TCM     h1 1777   3.636   5.076   4.562
    1TCM    cl3 1778   3.453   5.154   4.429
    1TCM     c1 1779   1.660   1.743   1.398
    1TCM    cl1 1780   1.800   1.806   1.308
    1TCM    cl2 1781   1.517   1.841   1.362
    1TCM     h1 1782   1.641   1.637   1.369
    1TCM    cl3 1783   1.694   1.750   1.573
    1TCM     c1 1784   3.414   1.799   2.782
    1TCM    cl1 1785   3.376   1.699   2.640
    1TCM    cl2 1786   3.361   1.716   2.930
    1TCM     h1 1787   3.523   1.817   2.786
    1TCM    cl3 1788   3.329   1.955   2.768
    1TCM     c1 1789   3.536   0.485   0.565
    1TCM    cl1 1790   3.626   0.416   0.428
    1TCM    cl2 1791   3.583   0.402   0.715
    1TCM     h1 1792   3.559   0.593   0.573
    1TCM    cl3 1793   3.361   0.464   0.538
    1TCM     c1 1794   0.694   1.360   1.989
    1TCM    cl1 1795   0.840   1.456   1.952
    1TCM    cl2 1796   0.568   1.395   1.868
    1TCM     h1 1797   0.719   1.252   1.987
    1TCM    cl3 1798   0.635   1.404   2.151
    1TCM     c1 1799   2.790   3.836   1.322
    1TCM    cl1 1800   2.958   3.894   1.328
    1TCM    cl2 1801   2.766   3.710   1.446
    1TCM     h1 1802   2.721   3.921   1.342
    1TCM    cl3 1803   2.756   3.769   1.161
    1TCM     c1 1804   2.464   2.593   4.418
    1TCM    cl1 1805   2.323   2.609   4.311
    1TCM    cl2 1806   2.409   2.553   4.582
    1TCM     h1 1807   2.530   2.512   4.380
    1TCM    cl3 1808   2.554   2.746   4.421
    1TCM     c1 1809   0.380   2.476   0.663
    1TCM    cl1 1810   0.206   2.495   0.634
    1TCM    cl2 1811   0.445   2.351   0.555
    1TCM     h1 1812   0.431   2.572   0.644
    1TCM    cl3 1813   0.407   2.427   0.832
    1TCM     c1 1814   2.516   0.505   1.656
    1TCM    cl1 1815   2.394   0.376   1.648
    1TCM    cl2 1816   2.512   0.581   1.817
    1TCM     h1 1817   2.616   0.462   1.638
    1TCM    cl3 1818   2.481   0.628   1.533
    1TCM     c1 1819   2.480   3.634   0.146
    1TCM    cl1 1820   2.395   3.753   0.046
    1TCM    cl2 1821   2.524   3.493   0.046
    1TCM     h1 1822   2.571   3.679   0.189
    1TCM    cl3 1823   2.373   3.580   0.278
    1TCM     c1 1824   0.085   3.499   4.984
    1TCM    cl1 1825   0.000   3.634   4.906
    1TCM    cl2 1826   0.112   3.537   5.156
    1TCM     h1 1827   0.024   3.407   4.976
    1TCM    cl3 1828   0.242   3.474   4.904
    1TCM     c1 1829   3.888   1.935   1.755
    1TCM    cl1 1830   3.838   2.071   1.858
    1TCM    cl2 1831   3.908   1.992   1.588
    1TCM     h1 1832   3.985   1.895   1.792
    1TCM    cl3 1833   3.765   1.808   1.760
    1TCM     c1 1834   2.235   2.850   2.694
    1TCM    cl1 1835   2.237   2.674   2.725
    1TCM    cl2 1836   2.400   2.914   2.705
    1TCM     h1 1837   2.195   2.868   2.592
    1TCM    cl3 1838   2.131   2.930   2.814
    1TCM     c1 1839   4.539   2.829   0.688
    1TCM    cl1 1840   4.546   2.991   0.615
    1TCM    cl2 1841   4.613   2.834   0.850
    1TCM     h1 1842   4.434   2.796   0.696
    1TCM    cl3 1843   4.629   2.714   0.586
    1TCM     c1 1844   5.124   4.334   1.768
    1TCM    cl1 1845   5.066   4.318   1.600
    1TCM    cl2 1846   5.227   4.194   1.808
    1TCM     h1 1847   5.182   4.427   1.778
    1TCM    cl3 1848   4.984   4.339   1.878
    1TCM     c1 1849   3.397   1.753   3.732
    1TCM    cl1 1850   3.376   1.750   3.909
    1TCM    cl2 1851   3.344   1.598   3.663
    1TCM     h1 1852   3.335   1.835   3.690
    1TCM    cl3 1853   3.568   1.781   3.693
    1TCM     c1 1854   0.926   3.775   2.502
    1TCM    cl1 1855   1.097   3.732   2.526
    1TCM    cl2 1856   0.916   3.943   2.444
    1TCM     h1 1857   0.881   3.707   2.428
    1TCM    cl3 1858   0.839   3.761   2.657
    1TCM     c1 1859   3.013   4.128   2.291
    1TCM    cl1 1860   2.926   3.977   2.258
    1TCM    cl2 1861   3.046   4.213   2.138
    1TCM     h1 1862   2.952   4.193   2.357
    1TCM    cl3 1863   3.167   4.091   2.372
    1TCM     c1 1864   1.584   2.928   2.362
    1TCM    cl1 1865   1.464   2.968   2.488
    1TCM    cl2 1866   1.694   3.066   2.340
    1TCM     h1 1867   1.642   2.839   2.394
    1TCM    cl3 1868   1.500   2.894   2.209
    1TCM     c1 1869   4.601   0.131   5.167
    1TCM    cl1 1870   4.663   0.288   5.110
    1TCM    cl2 1871   4.640   0.113   5.340
    1TCM     h1 1872   4.491   0.127   5.153
    1TCM    cl3 1873   4.678   0.000   5.075
    1TCM     c1 1874   4.141   4.990   2.385
    1TCM    cl1 1875   4.310   4.942   2.354
    1TCM    cl2 1876   4.132   5.078   2.539
    1TCM     h1 1877   4.106   5.056   2.302
    1TCM    cl3 1878   4.038   4.845   2.393
    1TCM     c1 1879   1.443   5.046   3.125
    1TCM    cl1 1880   1.449   5.143   2.976
    1TCM    cl2 1881   1.391   4.881   3.085
    1TCM     h1 1882   1.543   5.043   3.171
    1TCM    cl3 1883   1.327   5.119   3.238
    1TCM     c1 1884   3.448   5.047   3.712
    1TCM    cl1 1885   3.462   5.179   3.594
    1TCM    cl2 1886   3.485   5.109   3.875
    1TCM     h1 1887   3.344   5.007   3.711
    1TCM    cl3 1888   3.562   4.918   3.670
    1TCM     c1 1889   3.671   2.096   4.909
    1TCM    cl1 1890   3.665   1.957   5.019
    1TCM    cl2 1891   3.629   2.044   4.744
    1TCM     h1 1892   3.598   2.173   4.943
    1TCM    cl3 1893   3.834   2.166   4.910
    1TCM     c1 1894   4.848   4.209   2.552
    1TCM    cl1 1895   4.981   4.117   2.478
    1TCM    cl2 1896   4.913   4.358   2.624
    1TCM     h1 1897   4.773   4.235   2.474
    1TCM    cl3 1898   4.771   4.111   2.678
    1TCM     c1 1899   5.011   3.120   2.499
    1TCM    cl1 1900   5.157   3.163   2.408
    1TCM    cl2 1901   4.886   3.061   2.386
    1TCM     h1 1902   5.035   3.040   2.572
    1TCM    cl3 1903   4.950   3.263   2.585
    1TCM     c1 1904   0.506   3.282   0.998
    1TCM    cl1 1905   0.627   3.235   0.877
    1TCM    cl2 1906   0.572   3.411   1.101
    1TCM     h1 1907   0.414   3.318   0.947
    1TCM    cl3 1908   0.466   3.140   1.099
    1TCM     c1 1909   1.329   1.955   3.932
    1TCM    cl1 1910   1.246   1.834   3.831
    1TCM    cl2 1911   1.338   1.896   4.099
    1TCM     h1 1912   1.432   1.971   3.893
    1TCM    cl3 1913   1.239   2.108   3.928
    1TCM     c1 1914   4.081   3.562   1.296
    1TCM    cl1 1915   4.130   3.732   1.281
    1TCM    cl2 1916   4.212   3.468   1.372
    1TCM     h1 1917   3.990   3.555   1.358
    1TCM    cl3 1918   4.047   3.495   1.134
    1TCM     c1 1919   0.258   5.160   2.123
    1TCM    cl1 1920   0.086   5.194   2.094
    1TCM    cl2 1921   0.291   5.166   2.298
    1TCM     h1 1922   0.283   5.059   2.084
    1TCM    cl3 1923   0.357   5.282   2.040
    1TCM     c1 1924   1.427   1.709   4.124
    1TCM    cl1 1925   1.572   1.809   4.097
    1TCM    cl2 1926   1.316   1.729   3.987
    1TCM     h1 1927   1.456   1.603   4.132
    1TCM    cl3 1928   1.346   1.761   4.273
    1TCM     c1 1929   0.988   2.347   4.072
    1TCM    cl1 1930   0.910   2.244   4.195
    1TCM    cl2 1931   0.904   2.326   3.916
    1TCM     h1 1932   0.982   2.453   4.103
    1TCM    cl3 1933   1.158   2.299   4.054
    1TCM     c1 1934   1.647   2.373   1.510
    1TCM    cl1 1935   1.483   2.414   1.455
    1TCM    cl2 1936   1.680   2.454   1.664
    1TCM     h1 1937   1.656   2.263   1.523
    1TCM    cl3 1938   1.765   2.428   1.388
    1TCM     c1 1939   3.696   2.998   0.971
    1TCM    cl1 1940   3.620   3.051   0.819
    1TCM    cl2 1941   3.574   2.918   1.073
    1TCM     h1 1942   3.778   2.927   0.948
    1TCM    cl3 1943   3.761   3.140   1.057
    1TCM     c1 1944   3.671   5.003   3.007
    1TCM    cl1 1945   3.737   5.151   2.935
    1TCM    cl2 1946   3.697   5.006   3.183
    1TCM     h1 1947   3.562   4.997   2.986
    1TCM    cl3 1948   3.753   4.861   2.938
    1TCM     c1 1949   4.645   3.199   5.172
    1TCM    cl1 1950   4.666   3.255   5.339
    1TCM    cl2 1951   4.629   3.339   5.064
    1TCM     h1 1952   4.733   3.139   5.142
    1TCM    cl3 1953   4.498   3.099   5.161
    1TCM     c1 1954   4.504   2.865   2.988
    1TCM    cl1 1955   4.463   2.928   3.149
    1TCM    cl2 1956   4.420   2.961   2.864
    1TCM     h1 1957   4.614   2.872   2.972
    1TCM    cl3 1958   4.454   2.695   2.976
    1TCM     c1 1959   2.334   4.501   3.573
    1TCM    cl1 1960   2.444   4.632   3.622
    1TCM    cl2 1961   2.235   4.555   3.435
    1TCM     h1 1962   2.394   4.412   3.543
    1TCM    cl3 1963   2.228   4.458   3.709
    1TCM     c1 1964   3.582   2.258   0.910
    1TCM    cl1 1965   3.488   2.243   0.760
    1TCM    cl2 1966   3.577   2.104   0.999
    1TCM     h1 1967   3.687   2.284   0.886
    1TCM    cl3 1968   3.511   2.387   1.011
    1TCM     c1 1969   2.382   2.280   2.653
    1TCM    cl1 1970   2.507   2.176   2.581
    1TCM    cl2 1971   2.245   2.180   2.705
    1TCM     h1 1972   2.424   2.334   2.740
    1TCM    cl3 1973   2.327   2.398   2.531
    1TCM     c1 1974   2.934   2.926   3.460
    1TCM    cl1 1975   2.938   2.857   3.624
    1TCM    cl2 1976   2.827   3.068   3.458
    1TCM     h1 1977   3.036   2.957   3.429
    1TCM    cl3 1978   2.872   2.804   3.346
    1TCM     c1 1979   5.004   1.907   1.671
    1TCM    cl1 1980   5.154   1.905   1.576
    1TCM    cl2 1981   4.974   2.071   1.733
    1TCM     h1 1982   4.919   1.875   1.607
    1TCM    cl3 1983   5.019   1.794   1.808
    1TCM     c1 1984   1.287   1.579   3.431
    1TCM    cl1 1985   1.409   1.485   3.343
    1TCM    cl2 1986   1.338   1.598   3.601
    1TCM     h1 1987   1.276   1.679   3.384
    1TCM    cl3 1988   1.131   1.494   3.425
    1TCM     c1 1989   3.449   4.205   2.209
    1TCM    cl1 1990   3.518   4.177   2.371
    1TCM    cl2 1991   3.483   4.064   2.105
    1TCM     h1 1992   3.339   4.219   2.217
    1TCM    cl3 1993   3.522   4.350   2.137
    1TCM     c1 1994   2.081   3.605   0.441
    1TCM    cl1 1995   2.250   3.612   0.497
    1TCM    cl2 1996   1.977   3.695   0.555
    1TCM     h1 1997   2.073   3.649   0.340
    1TCM    cl3 1998   2.027   3.435   0.435
    1TCM     c1 1999   4.680   2.119   3.264
    1TCM    cl1 2000   4.555   2.184   3.373
    1TCM    cl2 2001   4.740   2.249   3.159
    1TCM     h1 2002   4.764   2.078   3.324
    1TCM    cl3 2003   4.610   1.989   3.164
    1TCM     c1 2004   2.417   3.867   1.400
    1TCM    cl1 2005   2.532   3.929   1.279
    1TCM    cl2 2006   2.449   3.944   1.557
    1TCM     h1 2007   2.313   3.889   1.368
    1TCM    cl3 2008   2.438   3.691   1.416
    1TCM     c1 2009   1.014   4.904   4.787
    1TCM    cl1 2010   1.095   5.003   4.911
    1TCM    cl2 2011   1.078   4.948   4.626
    1TCM     h1 2012   1.033   4.797   4.806
    1TCM    cl3 2013   0.839   4.936   4.791
    1TCM     c1 2014   3.618   3.182   3.670
    1TCM    cl1 2015   3.596   3.047   3.783
    1TCM    cl2 2016   3.791   3.196   3.629
    1TCM     h1 2017   3.560   3.164   3.578
    1TCM    cl3 2018   3.564   3.333   3.747
    1TCM     c1 2019   3.757   3.891   1.201
    1TCM    cl1 2020   3.764   4.038   1.101
    1TCM    cl2 2021   3.678   3.928   1.356
    1TCM     h1 2022   3.699   3.812   1.148
    1TCM    cl3 2023   3.922   3.832   1.231
    1TCM     c1 2024   2.546   1.154   4.052
    1TCM    cl1 2025   2.378   1.167   4.107
    1TCM    cl2 2026   2.565   1.238   3.897
    1TCM     h1 2027   2.613   1.201   4.128
    1TCM    cl3 2028   2.589   0.983   4.032
    1TCM     c1 2029   2.128   3.649   4.883
    1TCM    cl1 2030   2.115   3.600   4.712
    1TCM    cl2 2031   2.010   3.777   4.917
    1TCM     h1 2032   2.108   3.561   4.948
    1TCM    cl3 2033   2.292   3.710   4.914
    1TCM     c1 2034   4.273   3.835   3.164
    1TCM    cl1 2035   4.228   3.801   3.333
    1TCM    cl2 2036   4.220   3.701   3.060
    1TCM     h1 2037   4.225   3.929   3.131
    1TCM    cl3 2038   4.450   3.852   3.152
    1TCM     c1 2039   3.077   1.587   4.987
    1TCM    cl1 2040   3.188   1.692   4.895
    1TCM    cl2 2041   3.094   1.622   5.161
    1TCM     h1 2042   2.973   1.607   4.955
    1TCM    cl3 2043   3.117   1.417   4.956
    1TCM     c1 2044   0.661   0.479   4.300
    1TCM    cl1 2045   0.576   0.636   4.296
    1TCM    cl2 2046   0.831   0.506   4.343
    1TCM     h1 2047   0.613   0.414   4.376
    1TCM    cl3 2048   0.651   0.403   4.140
    1TCM     c1 2049   2.032   1.822   0.924
    1TCM    cl1 2050   2.101   1.985   0.940
    1TCM    cl2 2051   1.987   1.761   1.086
    1TCM     h1 2052   1.941   1.826   0.860
    1TCM    cl3 2053   2.152   1.713   0.852
    1TCM     c1 2054   2.815   0.061   2.715
    1TCM    cl1 2055   2.913   0.052   2.567
    1TCM    cl2 2056   2.651   0.000   2.681
    1TCM     h1 2057   2.862   0.000   2.794
    1TCM    cl3 2058   2.805   0.231   2.768
    1TCM     c1 2059   2.708   4.570   2.488
    1TCM    cl1 2060   2.582   4.673   2.559
    1TCM    cl2 2061   2.762   4.641   2.333
    1TCM     h1 2062   2.795   4.564   2.557
    1TCM    cl3 2063   2.644   4.407   2.459
    1TCM     c1 2064   0.692   0.999   2.262
    1TCM    cl1 2065   0.600   1.073   2.396
    1TCM    cl2 2066   0.726   1.122   2.139
    1TCM     h1 2067   0.788   0.958   2.301
    1TCM    cl3 2068   0.596   0.868   2.190
    1TCM     c1 2069   2.379   4.345   3.127
    1TCM    cl1 2070   2.279   4.490   3.103
    1TCM    cl2 2071   2.522   4.387   3.225
    1TCM     h1 2072   2.320   4.267   3.180
    1TCM    cl3 2073   2.432   4.282   2.969
    1TCM     c1 2074   4.250   1.885   4.789
    1TCM    cl1 2075   4.290   1.772   4.658
    1TCM    cl2 2076   4.272   1.803   4.946
    1TCM     h1 2077   4.317   1.973   4.784
    1TCM    cl3 2078   4.081   1.937   4.773
    1TCM     c1 2079   0.334   0.579   0.270
    1TCM    cl1 2080   0.352   0.497   0.114
    1TCM    cl2 2081   0.228   0.721   0.250
    1TCM     h1 2082   0.288   0.509   0.343
    1TCM    cl3 2083   0.493   0.632   0.329
    1TCM     c1 2084   4.010   3.707   5.023
    1TCM    cl1 2085   3.974   3.534   5.004
    1TCM    cl2 2086   4.183   3.728   5.061
    1TCM     h1 2087   3.987   3.760   4.928
    1TCM    cl3 2088   3.912   3.774   5.154
    1TCM     c1 2089   2.025   2.352   2.658
    1TCM    cl1 2090   2.158   2.444   2.733
    1TCM    cl2 2091   1.963   2.442   2.518
    1TCM     h1 2092   2.063   2.253   2.625
    1TCM    cl3 2093   1.895   2.330   2.777
    1TCM     c1 2094   2.195   4.173   1.511
    1TCM    cl1 2095   2.083   4.205   1.646
    1TCM    cl2 2096   2.362   4.201   1.565
    1TCM     h1 2097   2.183   4.068   1.477
    1TCM    cl3 2098   2.157   4.283   1.376
    1TCM     c1 2099   2.878   2.258   3.351
    1TCM    cl1 2100   2.700   2.263   3.359
    1TCM    cl2 2101   2.939   2.418   3.305
    1TCM     h1 2102   2.918   2.230   3.450
    1TCM    cl3 2103   2.928   2.138   3.229
    1TCM     c1 2104   2.684   4.612   0.643
    1TCM    cl1 2105   2.641   4.509   0.505
    1TCM    cl2 2106   2.646   4.527   0.795
    1TCM     h1 2107   2.792   4.635   0.640
    1TCM    cl3 2108   2.590   4.763   0.635
    1TCM     c1 2109   2.819   2.352   4.713
    1TCM    cl1 2110   2.796   2.269   4.868
    1TCM    cl2 2111   2.771   2.243   4.580
    1TCM     h1 2112   2.756   2.443   4.710
    1TCM    cl3 2113   2.990   2.396   4.694
    1TCM     c1 2114   1.561   3.334   2.727
    1TCM    cl1 2115   1.423   3.332   2.840
    1TCM    cl2 2116   1.622   3.500   2.713
    1TCM     h1 2117   1.641   3.268   2.766
    1TCM    cl3 2118   1.508   3.277   2.568
    1TCM     c1 2119   0.688   4.221   4.878
    1TCM    cl1 2120   0.852   4.228   4.947
    1TCM    cl2 2121   0.568   4.211   5.009
    1TCM     h1 2122   0.670   4.312   4.817
    1TCM    cl3 2123   0.674   4.077   4.774
    1TCM     c1 2124   0.210   2.359   1.869
    1TCM    cl1 2125   0.089   2.408   1.748
    1TCM    cl2 2126   0.147   2.391   2.032
    1TCM     h1 2127   0.231   2.250   1.858
    1TCM    cl3 2128   0.360   2.451   1.844
    1TCM     c1 2129   4.369   1.050   4.207
    1TCM    cl1 2130   4.374   1.204   4.296
    1TCM    cl2 2131   4.496   1.049   4.083
    1TCM     h1 2132   4.384   0.966   4.277
    1TCM    cl3 2133   4.210   1.033   4.128
    1TCM     c1 2134   3.178   1.733   3.241
    1TCM    cl1 2135   3.073   1.827   3.350
    1TCM    cl2 2136   3.187   1.814   3.083
    1TCM     h1 2137   3.279   1.725   3.285
    1TCM    cl3 2138   3.109   1.570   3.220
    1TCM     c1 2139   1.966   1.662   4.218
    1TCM    cl1 2140   1.879   1.738   4.082
    1TCM    cl2 2141   1.883   1.700   4.370
    1TCM     h1 2142   1.967   1.552   4.203
    1TCM    cl3 2143   2.132   1.724   4.224
    1TCM     c1 2144   3.197   1.336   3.786
    1TCM    cl1 2145   3.142   1.167   3.785
    1TCM    cl2 2146   3.197   1.399   3.620
    1TCM     h1 2147   3.128   1.396   3.849
    1TCM    cl3 2148   3.361   1.345   3.854
    1TCM     c1 2149   1.681   0.421   3.697
    1TCM    cl1 2150   1.704   0.391   3.524
    1TCM    cl2 2151   1.834   0.389   3.783
    1TCM     h1 2152   1.652   0.527   3.713
    1TCM    cl3 2153   1.554   0.315   3.761
    1TCM     c1 2154   2.295   4.198   1.181
    1TCM    cl1 2155   2.446   4.111   1.218
    1TCM    cl2 2156   2.299   4.359   1.257
    1TCM     h1 2157   2.285   4.209   1.071
    1TCM    cl3 2158   2.157   4.106   1.244
    1TCM     c1 2159   3.467   1.815   4.460
    1TCM    cl1 2160   3.539   1.704   4.343
    1TCM    cl2 2161   3.361   1.724   4.570
    1TCM     h1 2162   3.547   1.865   4.519
    1TCM    cl3 2163   3.371   1.938   4.374
    1TCM     c1 2164   2.240   3.740   4.190
    1TCM    cl1 2165   2.371   3.808   4.288
    1TCM    cl2 2166   2.266   3.783   4.019
    1TCM     h1 2167   2.239   3.629   4.201
    1TCM    cl3 2168   2.084   3.806   4.244
    1TCM     c1 2169   3.159   0.986   4.945
    1TCM    cl1 2170   3.251   0.934   4.802
    1TCM    cl2 2171   3.229   1.136   5.010
    1TCM     h1 2172   3.053   1.003   4.916
    1TCM    cl3 2173   3.167   0.859   5.069
    1TCM     c1 2174   3.139   2.817   2.470
    1TCM    cl1 2175   3.061   2.855   2.315
    1TCM    cl2 2176   3.311   2.781   2.442
    1TCM     h1 2177   3.130   2.904   2.539
    1TCM    cl3 2178   3.060   2.675   2.543
    1TCM     c1 2179   4.769   4.207   0.840
    1TCM    cl1 2180   4.833   4.360   0.777
    1TCM    cl2 2181   4.839   4.175   1.000
    1TCM     h1 2182   4.659   4.214   0.849
    1TCM    cl3 2183   4.812   4.075   0.729
    1TCM     c1 2184   2.068   2.935   4.432
    1TCM    cl1 2185   2.072   2.757   4.428
    1TCM    cl2 2186   2.105   2.991   4.597
    1TCM     h1 2187   2.144   2.975   4.362
    1TCM    cl3 2188   1.907   2.992   4.385
    1TCM     c1 2189   2.601   4.097   4.432
    1TCM    cl1 2190   2.486   3.980   4.365
    1TCM    cl2 2191   2.766   4.056   4.379
    1TCM     h1 2192   2.575   4.199   4.397
    1TCM    cl3 2193   2.593   4.093   4.610
    1TCM     c1 2194   4.442   5.144   2.635
    1TCM    cl1 2195   4.455   5.224   2.793
    1TCM    cl2 2196   4.362   4.986   2.655
    1TCM     h1 2197   4.382   5.207   2.566
    1TCM    cl3 2198   4.604   5.120   2.567
    1TCM     c1 2199   1.960   3.604   2.018
    1TCM    cl1 2200   1.802   3.549   1.957
    1TCM    cl2 2201   2.033   3.475   2.116
    1TCM     h1 2202   2.027   3.626   1.932
    1TCM    cl3 2203   1.939   3.750   2.117
    1TCM     c1 2204   3.459   0.717   1.121
    1TCM    cl1 2205   3.571   0.814   1.023
    1TCM    cl2 2206   3.471   0.546   1.074
    1TCM     h1 2207   3.485   0.728   1.229
    1TCM    cl3 2208   3.292   0.774   1.094
    1TCM     c1 2209   0.267   3.763   2.998
    1TCM    cl1 2210   0.356   3.916   2.999
    1TCM    cl2 2211   0.350   3.646   2.892
    1TCM     h1 2212   0.262   3.722   3.101
    1TCM    cl3 2213   0.102   3.790   2.938
    1TCM     c1 2214   2.876   2.728   4.869
    1TCM    cl1 2215   2.840   2.724   4.695
    1TCM    cl2 2216   2.777   2.607   4.953
    1TCM     h1 2217   2.983   2.706   4.885
    1TCM    cl3 2218   2.839   2.890   4.933
    1TCM     c1 2219   2.266   0.716   0.574
    1TCM    cl1 2220   2.356   0.869   0.570
    1TCM    cl2 2221   2.158   0.707   0.433
    1TCM     h1 2222   2.337   0.631   0.571
    1TCM    cl3 2223   2.170   0.708   0.723
    1TCM     c1 2224   3.068   0.464   2.043
    1TCM    cl1 2225   3.221   0.533   2.102
    1TCM    cl2 2226   2.984   0.584   1.942
    1TCM     h1 2227   3.090   0.373   1.982
    1TCM    cl3 2228   2.965   0.420   2.181
    1TCM     c1 2229   1.778   3.541   4.659
    1TCM    cl1 2230   1.913   3.649   4.618
    1TCM    cl2 2231   1.808   3.466   4.818
    1TCM     h1 2232   1.683   3.599   4.663
    1TCM    cl3 2233   1.763   3.413   4.536
    1TCM     c1 2234   0.951   2.180   0.615
    1TCM    cl1 2235   0.938   2.102   0.775
    1TCM    cl2 2236   0.925   2.355   0.632
    1TCM     h1 2237   1.053   2.161   0.574
    1TCM    cl3 2238   0.829   2.112   0.505
    1TCM     c1 2239   2.885   0.150   3.471
    1TCM    cl1 2240   2.867   0.111   3.643
    1TCM    cl2 2241   2.879   0.000   3.375
    1TCM     h1 2242   2.803   0.217   3.440
    1TCM    cl3 2243   3.042   0.230   3.444
    1TCM     c1 2244   2.184   3.060   1.141
    1TCM    cl1 2245   2.291   3.049   1.282
    1TCM    cl2 2246   2.019   3.011   1.187
    1TCM     h1 2247   2.182   3.165   1.104
    1TCM    cl3 2248   2.244   2.953   1.012
    1TCM     c1 2249   3.164   5.246   4.075
    1TCM    cl1 2250   3.144   5.109   4.187
    1TCM    cl2 2251   3.073   5.215   3.926
    1TCM     h1 2252   3.126   5.339   4.123
    1TCM    cl3 2253   3.337   5.267   4.037
    1TCM     c1 2254   2.988   3.315   0.108
    1TCM    cl1 2255   2.834   3.301   0.020
    1TCM    cl2 2256   3.112   3.383   0.000
    1TCM     h1 2257   2.975   3.381   0.196
    1TCM    cl3 2258   3.040   3.154   0.163
    1TCM     c1 2259   0.241   0.296   4.158
    1TCM    cl1 2260   0.139   0.163   4.219
    1TCM    cl2 2261   0.410   0.267   4.204
    1TCM     h1 2262   0.233   0.301   4.047
    1TCM    cl3 2263   0.186   0.450   4.228
    1TCM     c1 2264   2.517   2.587   4.045
    1TCM    cl1 2265   2.344   2.591   4.087
    1TCM    cl2 2266   2.610   2.672   4.171
    1TCM     h1 2267   2.552   2.482   4.038
    1TCM    cl3 2268   2.542   2.668   3.889
    1TCM     c1 2269   0.745   1.396   0.193
    1TCM    cl1 2270   0.609   1.345   0.296
    1TCM    cl2 2271   0.684   1.436   0.031
    1TCM     h1 2272   0.793   1.485   0.237
    1TCM    cl3 2273   0.863   1.264   0.182
    1TCM     c1 2274   4.805   2.980   1.964
    1TCM    cl1 2275   4.816   3.005   1.788
    1TCM    cl2 2276   4.699   2.842   1.997
    1TCM     h1 2277   4.907   2.960   2.004
    1TCM    cl3 2278   4.739   3.126   2.041
    1TCM     c1 2279   3.115   3.244   0.584
    1TCM    cl1 2280   3.064   3.402   0.650
    1TCM    cl2 2281   3.265   3.192   0.665
    1TCM     h1 2282   3.035   3.169   0.602
    1TCM    cl3 2283   3.144   3.259   0.410
    1TCM     c1 2284   2.584   4.881   1.576
    1TCM    cl1 2285   2.566   4.808   1.737
    1TCM    cl2 2286   2.595   5.058   1.592
    1TCM     h1 2287   2.676   4.843   1.528
    1TCM    cl3 2288   2.443   4.840   1.476
    1TCM     c1 2289   2.711   4.088   4.880
    1TCM    cl1 2290   2.863   4.040   4.802
    1TCM    cl2 2291   2.721   4.055   5.055
    1TCM     h1 2292   2.693   4.196   4.864
    1TCM    cl3 2293   2.576   3.995   4.811
    1TCM     c1 2294   3.973   3.959   2.746
    1TCM    cl1 2295   4.063   4.027   2.883
    1TCM    cl2 2296   4.034   4.030   2.594
    1TCM     h1 2297   3.987   3.849   2.743
    1TCM    cl3 2298   3.800   3.996   2.763
    1TCM     c1 2299   5.117   1.202   0.245
    1TCM    cl1 2300   5.020   1.180   0.097
    1TCM    cl2 2301   5.211   1.054   0.276
    1TCM     h1 2302   5.186   1.287   0.232
    1TCM    cl3 2303   5.009   1.233   0.383
    1TCM     c1 2304   4.905   2.382   0.637
    1TCM    cl1 2305   4.729   2.403   0.638
    1TCM    cl2 2306   4.983   2.532   0.583
    1TCM     h1 2307   4.940   2.356   0.739
    1TCM    cl3 2308   4.949   2.250   0.525
    1TCM     c1 2309   4.137   0.512   3.167
    1TCM    cl1 2310   4.120   0.686   3.135
    1TCM    cl2 2311   4.059   0.472   3.322
    1TCM     h1 2312   4.089   0.454   3.086
    1TCM    cl3 2313   4.310   0.470   3.175
    1TCM     c1 2314   4.808   2.358   0.186
    1TCM    cl1 2315   4.974   2.398   0.236
    1TCM    cl2 2316   4.805   2.192   0.123
    1TCM     h1 2317   4.740   2.366   0.273
    1TCM    cl3 2318   4.756   2.471   0.059
    1TCM     c1 2319   2.933   1.393   3.604
    1TCM    cl1 2320   3.004   1.231   3.624
    1TCM    cl2 2321   2.963   1.451   3.438
    1TCM     h1 2322   2.823   1.388   3.621
    1TCM    cl3 2323   3.006   1.505   3.720
    1TCM     c1 2324   2.815   4.419   4.674
    1TCM    cl1 2325   2.642   4.405   4.634
    1TCM    cl2 2326   2.881   4.258   4.709
    1TCM     h1 2327   2.869   4.464   4.589
    1TCM    cl3 2328   2.834   4.523   4.817
    1TCM     c1 2329   1.507   5.229   0.597
    1TCM    cl1 2330   1.502   5.340   0.458
    1TCM    cl2 2331   1.662   5.142   0.597
    1TCM     h1 2332   1.496   5.286   0.691
    1TCM    cl3 2333   1.374   5.111   0.584
    1TCM     c1 2334   1.475   3.335   4.497
    1TCM    cl1 2335   1.562   3.384   4.643
    1TCM    cl2 2336   1.552   3.408   4.354
    1TCM     h1 2337   1.478   3.224   4.488
    1TCM    cl3 2338   1.306   3.389   4.507
    1TCM     c1 2339   1.046   2.254   2.505
    1TCM    cl1 2340   0.875   2.258   2.555
    1TCM    cl2 2341   1.058   2.294   2.332
    1TCM     h1 2342   1.103   2.329   2.565
    1TCM    cl3 2343   1.112   2.092   2.534
    1TCM     c1 2344   1.520   1.466   0.400
    1TCM    cl1 2345   1.595   1.584   0.510
    1TCM    cl2 2346   1.635   1.426   0.270
    1TCM     h1 2347   1.495   1.374   0.457
    1TCM    cl3 2348   1.372   1.535   0.330
    1TCM     c1 2349   0.339   5.216   3.252
    1TCM    cl1 2350   0.260   5.165   3.101
    1TCM    cl2 2351   0.513   5.239   3.222
    1TCM     h1 2352   0.295   5.312   3.287
    1TCM    cl3 2353   0.316   5.091   3.376
    1TCM     c1 2354   2.820   3.983   0.317
    1TCM    cl1 2355   2.653   3.925   0.292
    1TCM    cl2 2356   2.834   4.150   0.259
    1TCM     h1 2357   2.844   3.980   0.425
    1TCM    cl3 2358   2.933   3.879   0.227
    1TCM     c1 2359   5.052   1.815   0.943
    1TCM    cl1 2360   5.133   1.923   1.059
    1TCM    cl2 2361   5.144   1.663   0.930
    1TCM     h1 2362   4.950   1.793   0.978
    1TCM    cl3 2363   5.045   1.894   0.784
    1TCM     c1 2364   3.281   4.767   4.083
    1TCM    cl1 2365   3.289   4.865   3.934
    1TCM    cl2 2366   3.152   4.646   4.067
    1TCM     h1 2367   3.378   4.716   4.098
    1TCM    cl3 2368   3.247   4.873   4.222
    1TCM     c1 2369   4.347   3.831   4.907
    1TCM    cl1 2370   4.272   3.671   4.889
    1TCM    cl2 2371   4.397   3.854   5.076
    1TCM     h1 2372   4.436   3.837   4.841
    1TCM    cl3 2373   4.231   3.957   4.861
    1TCM     c1 2374   2.879   0.492   1.734
    1TCM    cl1 2375   2.935   0.660   1.749
    1TCM    cl2 2376   2.783   0.450   1.878
    1TCM     h1 2377   2.816   0.482   1.643
    1TCM    cl3 2378   3.019   0.383   1.722
    1TCM     c1 2379   4.844   5.031   4.335
    1TCM    cl1 2380   4.749   5.041   4.485
    1TCM    cl2 2381   4.758   4.930   4.216
    1TCM     h1 2382   4.858   5.133   4.293
    1TCM    cl3 2383   5.002   4.958   4.370
    1TCM     c1 2384   4.011   1.031   1.952
    1TCM    cl1 2385   3.910   0.969   2.084
    1TCM    cl2 2386   4.007   1.208   1.951
    1TCM     h1 2387   4.115   0.996   1.965
    1TCM    cl3 2388   3.948   0.970   1.797
    1TCM     c1 2389   2.323   4.759   2.397
    1TCM    cl1 2390   2.366   4.605   2.318
    1TCM    cl2 2391   2.264   4.726   2.562
    1TCM     h1 2392   2.413   4.824   2.402
    1TCM    cl3 2393   2.196   4.840   2.304
    1TCM     c1 2394   2.087   2.619   0.573
    1TCM    cl1 2395   2.006   2.502   0.679
    1TCM    cl2 2396   2.125   2.541   0.417
    1TCM     h1 2397   2.021   2.706   0.555
    1TCM    cl3 2398   2.238   2.674   0.650
    1TCM     c1 2399   2.183   4.730   0.381
    1TCM    cl1 2400   2.324   4.658   0.299
    1TCM    cl2 2401   2.091   4.829   0.266
    1TCM     h1 2402   2.119   4.649   0.421
    1TCM    cl3 2403   2.240   4.832   0.516
    1TCM     c1 2404   3.578   1.107   2.302
    1TCM    cl1 2405   3.656   1.181   2.443
    1TCM    cl2 2406   3.674   1.140   2.156
    1TCM     h1 2407   3.570   0.998   2.317
    1TCM    cl3 2408   3.415   1.176   2.281
    1TCM     c1 2409   3.766   4.039   0.838
    1TCM    cl1 2410   3.731   4.103   0.676
    1TCM    cl2 2411   3.883   3.905   0.825
    1TCM     h1 2412   3.810   4.119   0.901
    1TCM    cl3 2413   3.616   3.980   0.913
    1TCM     c1 2414   1.785   4.335   2.141
    1TCM    cl1 2415   1.931   4.253   2.081
    1TCM    cl2 2416   1.823   4.418   2.293
    1TCM     h1 2417   1.751   4.409   2.065
    1TCM    cl3 2418   1.657   4.215   2.168
    1TCM     c1 2419   5.049   2.790   3.011
    1TCM    cl1 2420   4.906   2.763   2.908
    1TCM    cl2 2421   5.012   2.741   3.178
    1TCM     h1 2422   5.134   2.730   2.972
    1TCM    cl3 2423   5.092   2.963   3.008
    1TCM     c1 2424   1.040   4.805   3.391
    1TCM    cl1 2425   1.205   4.827   3.452
    1TCM    cl2 2426   1.043   4.702   3.246
    1TCM     h1 2427   0.978   4.756   3.469
    1TCM    cl3 2428   0.970   4.963   3.350
    1TCM     c1 2429   0.769   4.338   0.532
    1TCM    cl1 2430   0.697   4.347   0.694
    1TCM    cl2 2431   0.936   4.399   0.538
    1TCM     h1 2432   0.769   4.233   0.497
    1TCM    cl3 2433   0.674   4.438   0.420
    1TCM     c1 2434   3.120   2.642   0.910
    1TCM    cl1 2435   3.268   2.717   0.844
    1TCM    cl2 2436   3.108   2.678   1.084
    1TCM     h1 2437   3.032   2.682   0.857
    1TCM    cl3 2438   3.128   2.466   0.887
    1TCM     c1 2439   0.620   1.994   2.491
    1TCM    cl1 2440   0.463   1.944   2.559
    1TCM    cl2 2441   0.746   1.982   2.616
    1TCM     h1 2442   0.646   1.927   2.406
    1TCM    cl3 2443   0.609   2.162   2.433
    1TCM     c1 2444   2.612   0.784   4.995
    1TCM    cl1 2445   2.625   0.833   4.824
    1TCM    cl2 2446   2.741   0.863   5.088
    1TCM     h1 2447   2.513   0.814   5.035
    1TCM    cl3 2448   2.630   0.607   5.007
    1TCM     c1 2449   0.421   4.323   4.213
    1TCM    cl1 2450   0.521   4.460   4.158
    1TCM    cl2 2451   0.251   4.375   4.226
    1TCM     h1 2452   0.429   4.240   4.141
    1TCM    cl3 2453   0.478   4.269   4.373
    1TCM     c1 2454   5.003   3.977   1.583
    1TCM    cl1 2455   5.051   4.069   1.728
    1TCM    cl2 2456   4.969   3.808   1.629
    1TCM     h1 2457   4.912   4.022   1.539
    1TCM    cl3 2458   5.135   3.980   1.465
    1TCM     c1 2459   2.592   2.307   0.424
    1TCM    cl1 2460   2.651   2.256   0.583
    1TCM    cl2 2461   2.466   2.195   0.368
    1TCM     h1 2462   2.550   2.410   0.431
    1TCM    cl3 2463   2.727   2.307   0.307
    1TCM     c1 2464   5.186   5.045   3.596
    1TCM    cl1 2465   5.158   5.174   3.477
    1TCM    cl2 2466   5.240   5.117   3.750
    1TCM     h1 2467   5.092   4.989   3.613
    1TCM    cl3 2468   5.312   4.935   3.536
    1TCM     c1 2469   3.351   2.500   2.148
    1TCM    cl1 2470   3.443   2.651   2.169
    1TCM    cl2 2471   3.200   2.534   2.061
    1TCM     h1 2472   3.411   2.428   2.089
    1TCM    cl3 2473   3.313   2.431   2.307
    1TCM     c1 2474   4.064   1.271   5.181
    1TCM    cl1 2475   4.076   1.161   5.042
    1TCM    cl2 2476   4.228   1.311   5.238
    1TCM     h1 2477   4.012   1.365   5.150
    1TCM    cl3 2478   3.974   1.193   5.312
    1TCM     c1 2479   1.042   2.172   4.644
    1TCM    cl1 2480   1.146   2.242   4.770
    1TCM    cl2 2481   1.063   1.995   4.641
    1TCM     h1 2482   0.936   2.197   4.666
    1TCM    cl3 2483   1.087   2.240   4.486
    1TCM     c1 2484   0.398   0.351   2.177
    1TCM    cl1 2485   0.413   0.526   2.208
    1TCM    cl2 2486   0.417   0.320   2.003
    1TCM     h1 2487   0.476   0.296   2.233
    1TCM    cl3 2488   0.237   0.296   2.230
    1TCM     c1 2489   3.806   0.421   1.200
    1TCM    cl1 2490   3.773   0.312   1.336
    1TCM    cl2 2491   3.728   0.357   1.053
    1TCM     h1 2492   3.766   0.521   1.222
    1TCM    cl3 2493   3.981   0.431   1.173
    1TCM     c1 2494   3.168   2.302   3.615
    1TCM    cl1 2495   3.318   2.221   3.663
    1TCM    cl2 2496   3.036   2.183   3.605
    1TCM     h1 2497   3.141   2.380   3.690
    1TCM    cl3 2498   3.190   2.379   3.456
    1TCM     c1 2499   3.749   2.891   3.559
    1TCM    cl1 2500   3.837   2.748   3.501
    1TCM    cl2 2501   3.789   3.030   3.455
    1TCM     h1 2502   3.640   2.872   3.554
    1TCM    cl3 2503   3.796   2.926   3.727
    1TCM     c1 2504   3.216   4.450   1.803
    1TCM    cl1 2505   3.126   4.355   1.923
    1TCM    cl2 2506   3.235   4.355   1.654
    1TCM     h1 2507   3.160   4.543   1.780
    1TCM    cl3 2508   3.376   4.491   1.868
    1TCM     c1 2509   0.343   2.720   1.765
    1TCM    cl1 2510   0.431   2.871   1.798
    1TCM    cl2 2511   0.412   2.642   1.621
    1TCM     h1 2512   0.352   2.652   1.852
    1TCM    cl3 2513   0.171   2.756   1.736
    1TCM     c1 2514   1.085   3.742   4.195
    1TCM    cl1 2515   1.136   3.605   4.297
    1TCM    cl2 2516   1.074   3.689   4.026
    1TCM     h1 2517   0.986   3.778   4.229
    1TCM    cl3 2518   1.204   3.873   4.209
    1TCM     c1 2519   0.056   2.901   1.410
    1TCM    cl1 2520   0.027   3.068   1.466
    1TCM    cl2 2521   0.230   2.865   1.418
    1TCM     h1 2522  -0.000   2.830   1.474
    1TCM    cl3 2523  -0.000   2.885   1.242
    1TCM     c1 2524   3.640   1.319   1.445
    1TCM    cl1 2525   3.609   1.191   1.327
    1TCM    cl2 2526   3.613   1.256   1.610
    1TCM     h1 2527   3.745   1.354   1.436
    1TCM    cl3 2528   3.530   1.456   1.416
    1TCM     c1 2529   3.493   1.735   4.786
    1TCM    cl1 2530   3.421   1.577   4.824
    1TCM    cl2 2531   3.611   1.715   4.655
    1TCM     h1 2532   3.413   1.805   4.754
    1TCM    cl3 2533   3.574   1.800   4.930
    1TCM     c1 2534   0.688   3.987   4.302
    1TCM    cl1 2535   0.587   3.999   4.448
    1TCM    cl2 2536   0.851   4.049   4.338
    1TCM     h1 2537   0.695   3.882   4.270
    1TCM    cl3 2538   0.615   4.084   4.172
    1TCM     c1 2539   3.623   3.218   5.168
    1TCM    cl1 2540   3.458   3.280   5.139
    1TCM    cl2 2541   3.626   3.126   5.320
    1TCM     h1 2542   3.653   3.152   5.084
    1TCM    cl3 2543   3.736   3.355   5.180
    1TCM     c1 2544   5.085   3.578   4.312
    1TCM    cl1 2545   5.126   3.499   4.158
    1TCM    cl2 2546   4.974   3.474   4.405
    1TCM     h1 2547   5.177   3.595   4.371
    1TCM    cl3 2548   5.006   3.734   4.279
    1TCM     c1 2549   4.406   1.167   0.301
    1TCM    cl1 2550   4.581   1.188   0.273
    1TCM    cl2 2551   4.342   1.045   0.188
    1TCM     h1 2552   4.389   1.134   0.405
    1TCM    cl3 2553   4.323   1.322   0.273
    1TCM     c1 2554   0.810   2.965   5.226
    1TCM    cl1 2555   0.979   2.909   5.234
    1TCM    cl2 2556   0.708   2.837   5.159
    1TCM     h1 2557   0.775   2.991   5.328
    1TCM    cl3 2558   0.801   3.109   5.122
    1TCM     c1 2559   4.409   1.385   4.928
    1TCM    cl1 2560   4.244   1.405   4.864
    1TCM    cl2 2561   4.466   1.220   4.896
    1TCM     h1 2562   4.476   1.458   4.879
    1TCM    cl3 2563   4.408   1.415   5.103
    1TCM     c1 2564   4.781   2.160   3.812
    1TCM    cl1 2565   4.641   2.191   3.707
    1TCM    cl2 2566   4.912   2.089   3.716
    1TCM     h1 2567   4.815   2.256   3.856
    1TCM    cl3 2568   4.734   2.048   3.942
    1TCM     c1 2569   3.623   0.820   3.980
    1TCM    cl1 2570   3.562   0.959   3.888
    1TCM    cl2 2571   3.569   0.833   4.149
    1TCM     h1 2572   3.583   0.726   3.936
    1TCM    cl3 2573   3.800   0.817   3.975
    1TCM     c1 2574   3.961   3.823   1.504
    1TCM    cl1 2575   4.069   3.683   1.519
    1TCM    cl2 2576   3.802   3.769   1.445
    1TCM     h1 2577   3.949   3.871   1.603
    1TCM    cl3 2578   4.030   3.940   1.390
    1TCM     c1 2579   0.517   0.111   1.423
    1TCM    cl1 2580   0.642   0.032   1.521
    1TCM    cl2 2581   0.530   0.056   1.254
    1TCM     h1 2582   0.416   0.085   1.462
    1TCM    cl3 2583   0.539   0.288   1.429
    1TCM     c1 2584   2.171   3.970   3.658
    1TCM    cl1 2585   2.192   3.943   3.832
    1TCM    cl2 2586   2.308   4.065   3.595
    1TCM     h1 2587   2.167   3.872   3.605
    1TCM    cl3 2588   2.020   4.058   3.630
    1TCM     c1 2589   4.524   3.954   1.316
    1TCM    cl1 2590   4.357   3.991   1.365
    1TCM    cl2 2591   4.573   3.799   1.388
    1TCM     h1 2592   4.529   3.948   1.205
    1TCM    cl3 2593   4.632   4.083   1.373
    1TCM     c1 2594   3.186   4.347   4.586
    1TCM    cl1 2595   3.063   4.424   4.689
    1TCM    cl2 2596   3.175   4.415   4.422
    1TCM     h1 2597   3.286   4.367   4.628
    1TCM    cl3 2598   3.157   4.172   4.580
    1TCM     c1 2599   1.917   1.993   4.829
    1TCM    cl1 2600   1.865   2.151   4.766
    1TCM    cl2 2601   1.906   1.994   5.006
    1TCM     h1 2602   1.850   1.914   4.788
    1TCM    cl3 2603   2.084   1.962   4.779
    1TCM     c1 2604   1.519   3.672   1.941
    1TCM    cl1 2605   1.375   3.601   1.864
    1TCM    cl2 2606   1.469   3.766   2.084
    1TCM     h1 2607   1.588   3.591   1.973
    1TCM    cl3 2608   1.602   3.779   1.826
    1TCM     c1 2609   1.921   0.075   1.579
    1TCM    cl1 2610   1.880   0.000   1.735
    1TCM    cl2 2611   2.089   0.131   1.582
    1TCM     h1 2612   1.908   0.000   1.498
    1TCM    cl3 2613   1.813   0.213   1.549
    1TCM     c1 2614   4.243   4.370   3.739
    1TCM    cl1 2615   4.248   4.367   3.561
    1TCM    cl2 2616   4.172   4.219   3.799
    1TCM     h1 2617   4.347   4.381   3.779
    1TCM    cl3 2618   4.145   4.508   3.794
    1TCM     c1 2619   0.601   1.077   3.839
    1TCM    cl1 2620   0.694   1.132   3.980
    1TCM    cl2 2621   0.506   1.212   3.774
    1TCM     h1 2622   0.671   1.039   3.761
    1TCM    cl3 2623   0.491   0.946   3.888
    1TCM     c1 2624   1.738   4.431   0.563
    1TCM    cl1 2625   1.789   4.260   0.564
    1TCM    cl2 2626   1.594   4.449   0.460
    1TCM     h1 2627   1.713   4.463   0.666
    1TCM    cl3 2628   1.870   4.531   0.499
    1TCM     c1 2629   5.265   1.821   0.779
    1TCM    cl1 2630   5.127   1.717   0.738
    1TCM    cl2 2631   5.210   1.958   0.877
    1TCM     h1 2632   5.340   1.762   0.836
    1TCM    cl3 2633   5.340   1.882   0.629
    1TCM     c1 2634   0.170   4.639   3.972
    1TCM    cl1 2635   0.269   4.506   3.908
    1TCM    cl2 2636   0.251   4.709   4.114
    1TCM     h1 2637   0.158   4.717   3.894
    1TCM    cl3 2638   0.010   4.577   4.019
    1TCM     c1 2639   4.404   1.709   5.203
    1TCM    cl1 2640   4.549   1.763   5.291
    1TCM    cl2 2641   4.442   1.691   5.031
    1TCM     h1 2642   4.370   1.612   5.244
    1TCM    cl3 2643   4.275   1.830   5.223
    1TCM     c1 2644   0.518   0.739   2.744
    1TCM    cl1 2645   0.434   0.655   2.611
    1TCM    cl2 2646   0.471   0.665   2.899
    1TCM     h1 2647   0.627   0.729   2.730
    1TCM    cl3 2648   0.472   0.910   2.743
    1TCM     c1 2649   0.362   2.127   2.228
    1TCM    cl1 2650   0.204   2.074   2.290
    1TCM    cl2 2651   0.345   2.179   2.059
    1TCM     h1 2652   0.399   2.211   2.289
    1TCM    cl3 2653   0.478   1.992   2.237
    1TCM     c1 2654   3.651   2.187   1.615
    1TCM    cl1 2655   3.598   2.269   1.467
    1TCM    cl2 2656   3.681   2.015   1.581
    1TCM     h1 2657   3.744   2.234   1.653
    1TCM    cl3 2658   3.523   2.201   1.739
    1TCM     c1 2659   2.805   0.969   4.352
    1TCM    cl1 2660   2.684   1.014   4.230
    1TCM    cl2 2661   2.723   0.903   4.495
    1TCM     h1 2662   2.873   0.892   4.310
    1TCM    cl3 2663   2.899   1.113   4.398
    1TCM     c1 2664   4.664   2.543   4.924
    1TCM    cl1 2665   4.622   2.677   5.034
    1TCM    cl2 2666   4.558   2.404   4.957
    1TCM     h1 2667   4.651   2.576   4.819
    1TCM    cl3 2668   4.834   2.496   4.951
    1TCM     c1 2669   2.650   0.453   4.093
    1TCM    cl1 2670   2.522   0.403   4.205
    1TCM    cl2 2671   2.581   0.481   3.932
    1TCM     h1 2672   2.696   0.547   4.130
    1TCM    cl3 2673   2.774   0.326   4.084
    1TCM     c1 2674   3.320   2.151   3.325
    1TCM    cl1 2675   3.406   2.038   3.218
    1TCM    cl2 2676   3.321   2.313   3.253
    1TCM     h1 2677   3.216   2.117   3.339
    1TCM    cl3 2678   3.402   2.156   3.483
    1TCM     c1 2679   3.864   1.667   1.522
    1TCM    cl1 2680   3.888   1.733   1.358
    1TCM    cl2 2681   3.931   1.503   1.530
    1TCM     h1 2682   3.915   1.732   1.596
    1TCM    cl3 2683   3.690   1.662   1.558
    1TCM     c1 2684   2.250   2.658   3.598
    1TCM    cl1 2685   2.366   2.747   3.496
    1TCM    cl2 2686   2.260   2.719   3.765
    1TCM     h1 2687   2.147   2.673   3.559
    1TCM    cl3 2688   2.289   2.485   3.595
    1TCM     c1 2689   2.457   3.754   4.655
    1TCM    cl1 2690   2.455   3.590   4.724
    1TCM    cl2 2691   2.397   3.870   4.776
    1TCM     h1 2692   2.560   3.781   4.626
    1TCM    cl3 2693   2.352   3.759   4.511
    1TCM     c1 2694   3.039   1.708   2.827
    1TCM    cl1 2695   3.027   1.531   2.818
    1TCM    cl2 2696   2.905   1.780   2.735
    1TCM     h1 2697   3.033   1.740   2.933
    1TCM    cl3 2698   3.194   1.761   2.758
    1TCM     c1 2699   4.508   2.555   0.350
    1TCM    cl1 2700   4.666   2.604   0.286
    1TCM    cl2 2701   4.529   2.424   0.468
    1TCM     h1 2702   4.460   2.642   0.399
    1TCM    cl3 2703   4.405   2.499   0.216
    1TCM     c1 2704   3.069   4.567   3.558
    1TCM    cl1 2705   3.021   4.712   3.468
    1TCM    cl2 2706   3.158   4.457   3.451
    1TCM     h1 2707   3.135   4.597   3.643
    1TCM    cl3 2708   2.925   4.485   3.621
    1TCM     c1 2709   5.026   3.870   5.263
    1TCM    cl1 2710   4.867   3.848   5.340
    1TCM    cl2 2711   5.014   3.995   5.137
    1TCM     h1 2712   5.100   3.903   5.340
    1TCM    cl3 2713   5.080   3.717   5.191
    1TCM     c1 2714   1.653   1.990   2.688
    1TCM    cl1 2715   1.823   1.936   2.686
    1TCM    cl2 2716   1.647   2.168   2.687
    1TCM     h1 2717   1.601   1.950   2.598
    1TCM    cl3 2718   1.573   1.929   2.835
    1TCM     c1 2719   2.932   2.870   1.393
    1TCM    cl1 2720   2.754   2.875   1.390
    1TCM    cl2 2721   2.987   2.741   1.503
    1TCM     h1 2722   2.970   2.850   1.291
    1TCM    cl3 2723   2.995   3.026   1.450
    1TCM     c1 2724   0.129   3.624   3.605
    1TCM    cl1 2725   0.242   3.558   3.485
    1TCM    cl2 2726  -0.000   3.506   3.637
    1TCM     h1 2727   0.184   3.645   3.700
    1TCM    cl3 2728   0.058   3.775   3.544
    1TCM     c1 2729   2.461   4.840   3.251
    1TCM    cl1 2730   2.624   4.855   3.323
    1TCM    cl2 2731   2.341   4.822   3.381
    1TCM     h1 2732   2.439   4.931   3.192
    1TCM    cl3 2733   2.456   4.697   3.145
    1TCM     c1 2734   5.007   2.735   4.194
    1TCM    cl1 2735   5.180   2.777   4.196
    1TCM    cl2 2736   4.910   2.885   4.201
    1TCM     h1 2737   4.983   2.681   4.100
    1TCM    cl3 2738   4.969   2.633   4.334
    1TCM     c1 2739   2.569   2.337   3.671
    1TCM    cl1 2740   2.462   2.208   3.611
    1TCM    cl2 2741   2.619   2.440   3.535
    1TCM     h1 2742   2.515   2.398   3.746
    1TCM    cl3 2743   2.713   2.264   3.746
    1TCM     c1 2744   2.461   0.719   3.798
    1TCM    cl1 2745   2.436   0.810   3.647
    1TCM    cl2 2746   2.631   0.735   3.849
    1TCM     h1 2747   2.395   0.761   3.877
    1TCM    cl3 2748   2.423   0.548   3.772
    1TCM     c1 2749   5.280   0.873   0.062
    1TCM    cl1 2750   5.340   0.717   0.000
    1TCM    cl2 2751   5.294   0.875   0.239
    1TCM     h1 2752   5.340   0.955   0.019
    1TCM    cl3 2753   5.109   0.893   0.016
    1TCM     c1 2754   4.277   1.346   3.659
    1TCM    cl1 2755   4.327   1.356   3.830
    1TCM    cl2 2756   4.409   1.275   3.563
    1TCM     h1 2757   4.187   1.282   3.651
    1TCM    cl3 2758   4.241   1.509   3.599
    1TCM     c1 2759   3.207   4.983   3.396
    1TCM    cl1 2760   3.300   4.833   3.420
    1TCM    cl2 2761   3.046   4.965   3.468
    1TCM     h1 2762   3.260   5.068   3.445
    1TCM    cl3 2763   3.191   5.016   3.222
    1TCM     c1 2764   2.171   2.514   3.144
    1TCM    cl1 2765   2.083   2.401   3.039
    1TCM    cl2 2766   2.096   2.675   3.133
    1TCM     h1 2767   2.165   2.479   3.249
    1TCM    cl3 2768   2.341   2.524   3.094
    1TCM     c1 2769   1.476   0.727   5.277
    1TCM    cl1 2770   1.491   0.894   5.335
    1TCM    cl2 2771   1.322   0.658   5.334
    1TCM     h1 2772   1.478   0.726   5.166
    1TCM    cl3 2773   1.611   0.630   5.340
    1TCM     c1 2774   2.213   4.383   4.410
    1TCM    cl1 2775   2.236   4.517   4.295
    1TCM    cl2 2776   2.184   4.449   4.573
    1TCM     h1 2777   2.125   4.322   4.379
    1TCM    cl3 2778   2.359   4.281   4.412
    1TCM     c1 2779   0.787   3.752   5.062
    1TCM    cl1 2780   0.792   3.891   4.951
    1TCM    cl2 2781   0.618   3.709   5.095
    1TCM     h1 2782   0.839   3.666   5.015
    1TCM    cl3 2783   0.868   3.796   5.214
    1TCM     c1 2784   5.107   3.057   1.855
    1TCM    cl1 2785   5.083   3.200   1.752
    1TCM    cl2 2786   5.083   3.102   2.025
    1TCM     h1 2787   5.035   2.978   1.827
    1TCM    cl3 2788   5.273   2.996   1.833
    1TCM     c1 2789   3.483   1.269   3.438
    1TCM    cl1 2790   3.371   1.378   3.524
    1TCM    cl2 2791   3.464   1.291   3.263
    1TCM     h1 2792   3.587   1.292   3.468
    1TCM    cl3 2793   3.445   1.100   3.481
    1TCM     c1 2794   1.613   0.085   1.180
    1TCM    cl1 2795   1.741   0.000   1.090
    1TCM    cl2 2796   1.653   0.087   1.353
    1TCM     h1 2797   1.604   0.189   1.143
    1TCM    cl3 2798   1.458   0.000   1.156
    1TCM     c1 2799   2.828   2.958   3.909
    1TCM    cl1 2800   2.806   2.837   3.780
    1TCM    cl2 2801   3.002   2.991   3.930
    1TCM     h1 2802   2.776   3.052   3.881
    1TCM    cl3 2803   2.761   2.896   4.061
    1TCM     c1 2804   5.119   3.343   1.225
    1TCM    cl1 2805   5.207   3.246   1.345
    1TCM    cl2 2806   5.219   3.483   1.178
    1TCM     h1 2807   5.098   3.281   1.135
    1TCM    cl3 2808   4.966   3.401   1.295
    1TCM     c1 2809   1.903   0.268   0.173
    1TCM    cl1 2810   1.823   0.337   0.030
    1TCM    cl2 2811   1.780   0.202   0.284
    1TCM     h1 2812   1.971   0.186   0.141
    1TCM    cl3 2813   1.997   0.394   0.256
    1TCM     c1 2814   2.101   3.257   5.232
    1TCM    cl1 2815   2.177   3.249   5.072
    1TCM    cl2 2816   2.111   3.098   5.311
    1TCM     h1 2817   2.154   3.332   5.294
    1TCM    cl3 2818   1.930   3.304   5.215
    1TCM     c1 2819   2.709   3.887   2.475
    1TCM    cl1 2820   2.652   3.727   2.421
    1TCM    cl2 2821   2.837   3.866   2.596
    1TCM     h1 2822   2.748   3.944   2.388
    1TCM    cl3 2823   2.573   3.977   2.547
    1TCM     c1 2824   1.318   0.403   2.805
    1TCM    cl1 2825   1.370   0.544   2.709
    1TCM    cl2 2826   1.300   0.451   2.975
    1TCM     h1 2827   1.221   0.366   2.766
    1TCM    cl3 2828   1.440   0.274   2.792
    1TCM     c1 2829   5.097   5.038   2.787
    1TCM    cl1 2830   5.004   5.182   2.740
    1TCM    cl2 2831   5.091   5.020   2.964
    1TCM     h1 2832   5.053   4.948   2.739
    1TCM    cl3 2833   5.266   5.056   2.735
    1TCM     c1 2834   2.617   3.878   3.182
    1TCM    cl1 2835   2.620   3.982   3.038
    1TCM    cl2 2836   2.580   3.711   3.134
    1TCM     h1 2837   2.716   3.881   3.232
    1TCM    cl3 2838   2.493   3.937   3.295
    1TCM     c1 2839   5.031   5.056   0.184
    1TCM    cl1 2840   4.893   5.039   0.294
    1TCM    cl2 2841   4.974   5.041   0.016
    1TCM     h1 2842   5.078   5.155   0.198
    1TCM    cl3 2843   5.150   4.929   0.218
    1TCM     c1 2844   1.547   4.064   5.182
    1TCM    cl1 2845   1.501   4.173   5.048
    1TCM    cl2 2846   1.535   3.895   5.128
    1TCM     h1 2847   1.651   4.086   5.213
    1TCM    cl3 2848   1.437   4.090   5.319
    1TCM     c1 2849   0.262   1.796   3.429
    1TCM    cl1 2850   0.220   1.740   3.266
    1TCM    cl2 2851   0.432   1.758   3.463
    1TCM     h1 2852   0.246   1.906   3.435
    1TCM    cl3 2853   0.158   1.714   3.548
    1TCM     c1 2854   4.668   0.306   4.890
    1TCM    cl1 2855   4.614   0.262   4.727
    1TCM    cl2 2856   4.734   0.162   4.971
    1TCM     h1 2857   4.747   0.383   4.883
    1TCM    cl3 2858   4.531   0.369   4.983
    1TCM     c1 2859   2.305   0.193   4.153
    1TCM    cl1 2860   2.350   0.234   4.320
    1TCM    cl2 2861   2.360   0.322   4.044
    1TCM     h1 2862   2.353   0.097   4.124
    1TCM    cl3 2863   2.128   0.176   4.141
    1TCM     c1 2864   3.523   4.690   1.642
    1TCM    cl1 2865   3.365   4.732   1.713
    1TCM    cl2 2866   3.647   4.686   1.769
    1TCM     h1 2867   3.516   4.591   1.593
    1TCM    cl3 2868   3.568   4.812   1.520
    1TCM     c1 2869   5.190   5.251   0.679
    1TCM    cl1 2870   5.286   5.291   0.535
    1TCM    cl2 2871   5.255   5.340   0.820
    1TCM     h1 2872   5.084   5.281   0.663
    1TCM    cl3 2873   5.199   5.076   0.710
    1TCM     c1 2874   3.994   5.161   0.235
    1TCM    cl1 2875   3.979   5.337   0.250
    1TCM    cl2 2876   3.831   5.089   0.220
    1TCM     h1 2877   4.054   5.136   0.145
    1TCM    cl3 2878   4.074   5.095   0.380
    1TCM     c1 2879   0.656   5.041   2.412
    1TCM    cl1 2880   0.723   5.045   2.577
    1TCM    cl2 2881   0.785   5.080   2.296
    1TCM     h1 2882   0.616   4.940   2.391
    1TCM    cl3 2883   0.526   5.162   2.398
    1TCM     c1 2884   2.850   5.100   4.366
    1TCM    cl1 2885   2.773   5.227   4.464
    1TCM    cl2 2886   2.841   5.144   4.194
    1TCM     h1 2887   2.957   5.090   4.396
    1TCM    cl3 2888   2.767   4.945   4.392
    1TCM     c1 2889   4.452   4.217   1.843
    1TCM    cl1 2890   4.338   4.277   1.721
    1TCM    cl2 2891   4.526   4.065   1.786
    1TCM     h1 2892   4.531   4.293   1.860
    1TCM    cl3 2893   4.365   4.187   1.996
    1TCM     c1 2894   3.281   3.704   4.861
    1TCM    cl1 2895   3.293   3.545   4.783
    1TCM    cl2 2896   3.284   3.684   5.037
    1TCM     h1 2897   3.366   3.767   4.829
    1TCM    cl3 2898   3.128   3.782   4.813
    1TCM     c1 2899   2.735   0.454   4.523
    1TCM    cl1 2900   2.872   0.349   4.565
    1TCM    cl2 2901   2.686   0.423   4.354
    1TCM     h1 2902   2.650   0.433   4.590
    1TCM    cl3 2903   2.784   0.624   4.539
    1TCM     c1 2904   3.319   3.374   1.787
    1TCM    cl1 2905   3.368   3.379   1.958
    1TCM    cl2 2906   3.434   3.274   1.696
    1TCM     h1 2907   3.217   3.329   1.779
    1TCM    cl3 2908   3.316   3.538   1.720
    1TCM     c1 2909   0.083   2.996   3.490
    1TCM    cl1 2910   0.259   2.991   3.519
    1TCM    cl2 2911   0.000   3.043   3.640
    1TCM     h1 2912   0.061   3.071   3.411
    1TCM    cl3 2913   0.027   2.836   3.438
    1TCM     c1 2914   1.511   3.866   3.095
    1TCM    cl1 2915   1.591   3.717   3.042
    1TCM    cl2 2916   1.534   3.886   3.271
    1TCM     h1 2917   1.556   3.953   3.042
    1TCM    cl3 2918   1.337   3.856   3.059
    1TCM     c1 2919   2.858   4.227   1.719
    1TCM    cl1 2920   2.950   4.232   1.871
    1TCM    cl2 2921   2.879   4.379   1.631
    1TCM     h1 2922   2.894   4.142   1.657
    1TCM    cl3 2923   2.685   4.203   1.755
    1TCM     c1 2924   5.183   1.678   2.937
    1TCM    cl1 2925   5.064   1.567   2.865
    1TCM    cl2 2926   5.201   1.641   3.110
    1TCM     h1 2927   5.280   1.665   2.886
    1TCM    cl3 2928   5.127   1.846   2.917
    1TCM     c1 2929   4.448   3.479   3.024
    1TCM    cl1 2930   4.411   3.416   2.862
    1TCM    cl2 2931   4.619   3.450   3.062
    1TCM     h1 2932   4.427   3.588   3.027
    1TCM    cl3 2933   4.346   3.396   3.144
    1TCM     c1 2934   2.773   4.931   2.662
    1TCM    cl1 2935   2.904   4.839   2.738
    1TCM    cl2 2936   2.618   4.888   2.739
    1TCM     h1 2937   2.792   5.040   2.675
    1TCM    cl3 2938   2.765   4.892   2.489
    1TCM     c1 2939   2.975   3.256   2.397
    1TCM    cl1 2940   2.956   3.165   2.246
    1TCM    cl2 2941   3.015   3.143   2.529
    1TCM     h1 2942   3.056   3.330   2.386
    1TCM    cl3 2943   2.822   3.340   2.436
    1TCM     c1 2944   1.931   3.521   4.167
    1TCM    cl1 2945   1.789   3.440   4.095
    1TCM    cl2 2946   2.053   3.549   4.040
    1TCM     h1 2947   1.900   3.618   4.210
    1TCM    cl3 2948   2.000   3.419   4.294
    1TCM     c1 2949   4.828   1.934   0.559
    1TCM    cl1 2950   4.655   1.974   0.564
    1TCM    cl2 2951   4.912   2.015   0.694
    1TCM     h1 2952   4.841   1.824   0.569
    1TCM    cl3 2953   4.897   1.989   0.405
    1TCM     c1 2954   2.136   3.171   2.111
    1TCM    cl1 2955   2.160   3.159   1.935
    1TCM    cl2 2956   1.967   3.128   2.151
    1TCM     h1 2957   2.204   3.100   2.163
    1TCM    cl3 2958   2.170   3.337   2.165
    1TCM     c1 2959   1.982   0.936   4.965
    1TCM    cl1 2960   2.009   1.075   5.073
    1TCM    cl2 2961   2.010   0.985   4.797
    1TCM     h1 2962   2.052   0.854   4.992
    1TCM    cl3 2963   1.815   0.878   4.983
    1TCM     c1 2964   0.312   5.103   4.016
    1TCM    cl1 2965   0.345   5.272   3.974
    1TCM    cl2 2966   0.428   4.997   3.933
    1TCM     h1 2967   0.322   5.089   4.126
    1TCM    cl3 2968   0.147   5.061   3.966
    1TCM     c1 2969   3.700   3.632   5.281
    1TCM    cl1 2970   3.568   3.734   5.340
    1TCM    cl2 2971   3.677   3.466   5.340
    1TCM     h1 2972   3.700   3.632   5.170
    1TCM    cl3 2973   3.855   3.695   5.340
    1TCM     c1 2974   4.884   1.061   4.334
    1TCM    cl1 2975   4.996   1.191   4.287
    1TCM    cl2 2976   4.944   0.906   4.270
    1TCM     h1 2977   4.878   1.056   4.444
    1TCM    cl3 2978   4.723   1.095   4.266
    1TCM     c1 2979   2.338   3.292   0.261
    1TCM    cl1 2980   2.270   3.148   0.181
    1TCM    cl2 2981   2.349   3.425   0.145
    1TCM     h1 2982   2.273   3.321   0.345
    1TCM    cl3 2983   2.501   3.253   0.323
    1TCM     c1 2984   2.656   4.284   1.391
    1TCM    cl1 2985   2.767   4.162   1.325
    1TCM    cl2 2986   2.750   4.419   1.459
    1TCM     h1 2987   2.590   4.322   1.310
    1TCM    cl3 2988   2.556   4.211   1.519
    1TCM     c1 2989   1.802   0.648   4.314
    1TCM    cl1 2990   1.731   0.638   4.477
    1TCM    cl2 2991   1.694   0.569   4.197
    1TCM     h1 2992   1.815   0.754   4.286
    1TCM    cl3 2993   1.960   0.566   4.313
    1TCM     c1 2994   1.404   0.915   2.997
    1TCM    cl1 2995   1.433   0.775   3.103
    1TCM    cl2 2996   1.273   1.015   3.065
    1TCM     h1 2997   1.497   0.976   2.990
    1TCM    cl3 2998   1.358   0.859   2.835
    1TCM     c1 2999   2.011   3.191   3.471
    1TCM    cl1 3000   2.050   3.204   3.298
    1TCM    cl2 3001   1.837   3.157   3.490
    1TCM     h1 3002   2.070   3.108   3.516
    1TCM    cl3 3003   2.051   3.344   3.553
    1TCM     c1 3004   3.819   4.235   3.038
    1TCM    cl1 3005   3.767   4.247   2.868
    1TCM    cl2 3006   3.860   4.397   3.099
    1TCM     h1 3007   3.736   4.193   3.098
    1TCM    cl3 3008   3.961   4.130   3.049
    1TCM     c1 3009   2.714   5.133   0.466
    1TCM    cl1 3010   2.696   5.230   0.614
    1TCM    cl2 3011   2.781   5.235   0.336
    1TCM     h1 3012   2.783   5.048   0.486
    1TCM    cl3 3013   2.556   5.070   0.417
    1TCM     c1 3014   1.651   3.817   4.084
    1TCM    cl1 3015   1.812   3.845   4.014
    1TCM    cl2 3016   1.604   3.957   4.184
    1TCM     h1 3017   1.577   3.803   4.003
    1TCM    cl3 3018   1.655   3.671   4.186
    1TCM     c1 3019   2.413   2.654   0.850
    1TCM    cl1 3020   2.453   2.747   0.996
    1TCM    cl2 3021   2.494   2.496   0.856
    1TCM     h1 3022   2.303   2.638   0.845
    1TCM    cl3 3023   2.467   2.743   0.706
    1TCM     c1 3024   3.186   0.264   3.607
    1TCM    cl1 3025   3.065   0.135   3.626
    1TCM    cl2 3026   3.269   0.289   3.763
    1TCM     h1 3027   3.261   0.234   3.530
    1TCM    cl3 3028   3.106   0.414   3.557
    1TCM     c1 3029   4.027   4.412   0.727
    1TCM    cl1 3030   3.871   4.441   0.647
    1TCM    cl2 3031   4.033   4.503   0.880
    1TCM     h1 3032   4.039   4.304   0.748
    1TCM    cl3 3033   4.159   4.466   0.621
    1TCM     c1 3034   2.265   2.828   0.354
    1TCM    cl1 3035   2.370   2.927   0.250
    1TCM    cl2 3036   2.231   2.917   0.505
    1TCM     h1 3037   2.170   2.807   0.301
    1TCM    cl3 3038   2.347   2.675   0.392
    1TCM     c1 3039   2.995   0.656   4.212
    1TCM    cl1 3040   2.927   0.733   4.066
    1TCM    cl2 3041   3.169   0.630   4.189
    1TCM     h1 3042   2.979   0.723   4.299
    1TCM    cl3 3043   2.914   0.501   4.240
    1TCM     c1 3044   0.699   0.388   1.985
    1TCM    cl1 3045   0.854   0.401   2.072
    1TCM    cl2 3046   0.660   0.216   1.960
    1TCM     h1 3047   0.619   0.435   2.046
    1TCM    cl3 3048   0.712   0.469   1.828
    1TCM     c1 3049   0.196   2.961   3.892
    1TCM    cl1 3050   0.083   2.865   3.793
    1TCM    cl2 3051   0.147   2.953   4.063
    1TCM     h1 3052   0.299   2.920   3.881
    1TCM    cl3 3053   0.193   3.130   3.837
    1TCM     c1 3054   4.263   4.896   0.812
    1TCM    cl1 3055   4.323   5.028   0.915
    1TCM    cl2 3056   4.133   4.809   0.897
    1TCM     h1 3057   4.224   4.938   0.717
    1TCM    cl3 3058   4.397   4.784   0.777
    1TCM     c1 3059   0.256   4.267   1.071
    1TCM    cl1 3060   0.306   4.262   1.242
    1TCM    cl2 3061   0.357   4.384   0.983
    1TCM     h1 3062   0.268   4.167   1.026
    1TCM    cl3 3063   0.085   4.317   1.060
    1TCM     c1 3064   1.959   2.263   3.833
    1TCM    cl1 3065   1.962   2.127   3.718
    1TCM    cl2 3066   1.796   2.281   3.900
    1TCM     h1 3067   2.031   2.243   3.915
    1TCM    cl3 3068   2.006   2.412   3.748
    1TCM     c1 3069   0.573   4.172   1.176
    1TCM    cl1 3070   0.517   4.231   1.018
    1TCM    cl2 3071   0.692   4.042   1.153
    1TCM     h1 3072   0.620   4.255   1.232
    1TCM    cl3 3073   0.434   4.109   1.268
    1TCM     c1 3074   1.567   3.750   0.431
    1TCM    cl1 3075   1.395   3.712   0.402
    1TCM    cl2 3076   1.648   3.607   0.501
    1TCM     h1 3077   1.616   3.777   0.336
    1TCM    cl3 3078   1.579   3.886   0.545
    1TCM     c1 3079   3.171   2.121   2.540
    1TCM    cl1 3080   3.146   1.950   2.496
    1TCM    cl2 3081   3.325   2.137   2.628
    1TCM     h1 3082   3.174   2.182   2.448
    1TCM    cl3 3083   3.037   2.176   2.644
    1TCM     c1 3084   1.904   2.763   2.559
    1TCM    cl1 3085   2.034   2.645   2.532
    1TCM    cl2 3086   1.914   2.891   2.436
    1TCM     h1 3087   1.806   2.712   2.550
    1TCM    cl3 3088   1.920   2.834   2.721
    1TCM     c1 3089   3.413   5.155   2.088
    1TCM    cl1 3090   3.530   5.105   2.212
    1TCM    cl2 3091   3.248   5.145   2.154
    1TCM     h1 3092   3.434   5.260   2.057
    1TCM    cl3 3093   3.427   5.048   1.947
    1TCM     c1 3094   3.691   0.077   1.566
    1TCM    cl1 3095   3.638   0.163   1.419
    1TCM    cl2 3096   3.550   0.000   1.642
    1TCM     h1 3097   3.765   0.000   1.539
    1TCM    cl3 3098   3.763   0.193   1.679
    1TCM     c1 3099   0.861   2.639   4.439
    1TCM    cl1 3100   1.026   2.649   4.373
    1TCM    cl2 3101   0.761   2.766   4.365
    1TCM     h1 3102   0.818   2.540   4.415
    1TCM    cl3 3103   0.866   2.662   4.615
    1TCM     c1 3104   4.678   3.941   4.962
    1TCM    cl1 3105   4.642   3.792   5.051
    1TCM    cl2 3106   4.661   3.912   4.787
    1TCM     h1 3107   4.607   4.021   4.993
    1TCM    cl3 3108   4.844   3.993   4.997
    1TCM     c1 3109   4.939   1.908   4.157
    1TCM    cl1 3110   5.085   1.808   4.177
    1TCM    cl2 3111   4.874   1.886   3.993
    1TCM     h1 3112   4.863   1.878   4.231
    1TCM    cl3 3113   4.981   2.079   4.181
    1TCM     c1 3114   4.687   1.465   0.640
    1TCM    cl1 3115   4.513   1.431   0.632
    1TCM    cl2 3116   4.773   1.366   0.520
    1TCM     h1 3117   4.705   1.572   0.618
    1TCM    cl3 3118   4.748   1.427   0.803
    1TCM     c1 3119   1.493   2.847   5.180
    1TCM    cl1 3120   1.430   3.000   5.244
    1TCM    cl2 3121   1.365   2.723   5.183
    1TCM     h1 3122   1.527   2.862   5.075
    1TCM    cl3 3123   1.630   2.793   5.280
    1TCM     c1 3124   3.669   2.145   3.131
    1TCM    cl1 3125   3.527   2.245   3.092
    1TCM    cl2 3126   3.718   2.177   3.299
    1TCM     h1 3127   3.643   2.038   3.120
    1TCM    cl3 3128   3.803   2.186   3.021
    1TCM     c1 3129   2.848   4.900   1.016
    1TCM    cl1 3130   2.835   4.971   0.854
    1TCM    cl2 3131   2.725   4.773   1.036
    1TCM     h1 3132   2.949   4.855   1.029
    1TCM    cl3 3133   2.823   5.026   1.139
    1TCM     c1 3134   1.664   3.851   0.875
    1TCM    cl1 3135   1.820   3.794   0.938
    1TCM    cl2 3136   1.641   3.790   0.710
    1TCM     h1 3137   1.582   3.814   0.940
    1TCM    cl3 3138   1.662   4.029   0.874
    1TCM     c1 3139   5.071   3.212   5.116
    1TCM    cl1 3140   5.010   3.350   5.211
    1TCM    cl2 3141   4.957   3.076   5.130
    1TCM     h1 3142   5.080   3.242   5.010
    1TCM    cl3 3143   5.230   3.163   5.178
    1TCM     c1 3144   2.935   5.021   3.081
    1TCM    cl1 3145   3.090   5.103   3.052
    1TCM    cl2 3146   2.853   4.992   2.926
    1TCM     h1 3147   2.953   4.924   3.132
    1TCM    cl3 3148   2.832   5.123   3.184
    1TCM     c1 3149   4.821   3.875   3.647
    1TCM    cl1 3150   4.722   3.839   3.790
    1TCM    cl2 3151   4.716   3.881   3.503
    1TCM     h1 3152   4.871   3.973   3.660
    1TCM    cl3 3153   4.943   3.748   3.626
    1TCM     c1 3154   1.934   0.596   3.195
    1TCM    cl1 3155   1.797   0.705   3.161
    1TCM    cl2 3156   2.070   0.638   3.088
    1TCM     h1 3157   1.965   0.607   3.301
    1TCM    cl3 3158   1.885   0.428   3.165
    1TCM     c1 3159   3.167   2.735   4.610
    1TCM    cl1 3160   3.279   2.848   4.531
    1TCM    cl2 3161   3.127   2.603   4.497
    1TCM     h1 3162   3.215   2.693   4.700
    1TCM    cl3 3163   3.019   2.821   4.656
    1TCM     c1 3164   2.387   4.301   0.604
    1TCM    cl1 3165   2.313   4.178   0.499
    1TCM    cl2 3166   2.495   4.222   0.721
    1TCM     h1 3167   2.446   4.372   0.541
    1TCM    cl3 3168   2.260   4.390   0.690
    1TCM     c1 3169   0.102   3.047   0.904
    1TCM    cl1 3170  -0.000   3.186   0.862
    1TCM    cl2 3171   0.215   3.014   0.770
    1TCM     h1 3172   0.160   3.070   0.996
    1TCM    cl3 3173  -0.000   2.904   0.931
    1TCM     c1 3174   2.184   2.032   4.124
    1TCM    cl1 3175   2.104   2.182   4.175
    1TCM    cl2 3176   2.250   1.949   4.266
    1TCM     h1 3177   2.110   1.967   4.073
    1TCM    cl3 3178   2.316   2.071   4.011
    1TCM     c1 3179   1.143   0.625   2.595
    1TCM    cl1 3180   1.005   0.517   2.564
    1TCM    cl2 3181   1.111   0.785   2.523
    1TCM     h1 3182   1.157   0.636   2.704
    1TCM    cl3 3183   1.289   0.556   2.522
    1TCM     c1 3184   2.836   4.348   5.111
    1TCM    cl1 3185   2.738   4.302   5.252
    1TCM    cl2 3186   2.730   4.385   4.974
    1TCM     h1 3187   2.897   4.437   5.136
    1TCM    cl3 3188   2.945   4.214   5.068
    1TCM     c1 3189   2.408   4.517   1.540
    1TCM    cl1 3190   2.323   4.387   1.627
    1TCM    cl2 3191   2.354   4.519   1.370
    1TCM     h1 3192   2.384   4.614   1.587
    1TCM    cl3 3193   2.583   4.488   1.546
    1TCM     c1 3194   0.914   2.545   5.187
    1TCM    cl1 3195   0.792   2.610   5.298
    1TCM    cl2 3196   0.847   2.405   5.100
    1TCM     h1 3197   0.944   2.623   5.114
    1TCM    cl3 3198   1.057   2.493   5.280
    1TCM     c1 3199   3.024   5.266   4.547
    1TCM    cl1 3200   3.043   5.091   4.576
    1TCM    cl2 3201   3.184   5.340   4.528
    1TCM     h1 3202   2.965   5.281   4.454
    1TCM    cl3 3203   2.940   5.340   4.684
    1TCM     c1 3204   0.535   3.624   3.667
    1TCM    cl1 3205   0.371   3.688   3.643
    1TCM    cl2 3206   0.606   3.582   3.510
    1TCM     h1 3207   0.597   3.701   3.717
    1TCM    cl3 3208   0.527   3.479   3.770
    1TCM     c1 3209   2.355   0.202   1.419
    1TCM    cl1 3210   2.301   0.194   1.250
    1TCM    cl2 3211   2.531   0.175   1.425
    1TCM     h1 3212   2.331   0.301   1.461
    1TCM    cl3 3213   2.273   0.076   1.513
    1TCM     c1 3214   0.210   0.148   3.817
    1TCM    cl1 3215   0.319   0.048   3.915
    1TCM    cl2 3216   0.225   0.102   3.646
    1TCM     h1 3217   0.105   0.132   3.851
    1TCM    cl3 3218   0.253   0.320   3.836
    1TCM     c1 3219   4.266   5.212   3.299
    1TCM    cl1 3220   4.389   5.340   3.317
    1TCM    cl2 3221   4.309   5.074   3.402
    1TCM     h1 3222   4.167   5.252   3.330
    1TCM    cl3 3223   4.259   5.160   3.129
    1TCM     c1 3224   3.262   4.018   1.542
    1TCM    cl1 3225   3.150   4.156   1.534
    1TCM    cl2 3226   3.332   4.009   1.706
    1TCM     h1 3227   3.207   3.925   1.520
    1TCM    cl3 3228   3.393   4.040   1.424
    1TCM     c1 3229   4.650   4.336   3.902
    1TCM    cl1 3230   4.527   4.229   3.831
    1TCM    cl2 3231   4.580   4.425   4.039
    1TCM     h1 3232   4.736   4.275   3.937
    1TCM    cl3 3233   4.706   4.452   3.779
    1TCM     c1 3234   0.834   3.639   0.054
    1TCM    cl1 3235   0.839   3.630   0.231
    1TCM    cl2 3236   0.915   3.788   0.000
    1TCM     h1 3237   0.885   3.551   0.010
    1TCM    cl3 3238   0.664   3.642   0.000
    1TCM     c1 3239   5.095   2.349   5.041
    1TCM    cl1 3240   5.101   2.201   5.141
    1TCM    cl2 3241   5.088   2.304   4.869
    1TCM     h1 3242   5.005   2.408   5.068
    1TCM    cl3 3243   5.241   2.446   5.071
    1TCM     c1 3244   1.026   5.238   2.483
    1TCM    cl1 3245   0.901   5.332   2.567
    1TCM    cl2 3246   1.052   5.305   2.320
    1TCM     h1 3247   1.120   5.242   2.540
    1TCM    cl3 3248   0.973   5.068   2.468
    1TCM     c1 3249   1.192   3.604   3.366
    1TCM    cl1 3250   1.363   3.639   3.395
    1TCM    cl2 3251   1.176   3.441   3.297
    1TCM     h1 3252   1.137   3.608   3.463
    1TCM    cl3 3253   1.124   3.723   3.254
    1TCM     c1 3254   3.999   2.738   4.160
    1TCM    cl1 3255   4.148   2.745   4.062
    1TCM    cl2 3256   3.869   2.663   4.065
    1TCM     h1 3257   4.018   2.678   4.251
    1TCM    cl3 3258   3.951   2.903   4.206
    1TCM     c1 3259   2.310   3.537   5.194
    1TCM    cl1 3260   2.354   3.510   5.023
    1TCM    cl2 3261   2.349   3.704   5.239
    1TCM     h1 3262   2.202   3.518   5.208
    1TCM    cl3 3263   2.403   3.425   5.296
    1TCM     c1 3264   1.550   0.552   0.948
    1TCM    cl1 3265   1.710   0.491   0.899
    1TCM    cl2 3266   1.434   0.526   0.816
    1TCM     h1 3267   1.516   0.498   1.038
    1TCM    cl3 3268   1.561   0.726   0.983
    1TCM     c1 3269   0.472   3.489   0.409
    1TCM    cl1 3270   0.306   3.481   0.345
    1TCM    cl2 3271   0.465   3.514   0.585
    1TCM     h1 3272   0.525   3.395   0.387
    1TCM    cl3 3273   0.558   3.625   0.334
    1TCM     c1 3274   3.294   1.872   3.460
    1TCM    cl1 3275   3.249   1.924   3.296
    1TCM    cl2 3276   3.406   1.734   3.449
    1TCM     h1 3277   3.344   1.955   3.513
    1TCM    cl3 3278   3.148   1.822   3.549
    1TCM     c1 3279   2.775   4.758   0.307
    1TCM    cl1 3280   2.911   4.749   0.422
    1TCM    cl2 3281   2.800   4.894   0.196
    1TCM     h1 3282   2.770   4.663   0.249
    1TCM    cl3 3283   2.623   4.780   0.397
    1TCM     c1 3284   3.751   3.538   3.406
    1TCM    cl1 3285   3.631   3.552   3.275
    1TCM    cl2 3286   3.714   3.396   3.506
    1TCM     h1 3287   3.852   3.528   3.362
    1TCM    cl3 3288   3.745   3.685   3.507
    1TCM     c1 3289   2.979   4.010   0.981
    1TCM    cl1 3290   2.887   4.079   0.846
    1TCM    cl2 3291   3.053   3.857   0.931
    1TCM     h1 3292   3.059   4.082   1.012
    1TCM    cl3 3293   2.870   3.981   1.119
    1TCM     c1 3294   4.508   4.327   1.368
    1TCM    cl1 3295   4.406   4.388   1.500
    1TCM    cl2 3296   4.428   4.189   1.289
    1TCM     h1 3297   4.524   4.408   1.293
    1TCM    cl3 3298   4.665   4.275   1.434
    1TCM     c1 3299   4.605   3.042   0.250
    1TCM    cl1 3300   4.483   2.929   0.314
    1TCM    cl2 3301   4.523   3.169   0.155
    1TCM     h1 3302   4.660   3.089   0.334
    1TCM    cl3 3303   4.718   2.954   0.145
    1TCM     c1 3304   5.098   3.717   4.573
    1TCM    cl1 3305   5.166   3.798   4.716
    1TCM    cl2 3306   5.145   3.806   4.427
    1TCM     h1 3307   5.137   3.613   4.567
    1TCM    cl3 3308   4.920   3.713   4.586
    1TCM     c1 3309   3.437   4.616   2.977
    1TCM    cl1 3310   3.538   4.618   3.123
    1TCM    cl2 3311   3.439   4.453   2.905
    1TCM     h1 3312   3.332   4.642   3.003
    1TCM    cl3 3313   3.500   4.733   2.859
    1TCM     c1 3314   3.761   3.507   3.949
    1TCM    cl1 3315   3.898   3.528   4.060
    1TCM    cl2 3316   3.821   3.504   3.781
    1TCM     h1 3317   3.710   3.411   3.971
    1TCM    cl3 3318   3.646   3.641   3.969
    1TCM     c1 3319   4.186   0.309   0.193
    1TCM    cl1 3320   4.271   0.383   0.330
    1TCM    cl2 3321   4.261   0.362   0.041
    1TCM     h1 3322   4.193   0.198   0.201
    1TCM    cl3 3323   4.015   0.358   0.195
    1TCM     c1 3324   3.302   3.183   3.455
    1TCM    cl1 3325   3.154   3.191   3.554
    1TCM    cl2 3326   3.263   3.222   3.286
    1TCM     h1 3327   3.376   3.256   3.493
    1TCM    cl3 3328   3.371   3.019   3.463
    1TCM     c1 3329   0.578   2.570   1.859
    1TCM    cl1 3330   0.558   2.719   1.764
    1TCM    cl2 3331   0.747   2.559   1.915
    1TCM     h1 3332   0.510   2.573   1.946
    1TCM    cl3 3333   0.540   2.429   1.758
    1TCM     c1 3334   5.210   4.318   2.996
    1TCM    cl1 3335   5.330   4.348   2.867
    1TCM    cl2 3336   5.290   4.325   3.154
    1TCM     h1 3337   5.131   4.395   2.991
    1TCM    cl3 3338   5.137   4.157   2.973
    1TCM     c1 3339   1.537   1.989   1.012
    1TCM    cl1 3340   1.711   2.002   0.976
    1TCM    cl2 3341   1.511   2.003   1.187
    1TCM     h1 3342   1.482   2.070   0.960
    1TCM    cl3 3343   1.476   1.832   0.955
    1TCM     c1 3344   5.111   1.354   2.403
    1TCM    cl1 3345   4.995   1.228   2.451
    1TCM    cl2 3346   5.277   1.298   2.438
    1TCM     h1 3347   5.101   1.374   2.295
    1TCM    cl3 3348   5.079   1.503   2.495
    1TCM     c1 3349   4.204   3.125   4.018
    1TCM    cl1 3350   4.229   3.253   3.897
    1TCM    cl2 3351   4.278   2.974   3.961
    1TCM     h1 3352   4.251   3.156   4.114
    1TCM    cl3 3353   4.030   3.100   4.043
    1TCM     c1 3354   1.624   3.560   3.442
    1TCM    cl1 3355   1.547   3.576   3.602
    1TCM    cl2 3356   1.798   3.594   3.457
    1TCM     h1 3357   1.610   3.456   3.405
    1TCM    cl3 3358   1.551   3.675   3.328
    1TCM     c1 3359   2.543   3.287   2.609
    1TCM    cl1 3360   2.433   3.184   2.703
    1TCM    cl2 3361   2.530   3.247   2.436
    1TCM     h1 3362   2.516   3.394   2.624
    1TCM    cl3 3363   2.711   3.260   2.663
    1TCM     c1 3364   4.940   0.696   2.533
    1TCM    cl1 3365   4.921   0.587   2.395
    1TCM    cl2 3366   4.862   0.851   2.498
    1TCM     h1 3367   4.893   0.651   2.623
    1TCM    cl3 3368   5.113   0.723   2.564
    1TCM     c1 3369   4.914   2.054   1.295
    1TCM    cl1 3370   4.773   1.984   1.211
    1TCM    cl2 3371   4.864   2.203   1.380
    1TCM     h1 3372   4.953   1.981   1.368
    1TCM    cl3 3373   5.040   2.094   1.177
    1TCM     c1 3374   3.171   4.058   0.411
    1TCM    cl1 3375   3.238   3.899   0.366
    1TCM    cl2 3376   3.230   4.182   0.299
    1TCM     h1 3377   3.060   4.054   0.407
    1TCM    cl3 3378   3.222   4.099   0.576
    1TCM     c1 3379   2.751   4.044   3.614
    1TCM    cl1 3380   2.818   4.099   3.769
    1TCM    cl2 3381   2.883   4.018   3.498
    1TCM     h1 3382   2.696   3.948   3.629
    1TCM    cl3 3383   2.639   4.167   3.551
    1TCM     c1 3384   2.043   4.556   2.276
    1TCM    cl1 3385   2.092   4.387   2.252
    1TCM    cl2 3386   1.987   4.578   2.443
    1TCM     h1 3387   2.130   4.622   2.257
    1TCM    cl3 3388   1.911   4.596   2.164
    1TCM     c1 3389   1.545   1.823   0.419
    1TCM    cl1 3390   1.595   1.817   0.249
    1TCM    cl2 3391   1.434   1.688   0.453
    1TCM     h1 3392   1.635   1.814   0.484
    1TCM    cl3 3393   1.463   1.977   0.452
    1TCM     c1 3394   0.233   2.836   4.381
    1TCM    cl1 3395   0.344   2.968   4.335
    1TCM    cl2 3396   0.296   2.682   4.319
    1TCM     h1 3397   0.226   2.832   4.491
    1TCM    cl3 3398   0.072   2.867   4.311
    1TCM     c1 3399   0.344   1.716   4.736
    1TCM    cl1 3400   0.458   1.841   4.791
    1TCM    cl2 3401   0.386   1.560   4.810
    1TCM     h1 3402   0.241   1.745   4.765
    1TCM    cl3 3403   0.354   1.702   4.559
    1TCM     c1 3404   5.011   2.947   0.662
    1TCM    cl1 3405   4.956   3.076   0.771
    1TCM    cl2 3406   4.984   2.789   0.739
    1TCM     h1 3407   4.955   2.953   0.567
    1TCM    cl3 3408   5.185   2.968   0.629
    1TCM     c1 3409   2.232   4.253   4.808
    1TCM    cl1 3410   2.359   4.143   4.866
    1TCM    cl2 3411   2.205   4.381   4.929
    1TCM     h1 3412   2.263   4.298   4.712
    1TCM    cl3 3413   2.081   4.162   4.785
    1TCM     c1 3414   3.064   3.484   3.252
    1TCM    cl1 3415   2.902   3.551   3.219
    1TCM    cl2 3416   3.186   3.611   3.229
    1TCM     h1 3417   3.068   3.447   3.356
    1TCM    cl3 3418   3.096   3.349   3.140
    1TCM     c1 3419   2.959   4.385   0.352
    1TCM    cl1 3420   2.934   4.234   0.442
    1TCM    cl2 3421   3.102   4.369   0.247
    1TCM     h1 3422   2.870   4.407   0.289
    1TCM    cl3 3423   2.985   4.519   0.466
    1TCM     c1 3424   3.438   4.489   0.460
    1TCM    cl1 3425   3.510   4.399   0.324
    1TCM    cl2 3426   3.519   4.442   0.611
    1TCM     h1 3427   3.450   4.597   0.443
    1TCM    cl3 3428   3.264   4.449   0.471
    1TCM     c1 3429   2.374   3.791   0.985
    1TCM    cl1 3430   2.512   3.891   0.934
    1TCM    cl2 3431   2.370   3.783   1.163
    1TCM     h1 3432   2.280   3.836   0.948
    1TCM    cl3 3433   2.392   3.627   0.919
    1TCM     c1 3434   4.089   3.945   3.745
    1TCM    cl1 3435   4.199   3.914   3.609
    1TCM    cl2 3436   4.183   3.989   3.889
    1TCM     h1 3437   4.020   4.028   3.718
    1TCM    cl3 3438   3.994   3.799   3.778
    1TCM     c1 3439   5.228   4.787   4.197
    1TCM    cl1 3440   5.074   4.749   4.117
    1TCM    cl2 3441   5.198   4.841   4.363
    1TCM     h1 3442   5.292   4.696   4.199
    1TCM    cl3 3443   5.311   4.916   4.107
    1TCM     c1 3444   4.433   0.234   3.623
    1TCM    cl1 3445   4.452   0.377   3.727
    1TCM    cl2 3446   4.373   0.285   3.463
    1TCM     h1 3447   4.531   0.183   3.611
    1TCM    cl3 3448   4.317   0.122   3.697
    1TCM     c1 3449   2.511   2.626   3.351
    1TCM    cl1 3450   2.390   2.744   3.294
    1TCM    cl2 3451   2.457   2.554   3.504
    1TCM     h1 3452   2.523   2.546   3.275
    1TCM    cl3 3453   2.667   2.708   3.376
    1TCM     c1 3454   5.047   4.669   2.691
    1TCM    cl1 3455   5.215   4.726   2.698
    1TCM    cl2 3456   4.997   4.611   2.852
    1TCM     h1 3457   4.981   4.752   2.660
    1TCM    cl3 3458   5.034   4.536   2.573
    1TCM     c1 3459   2.196   0.584   1.626
    1TCM    cl1 3460   2.094   0.663   1.504
    1TCM    cl2 3461   2.092   0.504   1.747
    1TCM     h1 3462   2.261   0.509   1.577
    1TCM    cl3 3463   2.297   0.706   1.707
    1TCM     c1 3464   0.259   2.396   2.976
    1TCM    cl1 3465   0.210   2.375   2.806
    1TCM    cl2 3466   0.406   2.302   3.008
    1TCM     h1 3467   0.279   2.504   2.995
    1TCM    cl3 3468   0.128   2.340   3.083
    1TCM     c1 3469   1.538   4.395   1.274
    1TCM    cl1 3470   1.528   4.560   1.209
    1TCM    cl2 3471   1.498   4.278   1.146
    1TCM     h1 3472   1.642   4.376   1.311
    1TCM    cl3 3473   1.424   4.377   1.409
    1TCM     c1 3474   2.590   3.083   0.701
    1TCM    cl1 3475   2.740   2.998   0.655
    1TCM    cl2 3476   2.594   3.249   0.636
    1TCM     h1 3477   2.503   3.029   0.659
    1TCM    cl3 3478   2.578   3.089   0.878
    1TCM     c1 3479   4.696   2.036   0.988
    1TCM    cl1 3480   4.645   1.897   1.085
    1TCM    cl2 3481   4.553   2.127   0.935
    1TCM     h1 3482   4.762   2.102   1.048
    1TCM    cl3 3483   4.786   1.979   0.845
    1TCM     c1 3484   5.078   2.152   3.232
    1TCM    cl1 3485   5.036   2.306   3.311
    1TCM    cl2 3486   5.135   2.184   3.066
    1TCM     h1 3487   5.159   2.102   3.290
    1TCM    cl3 3488   4.936   2.047   3.227
    1TCM     c1 3489   3.523   0.846   3.573
    1TCM    cl1 3490   3.398   0.933   3.666
    1TCM    cl2 3491   3.492   0.867   3.399
    1TCM     h1 3492   3.623   0.887   3.598
    1TCM    cl3 3493   3.517   0.673   3.615
    1TCM     c1 3494   5.074   1.033   2.231
    1TCM    cl1 3495   5.170   1.181   2.211
    1TCM    cl2 3496   5.149   0.901   2.137
    1TCM     h1 3497   5.072   1.004   2.338
    1TCM    cl3 3498   4.909   1.061   2.173
    1TCM     c1 3499   1.990   0.978   4.496
    1TCM    cl1 3500   2.158   1.000   4.550
    1TCM    cl2 3501   1.971   0.813   4.431
    1TCM     h1 3502   1.921   0.992   4.581
    1TCM    cl3 3503   1.953   1.096   4.369
    1TCM     c1 3504   5.115   0.886   5.064
    1TCM    cl1 3505   5.210   0.804   4.938
    1TCM    cl2 3506   5.193   0.862   5.222
    1TCM     h1 3507   5.110   0.994   5.042
    1TCM    cl3 3508   4.951   0.818   5.068
    1TCM     c1 3509   0.344   3.748   4.654
    1TCM    cl1 3510   0.480   3.658   4.725
    1TCM    cl2 3511   0.261   3.645   4.534
    1TCM     h1 3512   0.273   3.776   4.734
    1TCM    cl3 3513   0.405   3.895   4.574
    1TCM     c1 3514   2.234   1.428   4.060
    1TCM    cl1 3515   2.148   1.305   4.156
    1TCM    cl2 3516   2.168   1.431   3.895
    1TCM     h1 3517   2.221   1.527   4.108
    1TCM    cl3 3518   2.407   1.387   4.054
    1TCM     c1 3519   3.450   1.378   2.120
    1TCM    cl1 3520   3.452   1.470   1.968
    1TCM    cl2 3521   3.616   1.331   2.163
    1TCM     h1 3522   3.407   1.440   2.201
    1TCM    cl3 3523   3.352   1.231   2.100
    1TCM     c1 3524   2.729   0.463   2.952
    1TCM    cl1 3525   2.770   0.304   3.020
    1TCM    cl2 3526   2.716   0.451   2.775
    1TCM     h1 3527   2.632   0.498   2.994
    1TCM    cl3 3528   2.857   0.580   2.994
    1TCM     c1 3529   1.501   2.333   4.372
    1TCM    cl1 3530   1.508   2.498   4.437
    1TCM    cl2 3531   1.480   2.339   4.196
    1TCM     h1 3532   1.596   2.280   4.397
    1TCM    cl3 3533   1.364   2.246   4.446
    1TCM     c1 3534   1.153   0.423   2.014
    1TCM    cl1 3535   1.062   0.511   2.139
    1TCM    cl2 3536   1.040   0.367   1.888
    1TCM     h1 3537   1.228   0.491   1.969
    1TCM    cl3 3538   1.234   0.283   2.086
    1TCM     c1 3539   3.250   0.318   4.338
    1TCM    cl1 3540   3.211   0.284   4.168
    1TCM    cl2 3541   3.107   0.383   4.420
    1TCM     h1 3542   3.283   0.225   4.388
    1TCM    cl3 3543   3.382   0.438   4.345
   5.54000   5.54000   5.54000
