Generated by Interchange
197
    1POP     C1    1  -0.241  -0.494   0.072
    1POP     O2    2  -0.205  -0.565  -0.021
    1POP     C3    3  -0.241  -0.345   0.065
    1POP     C4    4  -0.284  -0.264   0.171
    1POP     C5    5  -0.271  -0.125   0.163
    1POP     C6    6  -0.215  -0.064   0.049
    1POP     C7    7  -0.196   0.083   0.043
    1POP     C8    8  -0.070   0.144   0.017
    1POP     C9    9  -0.066   0.285   0.007
    1POP    C10   10  -0.179   0.365   0.023
    1POP    O11   11  -0.157   0.500   0.009
    1POP    C12   12  -0.270   0.586   0.024
    1POP    C13   13  -0.301   0.305   0.051
    1POP    C14   14  -0.309   0.166   0.060
    1POP    C15   15   0.056   0.067   0.004
    1POP    C16   16   0.135   0.077  -0.111
    1POP    C17   17   0.253   0.002  -0.125
    1POP    C18   18   0.294  -0.086  -0.023
    1POP    C19   19   0.215  -0.096   0.092
    1POP    C20   20   0.098  -0.019   0.106
    1POP    C21   21   0.423  -0.165  -0.031
    1POP    N22   22   0.430  -0.248  -0.150
    1POP    C23   23   0.544  -0.070  -0.029
    1POP    C24   24  -0.175  -0.147  -0.057
    1POP    C25   25  -0.187  -0.286  -0.049
    1POP    H26   26  -0.326  -0.308   0.262
    1POP    H27   27  -0.302  -0.065   0.248
    1POP    H28   28   0.030   0.334  -0.013
    1POP    H29   29  -0.236   0.688   0.008
    1POP    H30   30  -0.311   0.579   0.125
    1POP    H31   31  -0.346   0.564  -0.051
    1POP    H32   32  -0.392   0.362   0.065
    1POP    H33   33  -0.406   0.121   0.080
    1POP    H34   34   0.106   0.144  -0.192
    1POP    H35   35   0.312   0.014  -0.215
    1POP    H36   36   0.243  -0.162   0.173
    1POP    H37   37   0.041  -0.029   0.197
    1POP    H38   38   0.431  -0.231   0.056
    1POP    H39   39   0.408  -0.201  -0.236
    1POP    H40   40   0.638  -0.126  -0.029
    1POP    H41   41   0.543  -0.005   0.059
    1POP    H42   42   0.546  -0.006  -0.118
    1POP    H43   43  -0.131  -0.104  -0.147
    1POP    H44   44  -0.151  -0.347  -0.132
    2POP    C45   45   0.528  -0.346  -0.152
    2POP    O46   46   0.547  -0.422  -0.057
    2POP    C47   47   0.622  -0.348  -0.268
    2POP    C48   48   0.614  -0.255  -0.373
    2POP    C49   49   0.713  -0.252  -0.472
    2POP    C50   50   0.822  -0.341  -0.469
    2POP    C51   51   0.926  -0.335  -0.574
    2POP    C52   52   1.064  -0.316  -0.546
    2POP    C53   53   1.154  -0.317  -0.654
    2POP    C54   54   1.113  -0.333  -0.787
    2POP    O55   55   1.213  -0.332  -0.880
    2POP    C56   56   1.176  -0.350  -1.016
    2POP    C57   57   0.977  -0.348  -0.814
    2POP    C58   58   0.885  -0.349  -0.708
    2POP    C59   59   1.116  -0.294  -0.409
    2POP    C60   60   1.213  -0.379  -0.354
    2POP    C61   61   1.260  -0.359  -0.223
    2POP    C62   62   1.211  -0.254  -0.144
    2POP    C63   63   1.114  -0.169  -0.199
    2POP    C64   64   1.069  -0.188  -0.330
    2POP    C65   65   1.264  -0.225  -0.005
    2POP    N66   66   1.252  -0.339   0.084
    2POP    C67   67   1.411  -0.182  -0.012
    2POP    C68   68   0.828  -0.434  -0.365
    2POP    C69   69   0.730  -0.437  -0.265
    2POP    H70   70   0.536  -0.181  -0.380
    2POP    H71   71   0.707  -0.177  -0.550
    2POP    H72   72   1.261  -0.303  -0.636
    2POP    H73   73   1.267  -0.348  -1.076
    2POP    H74   74   1.112  -0.268  -1.050
    2POP    H75   75   1.128  -0.447  -1.031
    2POP    H76   76   0.939  -0.359  -0.915
    2POP    H77   77   0.780  -0.362  -0.732
    2POP    H78   78   1.252  -0.462  -0.412
    2POP    H79   79   1.336  -0.427  -0.185
    2POP    H80   80   1.074  -0.087  -0.141
    2POP    H81   81   0.994  -0.119  -0.370
    2POP    H82   82   1.207  -0.142   0.039
    2POP    H83   83   1.285  -0.426   0.047
    2POP    H84   84   1.450  -0.155   0.087
    2POP    H85   85   1.424  -0.095  -0.078
    2POP    H86   86   1.475  -0.263  -0.050
    2POP    H87   87   0.911  -0.504  -0.358
    2POP    H88   88   0.741  -0.507  -0.182
    3POP    C89   89   1.268  -0.314   0.220
    3POP    O90   90   1.214  -0.220   0.276
    3POP    C91   91   1.369  -0.396   0.292
    3POP    C92   92   1.447  -0.494   0.230
    3POP    C93   93   1.550  -0.558   0.300
    3POP    C94   94   1.579  -0.526   0.433
    3POP    C95   95   1.690  -0.593   0.504
    3POP    C96   96   1.797  -0.523   0.566
    3POP    C97   97   1.894  -0.598   0.636
    3POP    C98   98   1.890  -0.738   0.643
    3POP    O99   99   1.991  -0.795   0.714
    3POP   C100  100   1.990  -0.937   0.727
    3POP   C101  101   1.786  -0.806   0.580
    3POP   C102  102   1.688  -0.734   0.512
    3POP   C103  103   1.812  -0.376   0.558
    3POP   C104  104   1.821  -0.297   0.674
    3POP   C105  105   1.833  -0.158   0.666
    3POP   C106  106   1.837  -0.093   0.541
    3POP   C107  107   1.829  -0.172   0.426
    3POP   C108  108   1.819  -0.311   0.434
    3POP   C109  109   1.856   0.057   0.528
    3POP   N110  110   1.753   0.132   0.598
    3POP   C111  111   1.994   0.099   0.580
    3POP   C112  112   1.500  -0.428   0.495
    3POP   C113  113   1.397  -0.363   0.426
    3POP   H114  114   1.434  -0.522   0.126
    3POP   H115  115   1.611  -0.632   0.247
    3POP   H116  116   1.977  -0.547   0.684
    3POP   H117  117   2.077  -0.965   0.787
    3POP   H118  118   2.000  -0.985   0.630
    3POP   H119  119   1.901  -0.971   0.780
    3POP   H120  120   1.779  -0.914   0.581
    3POP   H121  121   1.607  -0.790   0.464
    3POP   H122  122   1.816  -0.344   0.772
    3POP   H123  123   1.840  -0.101   0.758
    3POP   H124  124   1.832  -0.125   0.327
    3POP   H125  125   1.814  -0.368   0.341
    3POP   H126  126   1.851   0.085   0.422
    3POP   H127  127   1.735   0.102   0.692
    3POP   H128  128   2.011   0.206   0.566
    3POP   H129  129   2.074   0.045   0.529
    3POP   H130  130   2.003   0.079   0.688
    3POP   H131  131   1.519  -0.399   0.598
    3POP   H132  132   1.341  -0.284   0.476
    4POP   C133  133   1.745   0.267   0.568
    4POP   O134  134   1.746   0.309   0.453
    4POP   C135  135   1.752   0.363   0.683
    4POP   C136  136   1.770   0.323   0.815
    4POP   C137  137   1.791   0.418   0.916
    4POP   C138  138   1.794   0.555   0.887
    4POP   C139  139   1.818   0.654   0.994
    4POP   C140  140   1.923   0.749   0.991
    4POP   C141  141   1.933   0.841   1.097
    4POP   C142  142   1.843   0.841   1.205
    4POP   O143  143   1.866   0.937   1.300
    4POP   C144  144   1.776   0.941   1.410
    4POP   C145  145   1.742   0.746   1.209
    4POP   C146  146   1.729   0.654   1.104
    4POP   C147  147   2.024   0.753   0.883
    4POP   C148  148   2.044   0.869   0.806
    4POP   C149  149   2.138   0.872   0.702
    4POP   C150  150   2.216   0.760   0.672
    4POP   C151  151   2.196   0.644   0.748
    4POP   C152  152   2.103   0.641   0.852
    4POP   C153  153   2.327   0.763   0.569
    4POP   N154  154   2.282   0.794   0.434
    4POP   C155  155   2.438   0.860   0.612
    4POP   C156  156   1.774   0.595   0.754
    4POP   C157  157   1.755   0.500   0.653
    4POP   H158  158   1.773   0.219   0.844
    4POP   H159  159   1.809   0.383   1.018
    4POP   H160  160   2.013   0.915   1.098
    4POP   H161  161   1.807   1.024   1.475
    4POP   H162  162   1.782   0.849   1.469
    4POP   H163  163   1.673   0.961   1.378
    4POP   H164  164   1.670   0.741   1.290
    4POP   H165  165   1.648   0.582   1.109
    4POP   H166  166   1.986   0.958   0.826
    4POP   H167  167   2.152   0.965   0.646
    4POP   H168  168   2.254   0.554   0.727
    4POP   H169  169   2.092   0.549   0.910
    4POP   H170  170   2.372   0.662   0.564
    4POP   H171  171   2.202   0.853   0.420
    4POP   H172  172   2.523   0.859   0.542
    4POP   H173  173   2.477   0.833   0.711
    4POP   H174  174   2.402   0.963   0.616
    4POP   H175  175   1.777   0.700   0.727
    4POP   H176  176   1.745   0.534   0.550
    5CAP   C177  177  -0.234  -0.671   0.224
    5CAP   O178  178  -0.273  -0.536   0.196
    5CAP   H179  179  -0.256  -0.739   0.141
    5CAP   H180  180  -0.288  -0.705   0.313
    5CAP   H181  181  -0.127  -0.671   0.246
    6CAP   C182  182   2.698   0.633   0.344
    6CAP   C183  183   2.581   0.688   0.259
    6CAP   C184  184   2.627   0.819   0.194
    6CAP   C185  185   2.540   0.583   0.155
    6CAP   O186  186   2.475   0.709   0.354
    6CAP   C187  187   2.359   0.772   0.323
    6CAP   O188  188   2.327   0.812   0.212
    6CAP   H189  189   2.786   0.611   0.283
    6CAP   H190  190   2.726   0.705   0.421
    6CAP   H191  191   2.668   0.541   0.396
    6CAP   H192  192   2.649   0.895   0.270
    6CAP   H193  193   2.551   0.861   0.128
    6CAP   H194  194   2.718   0.804   0.134
    6CAP   H195  195   2.501   0.494   0.205
    6CAP   H196  196   2.461   0.621   0.090
    6CAP   H197  197   2.625   0.554   0.093
  5.0000000  5.0000000  5.0000000
