FOO
 3543
    1MOP     C1    1   0.506   2.338   1.660
    1MOP     O1    2   0.470   2.256   1.744
    1MOP     C2    3   0.464   2.316   1.519
    1MOP     C3    4   0.504   2.404   1.418
    1MOP     C4    5   0.459   2.387   1.287
    1MOP     C5    6   0.374   2.281   1.252
    1MOP     C6    7   0.328   2.263   1.113
    1MOP     C7    8   0.335   2.140   1.043
    1MOP     C8    9   0.280   2.132   0.914
    1MOP     C9   10   0.221   2.241   0.851
    1MOP     O2   11   0.172   2.219   0.724
    1MOP    C10   12   0.110   2.329   0.655
    1MOP    C11   13   0.216   2.364   0.920
    1MOP    C12   14   0.269   2.374   1.049
    1MOP    C13   15   0.399   2.020   1.099
    1MOP    C14   16   0.336   1.894   1.093
    1MOP    C15   17   0.397   1.781   1.149
    1MOP    C16   18   0.521   1.793   1.212
    1MOP    C17   19   0.588   1.916   1.218
    1MOP    C18   20   0.526   2.028   1.160
    1MOP    C19   21   0.721   1.925   1.292
    1MOP     N1   22   0.697   1.903   1.434
    1MOP    C20   23   0.791   2.062   1.282
    1MOP    C21   24   0.334   2.192   1.353
    1MOP    C22   25   0.378   2.209   1.485
    1MOP     H1   26   0.569   2.489   1.441
    1MOP     H2   27   0.492   2.457   1.209
    1MOP     H3   28   0.286   2.038   0.859
    1MOP     H4   29   0.075   2.297   0.557
    1MOP     H5   30   0.181   2.412   0.641
    1MOP     H6   31   0.023   2.366   0.711
    1MOP     H7   32   0.171   2.451   0.876
    1MOP     H8   33   0.261   2.469   1.101
    1MOP     H9   34   0.239   1.885   1.048
    1MOP    H10   35   0.346   1.685   1.145
    1MOP    H11   36   0.564   1.705   1.257
    1MOP    H12   37   0.574   2.125   1.161
    1MOP    H13   38   0.791   1.854   1.248
    1MOP    H14   39   0.653   1.980   1.483
    1MOP    H15   40   0.731   2.140   1.329
    1MOP    H16   41   0.809   2.088   1.177
    1MOP    H17   42   0.887   2.058   1.333
    1MOP    H18   43   0.269   2.110   1.330
    1MOP    H19   44   0.345   2.140   1.562
    2MOP    C23   45   0.705   1.791   1.513
    2MOP     O3   46   0.670   1.821   1.625
    2MOP    C24   47   0.752   1.650   1.487
    2MOP    C25   48   0.805   1.602   1.366
    2MOP    C26   49   0.846   1.470   1.351
    2MOP    C27   50   0.836   1.378   1.457
    2MOP    C28   51   0.875   1.236   1.437
    2MOP    C29   52   0.951   1.160   1.530
    2MOP    C30   53   0.977   1.026   1.501
    2MOP    C31   54   0.933   0.963   1.385
    2MOP     O4   55   0.966   0.830   1.368
    2MOP    C32   56   0.934   0.767   1.244
    2MOP    C33   57   0.859   1.040   1.293
    2MOP    C34   58   0.830   1.173   1.320
    2MOP    C35   59   1.007   1.214   1.656
    2MOP    C36   60   0.993   1.141   1.776
    2MOP    C37   61   1.048   1.188   1.895
    2MOP    C38   62   1.119   1.308   1.897
    2MOP    C39   63   1.138   1.382   1.780
    2MOP    C40   64   1.080   1.334   1.660
    2MOP    C41   65   1.221   1.507   1.785
    2MOP     N2   66   1.136   1.625   1.777
    2MOP    C42   67   1.324   1.514   1.672
    2MOP    C43   68   0.783   1.424   1.578
    2MOP    C44   69   0.743   1.557   1.593
    2MOP    H20   70   0.817   1.664   1.278
    2MOP    H21   71   0.887   1.437   1.256
    2MOP    H22   72   1.036   0.966   1.570
    2MOP    H23   73   0.972   0.664   1.244
    2MOP    H24   74   0.978   0.820   1.159
    2MOP    H25   75   0.825   0.762   1.230
    2MOP    H26   76   0.821   0.997   1.201
    2MOP    H27   77   0.770   1.228   1.248
    2MOP    H28   78   0.938   1.048   1.776
    2MOP    H29   79   1.035   1.131   1.987
    2MOP    H30   80   1.160   1.343   1.991
    2MOP    H31   81   1.093   1.389   1.568
    2MOP    H32   82   1.278   1.508   1.879
    2MOP    H33   83   1.103   1.652   1.684
    2MOP    H34   84   1.276   1.525   1.575
    2MOP    H35   85   1.385   1.423   1.671
    2MOP    H36   86   1.390   1.600   1.686
    2MOP    H37   87   0.772   1.355   1.662
    2MOP    H38   88   0.702   1.586   1.689
    3MOP    C45   89   1.129   1.723   1.874
    3MOP     O5   90   1.174   1.703   1.986
    3MOP    C46   91   1.083   1.857   1.836
    3MOP    C47   92   0.994   1.876   1.728
    3MOP    C48   93   0.959   2.006   1.687
    3MOP    C49   94   1.013   2.118   1.749
    3MOP    C50   95   0.985   2.253   1.698
    3MOP    C51   96   0.946   2.362   1.780
    3MOP    C52   97   0.933   2.489   1.721
    3MOP    C53   98   0.953   2.511   1.585
    3MOP     O6   99   0.937   2.640   1.540
    3MOP    C54  100   0.962   2.668   1.402
    3MOP    C55  101   0.988   2.402   1.505
    3MOP    C56  102   1.004   2.276   1.561
    3MOP    C57  103   0.917   2.349   1.924
    3MOP    C58  104   0.965   2.445   2.016
    3MOP    C59  105   0.933   2.436   2.151
    3MOP    C60  106   0.852   2.332   2.198
    3MOP    C61  107   0.801   2.236   2.108
    3MOP    C62  108   0.836   2.246   1.973
    3MOP    C63  109   0.706   2.130   2.159
    3MOP     N3  110   0.766   1.998   2.146
    3MOP    C64  111   0.574   2.130   2.082
    3MOP    C65  112   1.099   2.100   1.859
    3MOP    C66  113   1.134   1.971   1.901
    3MOP    H39  114   0.950   1.791   1.677
    3MOP    H40  115   0.890   2.018   1.604
    3MOP    H41  116   0.903   2.574   1.781
    3MOP    H42  117   0.947   2.775   1.382
    3MOP    H43  118   0.893   2.612   1.338
    3MOP    H44  119   1.064   2.643   1.375
    3MOP    H45  120   1.005   2.413   1.398
    3MOP    H46  121   1.034   2.193   1.497
    3MOP    H47  122   1.028   2.527   1.981
    3MOP    H48  123   0.971   2.510   2.222
    3MOP    H49  124   0.828   2.326   2.303
    3MOP    H50  125   0.795   2.173   1.903
    3MOP    H51  126   0.683   2.151   2.264
    3MOP    H52  127   0.758   1.953   2.056
    3MOP    H53  128   0.589   2.103   1.977
    3MOP    H54  129   0.530   2.230   2.086
    3MOP    H55  130   0.504   2.060   2.127
    3MOP    H56  131   1.142   2.186   1.908
    3MOP    H57  132   1.203   1.959   1.985
    4MOP    C67  133   0.796   1.915   2.253
    4MOP     O7  134   0.797   1.960   2.367
    4MOP    C68  135   0.811   1.770   2.231
    4MOP    C69  136   0.851   1.719   2.106
    4MOP    C70  137   0.857   1.581   2.084
    4MOP    C71  138   0.822   1.490   2.185
    4MOP    C72  139   0.816   1.345   2.157
    4MOP    C73  140   0.869   1.245   2.243
    4MOP    C74  141   0.848   1.111   2.209
    4MOP    C75  142   0.779   1.070   2.095
    4MOP     O8  143   0.768   0.935   2.074
    4MOP    C76  144   0.697   0.890   1.958
    4MOP    C77  145   0.728   1.170   2.011
    4MOP    C78  146   0.747   1.306   2.041
    4MOP    C79  147   0.947   1.273   2.365
    4MOP    C80  148   0.922   1.201   2.484
    4MOP    C81  149   0.997   1.224   2.598
    4MOP    C82  150   1.099   1.319   2.598
    4MOP    C83  151   1.127   1.392   2.482
    4MOP    C84  152   1.051   1.368   2.366
    4MOP    C85  153   1.243   1.491   2.483
    4MOP     N4  154   1.197   1.625   2.450
    4MOP    C86  155   1.349   1.450   2.381
    4MOP    C87  156   0.784   1.541   2.309
    4MOP    C88  157   0.779   1.679   2.333
    4MOP    H58  158   0.879   1.786   2.025
    4MOP    H59  159   0.890   1.544   1.987
    4MOP    H60  160   0.889   1.032   2.272
    4MOP    H61  161   0.697   0.781   1.955
    4MOP    H62  162   0.746   0.927   1.865
    4MOP    H63  163   0.593   0.925   1.959
    4MOP    H64  164   0.674   1.145   1.920
    4MOP    H65  165   0.705   1.379   1.975
    4MOP    H66  166   0.843   1.127   2.486
    4MOP    H67  167   0.976   1.167   2.689
    4MOP    H68  168   1.156   1.335   2.689
    4MOP    H69  169   1.073   1.424   2.276
    4MOP    H70  170   1.289   1.488   2.582
    4MOP    H71  171   1.175   1.644   2.353
    4MOP    H72  172   1.310   1.455   2.279
    4MOP    H73  173   1.383   1.348   2.400
    4MOP    H74  174   1.435   1.518   2.388
    4MOP    H75  175   0.756   1.472   2.389
    4MOP    H76  176   0.746   1.715   2.430
    5MOP    C89  177   1.222   1.736   2.529
    5MOP     O9  178   1.258   1.721   2.645
    5MOP    C90  179   1.219   1.870   2.468
    5MOP    C91  180   1.146   1.897   2.351
    5MOP    C92  181   1.150   2.025   2.293
    5MOP    C93  182   1.227   2.128   2.349
    5MOP    C94  183   1.239   2.259   2.283
    5MOP    C95  184   1.223   2.383   2.349
    5MOP    C96  185   1.248   2.501   2.277
    5MOP    C97  186   1.286   2.501   2.143
    5MOP    O10  187   1.304   2.624   2.084
    5MOP    C98  188   1.344   2.627   1.946
    5MOP    C99  189   1.301   2.377   2.079
    5MOP   C100  190   1.278   2.258   2.148
    5MOP   C101  191   1.177   2.397   2.489
    5MOP   C102  192   1.238   2.489   2.575
    5MOP   C103  193   1.192   2.507   2.706
    5MOP   C104  194   1.084   2.431   2.753
    5MOP   C105  195   1.021   2.338   2.669
    5MOP   C106  196   1.068   2.321   2.538
    5MOP   C107  197   0.901   2.262   2.722
    5MOP     N5  198   0.927   2.118   2.718
    5MOP   C108  199   0.776   2.290   2.638
    5MOP   C109  200   1.298   2.101   2.468
    5MOP   C110  201   1.293   1.974   2.525
    5MOP    H77  202   1.086   1.821   2.303
    5MOP    H78  203   1.092   2.044   2.203
    5MOP    H79  204   1.233   2.598   2.324
    5MOP    H80  205   1.356   2.732   1.914
    5MOP    H81  206   1.269   2.580   1.881
    5MOP    H82  207   1.441   2.577   1.932
    5MOP    H83  208   1.330   2.370   1.975
    5MOP    H84  209   1.294   2.164   2.097
    5MOP    H85  210   1.322   2.549   2.541
    5MOP    H86  211   1.240   2.578   2.771
    5MOP    H87  212   1.051   2.446   2.855
    5MOP    H88  213   1.019   2.250   2.473
    5MOP    H89  214   0.881   2.295   2.824
    5MOP    H90  215   0.907   2.069   2.631
    5MOP    H91  216   0.788   2.251   2.536
    5MOP    H92  217   0.758   2.398   2.633
    5MOP    H93  218   0.690   2.242   2.683
    5MOP    H94  219   1.359   2.179   2.511
    5MOP    H95  220   1.352   1.955   2.615
    6MOP   C111  221   0.928   2.038   2.831
    6MOP    O11  222   0.938   2.090   2.943
    6MOP   C112  223   0.901   1.894   2.819
    6MOP   C113  224   0.920   1.826   2.697
    6MOP   C114  225   0.886   1.690   2.686
    6MOP   C115  226   0.831   1.621   2.795
    6MOP   C116  227   0.784   1.481   2.778
    6MOP   C117  228   0.817   1.376   2.867
    6MOP   C118  229   0.758   1.250   2.847
    6MOP   C119  230   0.669   1.225   2.742
    6MOP    O12  231   0.621   1.097   2.733
    6MOP   C120  232   0.531   1.065   2.624
    6MOP   C121  233   0.638   1.330   2.655
    6MOP   C122  234   0.695   1.456   2.673
    6MOP   C123  235   0.914   1.390   2.978
    6MOP   C124  236   0.885   1.338   3.105
    6MOP   C125  237   0.976   1.354   3.210
    6MOP   C126  238   1.098   1.417   3.188
    6MOP   C127  239   1.131   1.467   3.062
    6MOP   C128  240   1.038   1.453   2.957
    6MOP   C129  241   1.265   1.533   3.040
    6MOP     N6  242   1.247   1.674   3.007
    6MOP   C130  243   1.343   1.467   2.925
    6MOP   C131  244   0.816   1.687   2.916
    6MOP   C132  245   0.851   1.821   2.929
    6MOP    H96  246   0.960   1.877   2.610
    6MOP    H97  247   0.903   1.639   2.592
    6MOP    H98  248   0.783   1.168   2.913
    6MOP    H99  249   0.502   0.960   2.631
    6MOP   H100  250   0.578   1.083   2.528
    6MOP   H101  251   0.440   1.127   2.631
    6MOP   H102  252   0.570   1.316   2.572
    6MOP   H103  253   0.667   1.536   2.606
    6MOP   H104  254   0.791   1.289   3.123
    6MOP   H105  255   0.952   1.316   3.309
    6MOP   H106  256   1.167   1.429   3.272
    6MOP   H107  257   1.063   1.493   2.859
    6MOP   H108  258   1.326   1.522   3.131
    6MOP   H109  259   1.248   1.700   2.909
    6MOP   H110  260   1.292   1.482   2.830
    6MOP   H111  261   1.353   1.360   2.944
    6MOP   H112  262   1.443   1.510   2.919
    6MOP   H113  263   0.775   1.634   3.002
    6MOP   H114  264   0.837   1.872   3.025
    7MOP   C133  265   1.266   1.775   3.099
    7MOP    O13  266   1.276   1.748   3.219
    7MOP   C134  267   1.295   1.910   3.051
    7MOP   C135  268   1.254   1.953   2.923
    7MOP   C136  269   1.292   2.078   2.874
    7MOP   C137  270   1.376   2.163   2.949
    7MOP   C138  271   1.428   2.288   2.891
    7MOP   C139  272   1.428   2.412   2.958
    7MOP   C140  273   1.491   2.522   2.896
    7MOP   C141  274   1.548   2.514   2.770
    7MOP    O14  275   1.603   2.629   2.720
    7MOP   C142  276   1.668   2.624   2.591
    7MOP   C143  277   1.546   2.390   2.703
    7MOP   C144  278   1.487   2.279   2.763
    7MOP   C145  279   1.364   2.433   3.089
    7MOP   C146  280   1.432   2.497   3.193
    7MOP   C147  281   1.370   2.517   3.317
    7MOP   C148  282   1.239   2.475   3.337
    7MOP   C149  283   1.167   2.413   3.234
    7MOP   C150  284   1.232   2.391   3.111
    7MOP   C151  285   1.023   2.372   3.257
    7MOP     N7  286   1.016   2.227   3.277
    7MOP   C152  287   0.931   2.407   3.140
    7MOP   C153  288   1.413   2.122   3.078
    7MOP   C154  289   1.372   1.999   3.129
    7MOP   H115  290   1.193   1.888   2.860
    7MOP   H116  291   1.258   2.109   2.776
    7MOP   H117  292   1.491   2.618   2.946
    7MOP   H118  293   1.708   2.723   2.566
    7MOP   H119  294   1.597   2.595   2.513
    7MOP   H120  295   1.751   2.553   2.593
    7MOP   H121  296   1.589   2.378   2.605
    7MOP   H122  297   1.489   2.184   2.711
    7MOP   H123  298   1.534   2.530   3.179
    7MOP   H124  299   1.424   2.565   3.398
    7MOP   H125  300   1.191   2.491   3.433
    7MOP   H126  301   1.179   2.339   3.030
    7MOP   H127  302   0.985   2.425   3.345
    7MOP   H128  303   1.019   2.167   3.195
    7MOP   H129  304   0.954   2.347   3.052
    7MOP   H130  305   0.942   2.513   3.115
    7MOP   H131  306   0.827   2.390   3.169
    7MOP   H132  307   1.476   2.186   3.138
    7MOP   H133  308   1.404   1.970   3.229
    8MOP   C155  309   0.977   2.167   3.397
    8MOP    O15  310   0.961   2.238   3.495
    8MOP   C156  311   0.942   2.024   3.401
    8MOP   C157  312   0.968   1.938   3.293
    8MOP   C158  313   0.924   1.804   3.296
    8MOP   C159  314   0.854   1.755   3.407
    8MOP   C160  315   0.798   1.619   3.407
    8MOP   C161  316   0.822   1.525   3.510
    8MOP   C162  317   0.754   1.403   3.508
    8MOP   C163  318   0.663   1.370   3.406
    8MOP    O16  319   0.603   1.246   3.415
    8MOP   C164  320   0.503   1.213   3.319
    8MOP   C165  321   0.641   1.464   3.305
    8MOP   C166  322   0.708   1.586   3.305
    8MOP   C167  323   0.918   1.550   3.620
    8MOP   C168  324   0.881   1.527   3.753
    8MOP   C169  325   0.971   1.551   3.858
    8MOP   C170  326   1.100   1.598   3.829
    8MOP   C171  327   1.140   1.620   3.697
    8MOP   C172  328   1.048   1.596   3.593
    8MOP   C173  329   1.281   1.669   3.670
    8MOP     N8  330   1.278   1.810   3.635
    8MOP   C174  331   1.350   1.592   3.557
    8MOP   C175  332   0.834   1.839   3.517
    8MOP   C176  333   0.877   1.972   3.514
    8MOP   H134  334   1.021   1.972   3.204
    8MOP   H135  335   0.944   1.739   3.212
    8MOP   H136  336   0.772   1.329   3.585
    8MOP   H137  337   0.460   1.115   3.343
    8MOP   H138  338   0.546   1.207   3.218
    8MOP   H139  339   0.421   1.286   3.319
    8MOP   H140  340   0.572   1.443   3.223
    8MOP   H141  341   0.689   1.658   3.225
    8MOP   H142  342   0.781   1.492   3.776
    8MOP   H143  343   0.940   1.535   3.961
    8MOP   H144  344   1.168   1.618   3.910
    8MOP   H145  345   1.078   1.615   3.490
    8MOP   H146  346   1.342   1.654   3.761
    8MOP   H147  347   1.252   1.836   3.540
    8MOP   H148  348   1.302   1.611   3.461
    8MOP   H149  349   1.346   1.484   3.577
    8MOP   H150  350   1.454   1.623   3.549
    8MOP   H151  351   0.781   1.802   3.604
    8MOP   H152  352   0.858   2.035   3.600
    9CAP   C177  353   0.591   2.483   1.826
    9CAP    O17  354   0.579   2.451   1.687
    9CAP   H153  355   0.493   2.506   1.869
    9CAP   H154  356   0.655   2.572   1.837
    9CAP   H155  357   0.636   2.401   1.882
   10CAP   C178  358   1.286   2.271   3.650
   10CAP   C179  359   1.278   2.155   3.750
   10CAP   C180  360   1.394   2.171   3.850
   10CAP   C181  361   1.143   2.162   3.822
   10CAP    O18  362   1.288   2.036   3.669
   10CAP   C182  363   1.288   1.913   3.725
   10CAP    O19  364   1.298   1.888   3.845
   10CAP   H156  365   1.273   2.367   3.701
   10CAP   H157  366   1.384   2.271   3.601
   10CAP   H158  367   1.209   2.261   3.574
   10CAP   H159  368   1.489   2.150   3.801
   10CAP   H160  369   1.383   2.104   3.935
   10CAP   H161  370   1.396   2.274   3.890
   10CAP   H162  371   1.060   2.149   3.751
   10CAP   H163  372   1.134   2.084   3.898
   10CAP   H164  373   1.130   2.259   3.871
   11TCM     c1  374   4.329   0.247   2.397
   11TCM    cl1  375   4.440   0.370   2.333
   11TCM    cl2  376   4.318   0.263   2.574
   11TCM     h1  377   4.228   0.262   2.352
   11TCM    cl3  378   4.389   0.085   2.356
   12TCM     c1  379   1.940   2.412   3.892
   12TCM    cl1  380   1.929   2.292   3.761
   12TCM    cl2  381   1.884   2.338   4.044
   12TCM     h1  382   2.045   2.445   3.904
   12TCM    cl3  383   1.838   2.552   3.853
   13TCM     c1  384   1.902   2.125   0.581
   13TCM    cl1  385   1.886   2.225   0.435
   13TCM    cl2  386   1.883   1.954   0.538
   13TCM     h1  387   2.002   2.141   0.626
   13TCM    cl3  388   1.776   2.172   0.698
   14TCM     c1  389   2.649   0.229   3.415
   14TCM    cl1  390   2.636   0.112   3.282
   14TCM    cl2  391   2.487   0.257   3.485
   14TCM     h1  392   2.716   0.190   3.493
   14TCM    cl3  393   2.713   0.383   3.352
   15TCM     c1  394   2.095   1.640   2.376
   15TCM    cl1  395   2.123   1.465   2.389
   15TCM    cl2  396   2.126   1.692   2.209
   15TCM     h1  397   1.990   1.663   2.403
   15TCM    cl3  398   2.205   1.726   2.486
   16TCM     c1  399   0.030   1.165   0.286
   16TCM    cl1  400   0.010   1.228   0.451
   16TCM    cl2  401   0.204   1.157   0.247
   16TCM     h1  402  -0.014   1.063   0.280
   16TCM    cl3  403  -0.052   1.272   0.171
   17TCM     c1  404   3.033   0.714   2.116
   17TCM    cl1  405   2.871   0.776   2.157
   17TCM    cl2  406   3.017   0.560   2.029
   17TCM     h1  407   3.085   0.788   2.052
   17TCM    cl3  408   3.126   0.689   2.266
   18TCM     c1  409   3.610   4.086   4.434
   18TCM    cl1  410   3.611   4.241   4.522
   18TCM    cl2  411   3.601   4.118   4.259
   18TCM     h1  412   3.702   4.029   4.456
   18TCM    cl3  413   3.468   3.991   4.484
   19TCM     c1  414   0.770   4.071   3.195
   19TCM    cl1  415   0.595   4.062   3.163
   19TCM    cl2  416   0.850   3.929   3.125
   19TCM     h1  417   0.811   4.163   3.149
   19TCM    cl3  418   0.798   4.075   3.370
   20TCM     c1  419   4.038   1.152   2.463
   20TCM    cl1  420   4.183   1.232   2.528
   20TCM    cl2  421   4.082   1.057   2.319
   20TCM     h1  422   3.995   1.085   2.540
   20TCM    cl3  423   3.918   1.275   2.417
   21TCM     c1  424   4.896   3.114   4.225
   21TCM    cl1  425   4.989   2.964   4.246
   21TCM    cl2  426   4.961   3.240   4.333
   21TCM     h1  427   4.903   3.148   4.120
   21TCM    cl3  428   4.725   3.084   4.266
   22TCM     c1  429   0.692   2.915   1.129
   22TCM    cl1  430   0.562   3.036   1.142
   22TCM    cl2  431   0.834   2.990   1.051
   22TCM     h1  432   0.720   2.880   1.230
   22TCM    cl3  433   0.636   2.778   1.030
   23TCM     c1  434   4.731   3.355   1.690
   23TCM    cl1  435   4.899   3.407   1.717
   23TCM    cl2  436   4.713   3.185   1.740
   23TCM     h1  437   4.662   3.418   1.750
   23TCM    cl3  438   4.691   3.370   1.518
   24TCM     c1  439   4.297   4.329   0.451
   24TCM    cl1  440   4.240   4.441   0.325
   24TCM    cl2  441   4.157   4.248   0.526
   24TCM     h1  442   4.364   4.253   0.405
   24TCM    cl3  443   4.386   4.420   0.575
   25TCM     c1  444   2.454   0.133   3.587
   25TCM    cl1  445   2.313   0.240   3.600
   25TCM    cl2  446   2.601   0.223   3.629
   25TCM     h1  447   2.442   0.047   3.656
   25TCM    cl3  448   2.467   0.073   3.420
   26TCM     c1  449   2.932   1.820   2.860
   26TCM    cl1  450   3.012   1.936   2.751
   26TCM    cl2  451   2.949   1.656   2.794
   26TCM     h1  452   2.980   1.825   2.960
   26TCM    cl3  453   2.760   1.861   2.874
   27TCM     c1  454   0.651   2.956   4.802
   27TCM    cl1  455   0.648   2.779   4.816
   27TCM    cl2  456   0.529   3.009   4.683
   27TCM     h1  457   0.629   3.002   4.901
   27TCM    cl3  458   0.812   3.008   4.748
   28TCM     c1  459   4.648   3.508   2.114
   28TCM    cl1  460   4.743   3.499   1.964
   28TCM    cl2  461   4.656   3.353   2.199
   28TCM     h1  462   4.688   3.589   2.179
   28TCM    cl3  463   4.478   3.544   2.074
   29TCM     c1  464   0.196   3.572   4.591
   29TCM    cl1  465   0.053   3.560   4.486
   29TCM    cl2  466   0.240   3.743   4.613
   29TCM     h1  467   0.173   3.527   4.690
   29TCM    cl3  468   0.332   3.485   4.517
   30TCM     c1  469   2.115   1.008   3.182
   30TCM    cl1  470   2.206   0.958   3.326
   30TCM    cl2  471   2.227   1.072   3.059
   30TCM     h1  472   2.060   0.921   3.140
   30TCM    cl3  473   1.998   1.135   3.227
   31TCM     c1  474   2.153   0.998   3.631
   31TCM    cl1  475   2.108   0.932   3.790
   31TCM    cl2  476   2.025   0.960   3.513
   31TCM     h1  477   2.165   1.108   3.639
   31TCM    cl3  478   2.306   0.925   3.577
   32TCM     c1  479   3.102   4.634   4.569
   32TCM    cl1  480   3.265   4.575   4.607
   32TCM    cl2  481   2.981   4.516   4.626
   32TCM     h1  482   3.085   4.731   4.620
   32TCM    cl3  483   3.086   4.655   4.393
   33TCM     c1  484   2.712   2.385   1.734
   33TCM    cl1  485   2.740   2.214   1.696
   33TCM    cl2  486   2.720   2.408   1.911
   33TCM     h1  487   2.790   2.447   1.685
   33TCM    cl3  488   2.552   2.434   1.676
   34TCM     c1  489   2.748   1.932   4.789
   34TCM    cl1  490   2.625   1.856   4.686
   34TCM    cl2  491   2.737   1.864   4.953
   34TCM     h1  492   2.849   1.913   4.748
   34TCM    cl3  493   2.719   2.107   4.796
   35TCM     c1  494   4.903   0.187   1.064
   35TCM    cl1  495   4.765   0.295   1.036
   35TCM    cl2  496   4.958   0.204   1.232
   35TCM     h1  497   4.872   0.082   1.046
   35TCM    cl3  498   5.035   0.229   0.953
   36TCM     c1  499   3.052   0.756   0.974
   36TCM    cl1  500   3.185   0.686   1.069
   36TCM    cl2  501   3.079   0.721   0.801
   36TCM     h1  502   2.956   0.712   1.006
   36TCM    cl3  503   3.048   0.932   0.998
   37TCM     c1  504   3.940   3.187   1.615
   37TCM    cl1  505   3.834   3.093   1.724
   37TCM    cl2  506   3.935   3.117   1.452
   37TCM     h1  507   3.906   3.292   1.612
   37TCM    cl3  508   4.107   3.181   1.677
   38TCM     c1  509   1.112   0.787   3.416
   38TCM    cl1  510   1.188   0.882   3.546
   38TCM    cl2  511   0.995   0.889   3.329
   38TCM     h1  512   1.190   0.752   3.346
   38TCM    cl3  513   1.028   0.647   3.486
   39TCM     c1  514   0.672   0.081   3.852
   39TCM    cl1  515   0.759  -0.052   3.933
   39TCM    cl2  516   0.637   0.035   3.684
   39TCM     h1  517   0.578   0.102   3.906
   39TCM    cl3  518   0.774   0.227   3.853
   40TCM     c1  519   2.841   3.547   3.190
   40TCM    cl1  520   2.850   3.373   3.225
   40TCM    cl2  521   2.841   3.639   3.342
   40TCM     h1  522   2.929   3.577   3.129
   40TCM    cl3  523   2.692   3.581   3.099
   41TCM     c1  524   0.724   3.195   1.393
   41TCM    cl1  525   0.563   3.230   1.328
   41TCM    cl2  526   0.826   3.341   1.385
   41TCM     h1  527   0.715   3.163   1.499
   41TCM    cl3  528   0.800   3.065   1.299
   42TCM     c1  529   4.972   1.891   1.855
   42TCM    cl1  530   5.122   1.912   1.762
   42TCM    cl2  531   4.832   1.916   1.748
   42TCM     h1  532   4.969   1.788   1.897
   42TCM    cl3  533   4.967   2.010   1.987
   43TCM     c1  534   1.273   3.521   2.011
   43TCM    cl1  535   1.258   3.426   1.861
   43TCM    cl2  536   1.412   3.462   2.104
   43TCM     h1  537   1.287   3.628   1.986
   43TCM    cl3  538   1.124   3.502   2.107
   44TCM     c1  539   3.946   1.302   1.780
   44TCM    cl1  540   3.829   1.435   1.797
   44TCM    cl2  541   4.106   1.369   1.742
   44TCM     h1  542   3.952   1.246   1.876
   44TCM    cl3  543   3.894   1.193   1.650
   45TCM     c1  544   0.665   2.122   1.701
   45TCM    cl1  545   0.747   2.145   1.544
   45TCM    cl2  546   0.750   1.998   1.795
   45TCM     h1  547   0.665   2.218   1.757
   45TCM    cl3  548   0.497   2.071   1.672
   46TCM     c1  549   2.297   3.780   1.532
   46TCM    cl1  550   2.285   3.641   1.643
   46TCM    cl2  551   2.257   3.727   1.367
   46TCM     h1  552   2.225   3.858   1.564
   46TCM    cl3  553   2.462   3.845   1.535
   47TCM     c1  554   1.029   4.426   0.854
   47TCM    cl1  555   0.981   4.416   1.025
   47TCM    cl2  556   1.065   4.595   0.813
   47TCM     h1  557   1.119   4.364   0.838
   47TCM    cl3  558   0.896   4.367   0.752
   48TCM     c1  559   0.237   1.203   4.532
   48TCM    cl1  560   0.361   1.127   4.430
   48TCM    cl2  561   0.297   1.217   4.698
   48TCM     h1  562   0.214   1.304   4.492
   48TCM    cl3  563   0.089   1.104   4.530
   49TCM     c1  564   1.326   3.779   4.505
   49TCM    cl1  565   1.423   3.883   4.612
   49TCM    cl2  566   1.396   3.782   4.341
   49TCM     h1  567   1.327   3.675   4.543
   49TCM    cl3  568   1.159   3.839   4.500
   50TCM     c1  569   0.319   0.656   4.558
   50TCM    cl1  570   0.245   0.516   4.477
   50TCM    cl2  571   0.461   0.601   4.651
   50TCM     h1  572   0.351   0.730   4.483
   50TCM    cl3  573   0.202   0.730   4.669
   51TCM     c1  574   1.091   4.198   1.981
   51TCM    cl1  575   0.992   4.228   2.126
   51TCM    cl2  576   1.229   4.311   1.980
   51TCM     h1  577   1.129   4.094   1.983
   51TCM    cl3  578   0.993   4.223   1.835
   52TCM     c1  579   3.680   4.004   4.887
   52TCM    cl1  580   3.796   3.891   4.960
   52TCM    cl2  581   3.767   4.146   4.824
   52TCM     h1  582   3.626   3.953   4.805
   52TCM    cl3  583   3.563   4.057   5.011
   53TCM     c1  584   1.638   1.449   1.172
   53TCM    cl1  585   1.467   1.434   1.127
   53TCM    cl2  586   1.707   1.594   1.096
   53TCM     h1  587   1.647   1.457   1.282
   53TCM    cl3  588   1.727   1.305   1.116
   54TCM     c1  589   3.483   0.569   2.030
   54TCM    cl1  590   3.362   0.604   1.905
   54TCM    cl2  591   3.409   0.469   2.158
   54TCM     h1  592   3.568   0.514   1.985
   54TCM    cl3  593   3.541   0.721   2.101
   55TCM     c1  594   0.154   0.507   1.724
   55TCM    cl1  595   0.261   0.420   1.611
   55TCM    cl2  596   0.070   0.637   1.637
   55TCM     h1  597   0.080   0.437   1.766
   55TCM    cl3  598   0.252   0.577   1.855
   56TCM     c1  599   3.855   2.514   0.843
   56TCM    cl1  600   3.757   2.552   0.987
   56TCM    cl2  601   3.871   2.337   0.828
   56TCM     h1  602   3.804   2.554   0.753
   56TCM    cl3  603   4.016   2.587   0.860
   57TCM     c1  604   4.170   0.000   0.503
   57TCM    cl1  605   4.301  -0.074   0.409
   57TCM    cl2  606   4.212  -0.004   0.676
   57TCM     h1  607   4.156   0.105   0.471
   57TCM    cl3  608   4.020  -0.092   0.478
   58TCM     c1  609   4.943   1.688   3.131
   58TCM    cl1  610   4.983   1.847   3.200
   58TCM    cl2  611   5.012   1.675   2.967
   58TCM     h1  612   4.985   1.608   3.195
   58TCM    cl3  613   4.766   1.670   3.122
   59TCM     c1  614   2.027   3.488   2.149
   59TCM    cl1  615   1.851   3.478   2.164
   59TCM    cl2  616   2.102   3.358   2.243
   59TCM     h1  617   2.056   3.478   2.042
   59TCM    cl3  618   2.083   3.646   2.210
   60TCM     c1  619   0.572   0.164   4.596
   60TCM    cl1  620   0.462   0.078   4.486
   60TCM    cl2  621   0.703   0.054   4.646
   60TCM     h1  622   0.616   0.251   4.543
   60TCM    cl3  623   0.482   0.219   4.739
   61TCM     c1  624   4.584   0.595   4.261
   61TCM    cl1  625   4.486   0.448   4.269
   61TCM    cl2  626   4.687   0.606   4.405
   61TCM     h1  627   4.648   0.592   4.170
   61TCM    cl3  628   4.478   0.737   4.254
   62TCM     c1  629   3.827   4.587   1.293
   62TCM    cl1  630   3.740   4.739   1.263
   62TCM    cl2  631   3.870   4.576   1.466
   62TCM     h1  632   3.761   4.501   1.266
   62TCM    cl3  633   3.975   4.582   1.195
   63TCM     c1  634   4.498   4.465   4.621
   63TCM    cl1  635   4.540   4.479   4.793
   63TCM    cl2  636   4.431   4.620   4.564
   63TCM     h1  637   4.590   4.441   4.563
   63TCM    cl3  638   4.378   4.337   4.600
   64TCM     c1  639   4.024   4.237   1.507
   64TCM    cl1  640   4.122   4.340   1.401
   64TCM    cl2  641   3.861   4.306   1.524
   64TCM     h1  642   4.017   4.135   1.463
   64TCM    cl3  643   4.101   4.227   1.667
   65TCM     c1  644   3.867   3.961   3.106
   65TCM    cl1  645   3.961   3.915   3.249
   65TCM    cl2  646   3.974   3.964   2.963
   65TCM     h1  647   3.786   3.887   3.089
   65TCM    cl3  648   3.797   4.123   3.130
   66TCM     c1  649   0.399   0.788   3.138
   66TCM    cl1  650   0.566   0.731   3.156
   66TCM    cl2  651   0.327   0.718   2.992
   66TCM     h1  652   0.340   0.757   3.227
   66TCM    cl3  653   0.398   0.966   3.125
   67TCM     c1  654   3.047   2.554   2.577
   67TCM    cl1  655   2.938   2.414   2.579
   67TCM    cl2  656   3.051   2.628   2.739
   67TCM     h1  657   3.149   2.522   2.549
   67TCM    cl3  658   2.987   2.674   2.460
   68TCM     c1  659   3.708   2.316   2.160
   68TCM    cl1  660   3.675   2.488   2.126
   68TCM    cl2  661   3.872   2.276   2.105
   68TCM     h1  662   3.700   2.298   2.269
   68TCM    cl3  663   3.590   2.216   2.073
   69TCM     c1  664   0.003   0.584   2.167
   69TCM    cl1  665  -0.076   0.470   2.279
   69TCM    cl2  666  -0.063   0.563   2.004
   69TCM     h1  667  -0.015   0.688   2.201
   69TCM    cl3  668   0.178   0.552   2.165
   70TCM     c1  669   0.421   0.042   2.764
   70TCM    cl1  670   0.276  -0.059   2.754
   70TCM    cl2  671   0.388   0.201   2.691
   70TCM     h1  672   0.449   0.056   2.871
   70TCM    cl3  673   0.555  -0.037   2.678
   71TCM     c1  674   0.233   3.590   1.111
   71TCM    cl1  675   0.332   3.443   1.097
   71TCM    cl2  676   0.095   3.580   1.000
   71TCM     h1  677   0.196   3.601   1.215
   71TCM    cl3  678   0.332   3.732   1.069
   72TCM     c1  679   1.402   2.450   4.182
   72TCM    cl1  680   1.327   2.339   4.066
   72TCM    cl2  681   1.386   2.385   4.346
   72TCM     h1  682   1.510   2.462   4.157
   72TCM    cl3  683   1.321   2.609   4.173
   73TCM     c1  684   2.677   4.363   3.921
   73TCM    cl1  685   2.552   4.236   3.913
   73TCM    cl2  686   2.770   4.364   3.769
   73TCM     h1  687   2.628   4.462   3.935
   73TCM    cl3  688   2.786   4.331   4.057
   74TCM     c1  689   4.668   1.578   0.107
   74TCM    cl1  690   4.685   1.724   0.006
   74TCM    cl2  691   4.648   1.626   0.277
   74TCM     h1  692   4.580   1.520   0.074
   74TCM    cl3  693   4.815   1.478   0.091
   75TCM     c1  694   2.936   4.633   4.177
   75TCM    cl1  695   2.801   4.603   4.065
   75TCM    cl2  696   2.953   4.807   4.205
   75TCM     h1  697   2.917   4.581   4.273
   75TCM    cl3  698   3.086   4.569   4.105
   76TCM     c1  699   3.801   4.077   1.765
   76TCM    cl1  700   3.718   3.948   1.855
   76TCM    cl2  701   3.740   4.081   1.598
   76TCM     h1  702   3.781   4.174   1.814
   76TCM    cl3  703   3.976   4.046   1.764
   77TCM     c1  704   0.904   0.150   3.260
   77TCM    cl1  705   0.860   0.300   3.345
   77TCM    cl2  706   0.882   0.012   3.370
   77TCM     h1  707   0.838   0.137   3.171
   77TCM    cl3  708   1.073   0.158   3.207
   78TCM     c1  709   2.791   0.816   2.464
   78TCM    cl1  710   2.621   0.864   2.446
   78TCM    cl2  711   2.834   0.698   2.339
   78TCM     h1  712   2.856   0.906   2.454
   78TCM    cl3  713   2.816   0.743   2.625
   79TCM     c1  714   2.223   1.493   3.295
   79TCM    cl1  715   2.212   1.582   3.448
   79TCM    cl2  716   2.067   1.415   3.259
   79TCM     h1  717   2.250   1.562   3.213
   79TCM    cl3  718   2.349   1.368   3.309
   80TCM     c1  719   2.887   1.082   3.595
   80TCM    cl1  720   2.901   1.232   3.500
   80TCM    cl2  721   2.819   1.119   3.755
   80TCM     h1  722   2.820   1.011   3.541
   80TCM    cl3  723   3.048   1.009   3.614
   81TCM     c1  724   4.641   0.030   0.994
   81TCM    cl1  725   4.539  -0.013   1.133
   81TCM    cl2  726   4.604   0.196   0.943
   81TCM     h1  727   4.748   0.023   1.024
   81TCM    cl3  728   4.609  -0.082   0.860
   82TCM     c1  729   0.511   4.333   0.050
   82TCM    cl1  730   0.654   4.328  -0.056
   82TCM    cl2  731   0.562   4.369   0.217
   82TCM     h1  732   0.441   4.412   0.015
   82TCM    cl3  733   0.429   4.175   0.046
   83TCM     c1  734   2.408   3.352   1.960
   83TCM    cl1  735   2.579   3.321   1.999
   83TCM    cl2  736   2.324   3.416   2.103
   83TCM     h1  737   2.402   3.426   1.877
   83TCM    cl3  738   2.331   3.200   1.909
   84TCM     c1  739   0.028   2.808   4.066
   84TCM    cl1  740   0.143   2.808   4.202
   84TCM    cl2  741  -0.037   2.972   4.044
   84TCM     h1  742   0.079   2.776   3.973
   84TCM    cl3  743  -0.106   2.696   4.101
   85TCM     c1  744   3.359   3.538   0.770
   85TCM    cl1  745   3.431   3.590   0.616
   85TCM    cl2  746   3.461   3.594   0.905
   85TCM     h1  747   3.257   3.582   0.780
   85TCM    cl3  748   3.348   3.361   0.774
   86TCM     c1  749   3.210   2.859   4.677
   86TCM    cl1  750   3.229   2.966   4.536
   86TCM    cl2  751   3.131   2.949   4.808
   86TCM     h1  752   3.148   2.772   4.648
   86TCM    cl3  753   3.370   2.804   4.731
   87TCM     c1  754   3.919   3.717   4.594
   87TCM    cl1  755   3.993   3.870   4.648
   87TCM    cl2  756   3.891   3.723   4.419
   87TCM     h1  757   3.987   3.633   4.619
   87TCM    cl3  758   3.764   3.695   4.678
   88TCM     c1  759   1.945   2.584   4.558
   88TCM    cl1  760   1.872   2.590   4.397
   88TCM    cl2  761   2.021   2.741   4.594
   88TCM     h1  762   1.867   2.563   4.634
   88TCM    cl3  763   2.069   2.457   4.563
   89TCM     c1  764   2.252   3.996   3.945
   89TCM    cl1  765   2.246   4.075   4.105
   89TCM    cl2  766   2.276   4.119   3.819
   89TCM     h1  767   2.336   3.924   3.943
   89TCM    cl3  768   2.098   3.911   3.917
   90TCM     c1  769   0.791   0.226   4.866
   90TCM    cl1  770   0.701   0.146   4.735
   90TCM    cl2  771   0.677   0.274   4.995
   90TCM     h1  772   0.866   0.156   4.907
   90TCM    cl3  773   0.872   0.371   4.802
   91TCM     c1  774   1.184   0.544   2.669
   91TCM    cl1  775   1.296   0.430   2.748
   91TCM    cl2  776   1.155   0.682   2.777
   91TCM     h1  777   1.228   0.579   2.574
   91TCM    cl3  778   1.030   0.461   2.636
   92TCM     c1  779   4.514   3.112   2.971
   92TCM    cl1  780   4.421   3.192   3.100
   92TCM    cl2  781   4.422   3.116   2.819
   92TCM     h1  782   4.611   3.164   2.958
   92TCM    cl3  783   4.545   2.942   3.017
   93TCM     c1  784   3.173   4.660   4.963
   93TCM    cl1  785   3.210   4.487   4.952
   93TCM    cl2  786   3.056   4.705   4.837
   93TCM     h1  787   3.129   4.682   5.063
   93TCM    cl3  788   3.322   4.754   4.942
   94TCM     c1  789   1.862   0.045   3.314
   94TCM    cl1  790   1.920   0.205   3.365
   94TCM    cl2  791   2.001  -0.059   3.275
   94TCM     h1  792   1.803  -0.001   3.396
   94TCM    cl3  793   1.759   0.062   3.170
   95TCM     c1  794   0.922   0.708   3.739
   95TCM    cl1  795   1.001   0.550   3.723
   95TCM    cl2  796   0.912   0.753   3.910
   95TCM     h1  797   0.982   0.784   3.684
   95TCM    cl3  798   0.759   0.701   3.669
   96TCM     c1  799   2.051   0.055   2.126
   96TCM    cl1  800   1.898   0.145   2.123
   96TCM    cl2  801   2.042  -0.080   2.011
   96TCM     h1  802   2.134   0.123   2.098
   96TCM    cl3  803   2.080  -0.008   2.290
   97TCM     c1  804   1.290   1.140   2.179
   97TCM    cl1  805   1.426   1.175   2.288
   97TCM    cl2  806   1.162   1.056   2.269
   97TCM     h1  807   1.251   1.235   2.138
   97TCM    cl3  808   1.347   1.036   2.046
   98TCM     c1  809   1.597   1.544   4.909
   98TCM    cl1  810   1.643   1.407   5.012
   98TCM    cl2  811   1.572   1.486   4.742
   98TCM     h1  812   1.503   1.589   4.947
   98TCM    cl3  813   1.726   1.666   4.910
   99TCM     c1  814   4.237   3.004   2.197
   99TCM    cl1  815   4.126   3.067   2.073
   99TCM    cl2  816   4.144   2.921   2.324
   99TCM     h1  817   4.307   2.932   2.150
   99TCM    cl3  818   4.328   3.138   2.268
  100TCM     c1  819   2.900   4.770   1.141
  100TCM    cl1  820   2.731   4.791   1.088
  100TCM    cl2  821   3.009   4.845   1.022
  100TCM     h1  822   2.913   4.819   1.240
  100TCM    cl3  823   2.936   4.597   1.155
  101TCM     c1  824   4.313   2.375   3.054
  101TCM    cl1  825   4.353   2.529   3.134
  101TCM    cl2  826   4.215   2.275   3.165
  101TCM     h1  827   4.255   2.395   2.962
  101TCM    cl3  828   4.462   2.288   3.013
  102TCM     c1  829   4.298   0.680   3.398
  102TCM    cl1  830   4.336   0.558   3.522
  102TCM    cl2  831   4.283   0.601   3.239
  102TCM     h1  832   4.201   0.729   3.424
  102TCM    cl3  833   4.427   0.802   3.392
  103TCM     c1  834   4.202   0.881   3.036
  103TCM    cl1  835   4.355   0.824   3.105
  103TCM    cl2  836   4.194   0.836   2.864
  103TCM     h1  837   4.117   0.836   3.090
  103TCM    cl3  838   4.194   1.058   3.050
  104TCM     c1  839   2.073   0.177   3.074
  104TCM    cl1  840   2.102   0.034   2.973
  104TCM    cl2  841   2.126   0.144   3.240
  104TCM     h1  842   2.131   0.263   3.033
  104TCM    cl3  843   1.900   0.217   3.073
  105TCM     c1  844   0.512   4.386   3.407
  105TCM    cl1  845   0.654   4.491   3.388
  105TCM    cl2  846   0.565   4.218   3.431
  105TCM     h1  847   0.452   4.419   3.494
  105TCM    cl3  848   0.411   4.395   3.260
  106TCM     c1  849   0.284   1.849   4.541
  106TCM    cl1  850   0.199   1.965   4.645
  106TCM    cl2  851   0.316   1.923   4.383
  106TCM     h1  852   0.381   1.821   4.588
  106TCM    cl3  853   0.184   1.704   4.520
  107TCM     c1  854   1.092   0.047   4.892
  107TCM    cl1  855   0.955  -0.041   4.962
  107TCM    cl2  856   1.085   0.218   4.941
  107TCM     h1  857   1.187   0.002   4.928
  107TCM    cl3  858   1.086   0.037   4.715
  108TCM     c1  859   2.026   2.491   4.254
  108TCM    cl1  860   2.070   2.380   4.123
  108TCM    cl2  861   1.941   2.402   4.382
  108TCM     h1  862   2.118   2.537   4.296
  108TCM    cl3  863   1.921   2.619   4.190
  109TCM     c1  864   4.812   1.585   2.073
  109TCM    cl1  865   4.789   1.756   2.117
  109TCM    cl2  866   4.833   1.571   1.897
  109TCM     h1  867   4.901   1.545   2.124
  109TCM    cl3  868   4.668   1.492   2.123
  110TCM     c1  869   2.913   1.247   2.304
  110TCM    cl1  870   2.899   1.381   2.421
  110TCM    cl2  871   2.872   1.094   2.385
  110TCM     h1  872   2.843   1.264   2.219
  110TCM    cl3  873   3.080   1.239   2.243
  111TCM     c1  874   3.221   0.415   2.395
  111TCM    cl1  875   3.237   0.315   2.249
  111TCM    cl2  876   3.370   0.405   2.491
  111TCM     h1  877   3.203   0.521   2.365
  111TCM    cl3  878   3.084   0.357   2.492
  112TCM     c1  879   2.363   4.525   0.895
  112TCM    cl1  880   2.343   4.680   0.979
  112TCM    cl2  881   2.451   4.552   0.742
  112TCM     h1  882   2.421   4.455   0.958
  112TCM    cl3  883   2.204   4.456   0.859
  113TCM     c1  884   0.571   3.332   3.828
  113TCM    cl1  885   0.449   3.448   3.886
  113TCM    cl2  886   0.578   3.338   3.650
  113TCM     h1  887   0.670   3.359   3.870
  113TCM    cl3  888   0.527   3.168   3.880
  114TCM     c1  889   2.502   0.003   1.399
  114TCM    cl1  890   2.377  -0.100   1.473
  114TCM    cl2  891   2.645   0.007   1.505
  114TCM     h1  892   2.531  -0.040   1.301
  114TCM    cl3  893   2.439   0.167   1.377
  115TCM     c1  894   2.642   4.831   3.385
  115TCM    cl1  895   2.556   4.751   3.518
  115TCM    cl2  896   2.635   4.729   3.239
  115TCM     h1  897   2.594   4.929   3.363
  115TCM    cl3  898   2.812   4.857   3.431
  116TCM     c1  899   3.659   3.532   4.579
  116TCM    cl1  900   3.706   3.674   4.482
  116TCM    cl2  901   3.550   3.584   4.710
  116TCM     h1  902   3.607   3.459   4.515
  116TCM    cl3  903   3.804   3.458   4.650
  117TCM     c1  904   1.718   0.125   4.491
  117TCM    cl1  905   1.629  -0.028   4.511
  117TCM    cl2  906   1.847   0.104   4.370
  117TCM     h1  907   1.649   0.204   4.457
  117TCM    cl3  908   1.791   0.172   4.647
  118TCM     c1  909   3.416   3.668   1.624
  118TCM    cl1  910   3.409   3.803   1.740
  118TCM    cl2  911   3.506   3.719   1.479
  118TCM     h1  912   3.468   3.582   1.671
  118TCM    cl3  913   3.251   3.621   1.578
  119TCM     c1  914   0.121   2.809   1.878
  119TCM    cl1  915   0.065   2.669   1.784
  119TCM    cl2  916   0.162   2.757   2.043
  119TCM     h1  917   0.212   2.852   1.830
  119TCM    cl3  918  -0.007   2.932   1.884
  120TCM     c1  919   1.851   0.827   3.300
  120TCM    cl1  920   1.712   0.723   3.340
  120TCM    cl2  921   1.852   0.969   3.406
  120TCM     h1  922   1.945   0.769   3.314
  120TCM    cl3  923   1.839   0.879   3.130
  121TCM     c1  924   1.430   4.475   3.397
  121TCM    cl1  925   1.396   4.326   3.488
  121TCM    cl2  926   1.501   4.433   3.239
  121TCM     h1  927   1.336   4.532   3.381
  121TCM    cl3  928   1.545   4.575   3.488
  122TCM     c1  929   1.271   3.170   3.297
  122TCM    cl1  930   1.430   3.233   3.345
  122TCM    cl2  931   1.217   3.049   3.415
  122TCM     h1  932   1.198   3.253   3.293
  122TCM    cl3  933   1.284   3.094   3.137
  123TCM     c1  934   4.847   2.247   2.205
  123TCM    cl1  935   4.999   2.314   2.142
  123TCM    cl2  936   4.793   2.343   2.345
  123TCM     h1  937   4.770   2.250   2.126
  123TCM    cl3  938   4.873   2.079   2.256
  124TCM     c1  939   2.389   1.300   1.604
  124TCM    cl1  940   2.388   1.326   1.780
  124TCM    cl2  941   2.507   1.174   1.564
  124TCM     h1  942   2.288   1.269   1.571
  124TCM    cl3  943   2.435   1.452   1.523
  125TCM     c1  944   1.281   0.055   3.404
  125TCM    cl1  945   1.357  -0.100   3.359
  125TCM    cl2  946   1.331   0.180   3.288
  125TCM     h1  947   1.171   0.044   3.401
  125TCM    cl3  948   1.333   0.101   3.567
  126TCM     c1  949   4.325   3.713   2.509
  126TCM    cl1  950   4.223   3.603   2.603
  126TCM    cl2  951   4.360   3.859   2.605
  126TCM     h1  952   4.420   3.662   2.483
  126TCM    cl3  953   4.241   3.760   2.360
  127TCM     c1  954   4.460   1.216   3.769
  127TCM    cl1  955   4.326   1.115   3.828
  127TCM    cl2  956   4.425   1.271   3.604
  127TCM     h1  957   4.472   1.303   3.836
  127TCM    cl3  958   4.610   1.120   3.769
  128TCM     c1  959   3.833   1.947   2.314
  128TCM    cl1  960   3.785   1.818   2.202
  128TCM    cl2  961   3.858   1.878   2.476
  128TCM     h1  962   3.927   1.994   2.279
  128TCM    cl3  963   3.705   2.070   2.322
  129TCM     c1  964   4.961   3.879   3.077
  129TCM    cl1  965   4.948   4.042   3.147
  129TCM    cl2  966   5.089   3.788   3.160
  129TCM     h1  967   4.864   3.826   3.089
  129TCM    cl3  968   5.000   3.892   2.904
  130TCM     c1  969   0.639   1.557   0.129
  130TCM    cl1  970   0.620   1.683   0.253
  130TCM    cl2  971   0.697   1.631  -0.022
  130TCM     h1  972   0.711   1.481   0.164
  130TCM    cl3  973   0.481   1.480   0.100
  131TCM     c1  974   3.654   1.683   3.370
  131TCM    cl1  975   3.756   1.598   3.251
  131TCM    cl2  976   3.575   1.564   3.476
  131TCM     h1  977   3.717   1.751   3.431
  131TCM    cl3  978   3.530   1.777   3.284
  132TCM     c1  979   1.729   2.236   2.891
  132TCM    cl1  980   1.676   2.396   2.947
  132TCM    cl2  981   1.808   2.252   2.733
  132TCM     h1  982   1.800   2.193   2.964
  132TCM    cl3  983   1.588   2.129   2.876
  133TCM     c1  984   0.321   3.127   4.898
  133TCM    cl1  985   0.448   3.133   5.023
  133TCM    cl2  986   0.366   3.008   4.774
  133TCM     h1  987   0.225   3.098   4.945
  133TCM    cl3  988   0.305   3.287   4.823
  134TCM     c1  989   0.785   4.523   4.789
  134TCM    cl1  990   0.674   4.562   4.922
  134TCM    cl2  991   0.823   4.670   4.698
  134TCM     h1  992   0.879   4.480   4.831
  134TCM    cl3  993   0.709   4.404   4.681
  135TCM     c1  994   4.741   4.750   4.898
  135TCM    cl1  995   4.874   4.646   4.843
  135TCM    cl2  996   4.759   4.782   5.072
  135TCM     h1  997   4.744   4.846   4.843
  135TCM    cl3  998   4.586   4.669   4.868
  136TCM     c1  999   4.442   3.446   1.772
  136TCM    cl1 1000   4.521   3.452   1.612
  136TCM    cl2 1001   4.427   3.276   1.823
  136TCM     h1 1002   4.503   3.501   1.846
  136TCM    cl3 1003   4.281   3.519   1.761
  137TCM     c1 1004   2.430   0.264   3.217
  137TCM    cl1 1005   2.443   0.131   3.335
  137TCM    cl2 1006   2.380   0.199   3.060
  137TCM     h1 1007   2.355   0.337   3.253
  137TCM    cl3 1008   2.588   0.344   3.200
  138TCM     c1 1009   0.396   1.500   3.035
  138TCM    cl1 1010   0.459   1.646   2.953
  138TCM    cl2 1011   0.373   1.534   3.208
  138TCM     h1 1012   0.299   1.471   2.989
  138TCM    cl3 1013   0.513   1.367   3.016
  139TCM     c1 1014   0.314   4.355   4.684
  139TCM    cl1 1015   0.482   4.409   4.657
  139TCM    cl2 1016   0.293   4.311   4.855
  139TCM     h1 1017   0.244   4.437   4.658
  139TCM    cl3 1018   0.281   4.213   4.582
  140TCM     c1 1019   4.308   1.326   1.939
  140TCM    cl1 1020   4.293   1.248   1.781
  140TCM    cl2 1021   4.180   1.267   2.047
  140TCM     h1 1022   4.407   1.303   1.983
  140TCM    cl3 1023   4.292   1.502   1.920
  141TCM     c1 1024   1.502   0.609   1.564
  141TCM    cl1 1025   1.446   0.773   1.524
  141TCM    cl2 1026   1.470   0.576   1.736
  141TCM     h1 1027   1.448   0.535   1.502
  141TCM    cl3 1028   1.677   0.598   1.533
  142TCM     c1 1029   2.085   1.762   3.334
  142TCM    cl1 1030   2.209   1.759   3.207
  142TCM    cl2 1031   1.986   1.615   3.324
  142TCM     h1 1032   2.134   1.767   3.433
  142TCM    cl3 1033   1.981   1.905   3.312
  143TCM     c1 1034   2.641   3.463   3.515
  143TCM    cl1 1035   2.608   3.526   3.352
  143TCM    cl2 1036   2.801   3.385   3.518
  143TCM     h1 1037   2.639   3.546   3.589
  143TCM    cl3 1038   2.516   3.344   3.559
  144TCM     c1 1039   0.966   1.190   3.491
  144TCM    cl1 1040   0.809   1.221   3.414
  144TCM    cl2 1041   0.940   1.149   3.662
  144TCM     h1 1042   1.016   1.106   3.440
  144TCM    cl3 1043   1.068   1.335   3.480
  145TCM     c1 1044   0.781   4.330   1.655
  145TCM    cl1 1045   0.641   4.367   1.759
  145TCM    cl2 1046   0.745   4.376   1.487
  145TCM     h1 1047   0.870   4.386   1.691
  145TCM    cl3 1048   0.815   4.155   1.662
  146TCM     c1 1049   3.722   4.091   2.319
  146TCM    cl1 1050   3.824   4.016   2.194
  146TCM    cl2 1051   3.813   4.102   2.471
  146TCM     h1 1052   3.693   4.193   2.286
  146TCM    cl3 1053   3.576   3.993   2.343
  147TCM     c1 1054   0.615   2.425   3.339
  147TCM    cl1 1055   0.729   2.307   3.406
  147TCM    cl2 1056   0.599   2.562   3.451
  147TCM     h1 1057   0.653   2.461   3.242
  147TCM    cl3 1058   0.456   2.348   3.317
  148TCM     c1 1059   1.769   3.888   1.636
  148TCM    cl1 1060   1.903   3.943   1.531
  148TCM    cl2 1061   1.735   3.717   1.602
  148TCM     h1 1062   1.799   3.900   1.742
  148TCM    cl3 1063   1.624   3.985   1.603
  149TCM     c1 1064   1.720   1.548   2.348
  149TCM    cl1 1065   1.616   1.688   2.314
  149TCM    cl2 1066   1.671   1.411   2.247
  149TCM     h1 1067   1.826   1.574   2.326
  149TCM    cl3 1068   1.705   1.504   2.520
  150TCM     c1 1069   3.947   0.014   3.770
  150TCM    cl1 1070   3.798  -0.068   3.719
  150TCM    cl2 1071   4.036   0.070   3.627
  150TCM     h1 1072   3.921   0.102   3.834
  150TCM    cl3 1073   4.049  -0.098   3.863
  151TCM     c1 1074   0.165   4.439   4.324
  151TCM    cl1 1075   0.157   4.579   4.433
  151TCM    cl2 1076   0.277   4.473   4.190
  151TCM     h1 1077   0.201   4.350   4.381
  151TCM    cl3 1078   0.003   4.405   4.259
  152TCM     c1 1079   1.220   1.600   0.714
  152TCM    cl1 1080   1.209   1.659   0.881
  152TCM    cl2 1081   1.060   1.542   0.661
  152TCM     h1 1082   1.253   1.682   0.648
  152TCM    cl3 1083   1.337   1.466   0.705
  153TCM     c1 1084   2.711   2.698   0.016
  153TCM    cl1 1085   2.555   2.662  -0.062
  153TCM    cl2 1086   2.702   2.657   0.188
  153TCM     h1 1087   2.791   2.638  -0.033
  153TCM    cl3 1088   2.747   2.871  -0.002
  154TCM     c1 1089   3.631   1.296   3.196
  154TCM    cl1 1090   3.608   1.231   3.360
  154TCM    cl2 1091   3.563   1.183   3.077
  154TCM     h1 1092   3.579   1.394   3.188
  154TCM    cl3 1093   3.804   1.319   3.164
  155TCM     c1 1094   3.521   0.245   1.687
  155TCM    cl1 1095   3.674   0.210   1.605
  155TCM    cl2 1096   3.531   0.192   1.857
  155TCM     h1 1097   3.500   0.354   1.684
  155TCM    cl3 1098   3.389   0.158   1.606
  156TCM     c1 1099   4.125   2.588   1.272
  156TCM    cl1 1100   4.258   2.672   1.189
  156TCM    cl2 1101   4.188   2.440   1.348
  156TCM     h1 1102   4.083   2.654   1.350
  156TCM    cl3 1103   3.999   2.545   1.155
  157TCM     c1 1104   2.980   4.149   2.398
  157TCM    cl1 1105   2.973   4.260   2.537
  157TCM    cl2 1106   3.117   4.038   2.418
  157TCM     h1 1107   2.886   4.091   2.392
  157TCM    cl3 1108   3.000   4.243   2.248
  158TCM     c1 1109   4.433   1.018   2.498
  158TCM    cl1 1110   4.534   1.067   2.636
  158TCM    cl2 1111   4.417   0.841   2.497
  158TCM     h1 1112   4.333   1.064   2.508
  158TCM    cl3 1113   4.509   1.072   2.346
  159TCM     c1 1114   1.061   1.993   4.645
  159TCM    cl1 1115   0.988   2.149   4.689
  159TCM    cl2 1116   1.221   2.020   4.573
  159TCM     h1 1117   1.072   1.931   4.736
  159TCM    cl3 1118   0.956   1.910   4.528
  160TCM     c1 1119   2.390   4.483   4.344
  160TCM    cl1 1120   2.484   4.531   4.488
  160TCM    cl2 1121   2.486   4.515   4.198
  160TCM     h1 1122   2.365   4.375   4.350
  160TCM    cl3 1123   2.240   4.578   4.338
  161TCM     c1 1124   2.307   0.034   4.824
  161TCM    cl1 1125   2.349  -0.097   4.936
  161TCM    cl2 1126   2.453   0.091   4.741
  161TCM     h1 1127   2.234  -0.004   4.749
  161TCM    cl3 1128   2.234   0.168   4.915
  162TCM     c1 1129   2.038   1.199   2.718
  162TCM    cl1 1130   1.937   1.316   2.631
  162TCM    cl2 1131   2.106   1.082   2.601
  162TCM     h1 1132   2.121   1.252   2.768
  162TCM    cl3 1133   1.941   1.113   2.838
  163TCM     c1 1134   1.920   2.118   4.859
  163TCM    cl1 1135   1.843   2.096   5.017
  163TCM    cl2 1136   2.013   1.972   4.817
  163TCM     h1 1137   1.842   2.136   4.782
  163TCM    cl3 1138   2.030   2.258   4.865
  164TCM     c1 1139   2.247   1.747   1.384
  164TCM    cl1 1140   2.337   1.788   1.532
  164TCM    cl2 1141   2.264   1.879   1.266
  164TCM     h1 1142   2.286   1.653   1.341
  164TCM    cl3 1143   2.075   1.726   1.424
  165TCM     c1 1144   2.730   2.642   0.599
  165TCM    cl1 1145   2.719   2.470   0.642
  165TCM    cl2 1146   2.801   2.733   0.735
  165TCM     h1 1147   2.795   2.654   0.510
  165TCM    cl3 1148   2.568   2.706   0.564
  166TCM     c1 1149   3.057   1.763   1.728
  166TCM    cl1 1150   2.896   1.830   1.695
  166TCM    cl2 1151   3.092   1.774   1.902
  166TCM     h1 1152   3.060   1.657   1.696
  166TCM    cl3 1153   3.179   1.856   1.637
  167TCM     c1 1154   4.658   4.434   2.454
  167TCM    cl1 1155   4.809   4.363   2.515
  167TCM    cl2 1156   4.581   4.528   2.584
  167TCM     h1 1157   4.680   4.501   2.369
  167TCM    cl3 1158   4.548   4.305   2.402
  168TCM     c1 1159   3.260   0.337   4.643
  168TCM    cl1 1160   3.149   0.437   4.739
  168TCM    cl2 1161   3.283   0.411   4.483
  168TCM     h1 1162   3.358   0.330   4.695
  168TCM    cl3 1163   3.192   0.174   4.624
  169TCM     c1 1164   3.955   3.888   3.870
  169TCM    cl1 1165   4.052   4.023   3.931
  169TCM    cl2 1166   4.063   3.756   3.819
  169TCM     h1 1167   3.888   3.851   3.950
  169TCM    cl3 1168   3.858   3.942   3.731
  170TCM     c1 1169   2.016   1.268   2.355
  170TCM    cl1 1170   1.925   1.412   2.406
  170TCM    cl2 1171   1.930   1.122   2.409
  170TCM     h1 1172   2.025   1.267   2.245
  170TCM    cl3 1173   2.178   1.272   2.428
  171TCM     c1 1174   2.673   0.373   4.873
  171TCM    cl1 1175   2.553   0.396   4.744
  171TCM    cl2 1176   2.600   0.412   5.030
  171TCM     h1 1177   2.708   0.268   4.873
  171TCM    cl3 1178   2.812   0.480   4.844
  172TCM     c1 1179   2.507   2.864   1.681
  172TCM    cl1 1180   2.526   2.719   1.579
  172TCM    cl2 1181   2.524   2.819   1.852
  172TCM     h1 1182   2.586   2.938   1.654
  172TCM    cl3 1183   2.347   2.936   1.653
  173TCM     c1 1184   1.131   4.814   1.404
  173TCM    cl1 1185   1.144   4.921   1.545
  173TCM    cl2 1186   1.092   4.911   1.260
  173TCM     h1 1187   1.227   4.762   1.388
  173TCM    cl3 1188   1.002   4.695   1.431
  174TCM     c1 1189   4.240   2.217   4.145
  174TCM    cl1 1190   4.331   2.261   3.999
  174TCM    cl2 1191   4.179   2.365   4.223
  174TCM     h1 1192   4.155   2.152   4.117
  174TCM    cl3 1193   4.347   2.131   4.258
  175TCM     c1 1194   1.939   4.976   4.852
  175TCM    cl1 1195   2.027   4.840   4.778
  175TCM    cl2 1196   1.810   4.912   4.956
  175TCM     h1 1197   2.009   5.036   4.913
  175TCM    cl3 1198   1.869   5.078   4.725
  176TCM     c1 1199   3.411   3.794   0.360
  176TCM    cl1 1200   3.459   3.946   0.281
  176TCM    cl2 1201   3.550   3.727   0.449
  176TCM     h1 1202   3.328   3.814   0.430
  176TCM    cl3 1203   3.358   3.677   0.237
  177TCM     c1 1204   4.656   0.884   0.796
  177TCM    cl1 1205   4.630   0.717   0.850
  177TCM    cl2 1206   4.762   0.968   0.912
  177TCM     h1 1207   4.705   0.883   0.696
  177TCM    cl3 1208   4.500   0.969   0.785
  178TCM     c1 1209   4.159   1.768   1.685
  178TCM    cl1 1210   4.015   1.822   1.774
  178TCM    cl2 1211   4.143   1.815   1.514
  178TCM     h1 1212   4.249   1.816   1.728
  178TCM    cl3 1213   4.174   1.592   1.697
  179TCM     c1 1214   4.123   1.636   4.832
  179TCM    cl1 1215   4.178   1.786   4.911
  179TCM    cl2 1216   3.976   1.578   4.912
  179TCM     h1 1217   4.102   1.657   4.725
  179TCM    cl3 1218   4.251   1.512   4.844
  180TCM     c1 1219   3.988   3.132   4.527
  180TCM    cl1 1220   4.077   3.184   4.382
  180TCM    cl2 1221   3.875   3.260   4.577
  180TCM     h1 1222   3.930   3.039   4.505
  180TCM    cl3 1223   4.102   3.100   4.659
  181TCM     c1 1224   1.259   0.445   3.483
  181TCM    cl1 1225   1.181   0.357   3.349
  181TCM    cl2 1226   1.359   0.577   3.417
  181TCM     h1 1227   1.182   0.486   3.550
  181TCM    cl3 1228   1.363   0.332   3.574
  182TCM     c1 1229   3.561   0.266   1.172
  182TCM    cl1 1230   3.702   0.323   1.264
  182TCM    cl2 1231   3.510   0.107   1.233
  182TCM     h1 1232   3.478   0.339   1.184
  182TCM    cl3 1233   3.604   0.252   1.000
  183TCM     c1 1234   1.197   0.351   3.929
  183TCM    cl1 1235   1.113   0.453   4.049
  183TCM    cl2 1236   1.369   0.339   3.972
  183TCM     h1 1237   1.152   0.250   3.929
  183TCM    cl3 1238   1.182   0.424   3.768
  184TCM     c1 1239   3.154   0.135   3.366
  184TCM    cl1 1240   3.233   0.049   3.231
  184TCM    cl2 1241   3.026   0.240   3.302
  184TCM     h1 1242   3.109   0.061   3.436
  184TCM    cl3 1243   3.274   0.233   3.452
  185TCM     c1 1244   2.347   1.028   3.945
  185TCM    cl1 1245   2.194   1.044   4.033
  185TCM    cl2 1246   2.330   0.906   3.817
  185TCM     h1 1247   2.373   1.126   3.899
  185TCM    cl3 1248   2.476   0.979   4.057
  186TCM     c1 1249   3.304   0.670   0.078
  186TCM    cl1 1250   3.323   0.520   0.172
  186TCM    cl2 1251   3.367   0.645  -0.087
  186TCM     h1 1252   3.197   0.697   0.073
  186TCM    cl3 1253   3.396   0.801   0.157
  187TCM     c1 1254   1.759   2.057   2.413
  187TCM    cl1 1255   1.880   2.055   2.544
  187TCM    cl2 1256   1.811   2.170   2.286
  187TCM     h1 1257   1.750   1.955   2.370
  187TCM    cl3 1258   1.602   2.109   2.478
  188TCM     c1 1259   4.967   3.918   4.415
  188TCM    cl1 1260   5.064   4.062   4.454
  188TCM    cl2 1261   4.835   3.902   4.534
  188TCM     h1 1262   4.924   3.929   4.313
  188TCM    cl3 1263   5.070   3.773   4.421
  189TCM     c1 1264   2.768   0.161   3.419
  189TCM    cl1 1265   2.609   0.240   3.418
  189TCM    cl2 1266   2.873   0.240   3.539
  189TCM     h1 1267   2.756   0.054   3.445
  189TCM    cl3 1268   2.842   0.174   3.258
  190TCM     c1 1269   4.716   0.897   3.381
  190TCM    cl1 1270   4.630   0.804   3.507
  190TCM    cl2 1271   4.661   0.845   3.221
  190TCM     h1 1272   4.695   1.005   3.395
  190TCM    cl3 1273   4.891   0.869   3.396
  191TCM     c1 1274   0.094   4.741   0.367
  191TCM    cl1 1275   0.107   4.849   0.227
  191TCM    cl2 1276   0.078   4.838   0.515
  191TCM     h1 1277   0.005   4.676   0.356
  191TCM    cl3 1278   0.240   4.641   0.378
  192TCM     c1 1279   0.672   3.290   0.001
  192TCM    cl1 1280   0.663   3.297  -0.176
  192TCM    cl2 1281   0.535   3.379   0.071
  192TCM     h1 1282   0.669   3.185   0.035
  192TCM    cl3 1283   0.824   3.365   0.056
  193TCM     c1 1284   1.204   2.383   4.488
  193TCM    cl1 1285   1.317   2.246   4.492
  193TCM    cl2 1286   1.267   2.515   4.590
  193TCM     h1 1287   1.193   2.419   4.384
  193TCM    cl3 1288   1.045   2.331   4.550
  194TCM     c1 1289   1.116   3.043   1.379
  194TCM    cl1 1290   1.030   3.192   1.424
  194TCM    cl2 1291   1.290   3.078   1.366
  194TCM     h1 1292   1.100   2.966   1.457
  194TCM    cl3 1293   1.055   2.985   1.223
  195TCM     c1 1294   4.263   1.571   2.337
  195TCM    cl1 1295   4.125   1.468   2.381
  195TCM    cl2 1296   4.311   1.538   2.169
  195TCM     h1 1297   4.235   1.678   2.347
  195TCM    cl3 1298   4.400   1.535   2.445
  196TCM     c1 1299   2.151   0.504   4.082
  196TCM    cl1 1300   2.316   0.475   4.142
  196TCM    cl2 1301   2.100   0.367   3.982
  196TCM     h1 1302   2.082   0.515   4.168
  196TCM    cl3 1303   2.149   0.653   3.984
  197TCM     c1 1304   0.354   0.086   2.373
  197TCM    cl1 1305   0.321  -0.059   2.472
  197TCM    cl2 1306   0.310   0.052   2.204
  197TCM     h1 1307   0.293   0.171   2.411
  197TCM    cl3 1308   0.526   0.126   2.383
  198TCM     c1 1309   1.839   4.432   4.173
  198TCM    cl1 1310   1.901   4.584   4.105
  198TCM    cl2 1311   1.855   4.435   4.351
  198TCM     h1 1312   1.733   4.419   4.146
  198TCM    cl3 1313   1.934   4.296   4.108
  199TCM     c1 1314   4.244   4.505   1.255
  199TCM    cl1 1315   4.148   4.381   1.171
  199TCM    cl2 1316   4.315   4.616   1.135
  199TCM     h1 1317   4.178   4.562   1.324
  199TCM    cl3 1318   4.374   4.428   1.348
  200TCM     c1 1319   1.198   2.307   0.224
  200TCM    cl1 1320   1.097   2.272   0.366
  200TCM    cl2 1321   1.366   2.260   0.257
  200TCM     h1 1322   1.160   2.250   0.137
  200TCM    cl3 1323   1.191   2.481   0.188
  201TCM     c1 1324   1.340   0.781   3.962
  201TCM    cl1 1325   1.328   0.637   3.857
  201TCM    cl2 1326   1.215   0.772   4.088
  201TCM     h1 1327   1.440   0.784   4.009
  201TCM    cl3 1328   1.316   0.928   3.865
  202TCM     c1 1329   1.884   1.443   0.616
  202TCM    cl1 1330   1.937   1.415   0.448
  202TCM    cl2 1331   1.884   1.288   0.703
  202TCM     h1 1332   1.954   1.513   0.666
  202TCM    cl3 1333   1.720   1.511   0.616
  203TCM     c1 1334   1.243   4.530   1.143
  203TCM    cl1 1335   1.371   4.626   1.220
  203TCM    cl2 1336   1.236   4.570   0.969
  203TCM     h1 1337   1.265   4.422   1.155
  203TCM    cl3 1338   1.086   4.567   1.218
  204TCM     c1 1339   0.046   2.664   2.339
  204TCM    cl1 1340  -0.092   2.653   2.451
  204TCM    cl2 1341  -0.015   2.697   2.175
  204TCM     h1 1342   0.113   2.747   2.370
  204TCM    cl3 1343   0.136   2.511   2.339
  205TCM     c1 1344   1.060   2.368   4.883
  205TCM    cl1 1345   1.230   2.360   4.832
  205TCM    cl2 1346   0.956   2.382   4.740
  205TCM     h1 1347   1.035   2.276   4.940
  205TCM    cl3 1348   1.037   2.510   4.988
  206TCM     c1 1349   3.645   4.682   3.181
  206TCM    cl1 1350   3.687   4.518   3.238
  206TCM    cl2 1351   3.584   4.778   3.317
  206TCM     h1 1352   3.736   4.730   3.138
  206TCM    cl3 1353   3.520   4.670   3.055
  207TCM     c1 1354   2.157   0.961   2.157
  207TCM    cl1 1355   1.997   1.032   2.126
  207TCM    cl2 1356   2.267   1.087   2.217
  207TCM     h1 1357   2.148   0.881   2.233
  207TCM    cl3 1358   2.222   0.893   2.006
  208TCM     c1 1359   0.703   4.479   4.231
  208TCM    cl1 1360   0.739   4.602   4.108
  208TCM    cl2 1361   0.623   4.341   4.154
  208TCM     h1 1362   0.798   4.446   4.279
  208TCM    cl3 1363   0.596   4.549   4.355
  209TCM     c1 1364   2.034   4.750   3.653
  209TCM    cl1 1365   2.153   4.874   3.700
  209TCM    cl2 1366   2.074   4.597   3.733
  209TCM     h1 1367   1.933   4.783   3.684
  209TCM    cl3 1368   2.039   4.728   3.477
  210TCM     c1 1369   1.104   0.086   0.993
  210TCM    cl1 1370   1.077  -0.069   0.912
  210TCM    cl2 1371   0.948   0.160   1.034
  210TCM     h1 1372   1.163   0.070   1.086
  210TCM    cl3 1373   1.194   0.195   0.884
  211TCM     c1 1374   2.517   2.995   0.837
  211TCM    cl1 1375   2.550   3.154   0.764
  211TCM    cl2 1376   2.670   2.922   0.893
  211TCM     h1 1377   2.448   3.007   0.923
  211TCM    cl3 1378   2.442   2.888   0.715
  212TCM     c1 1379   0.955   3.611   0.873
  212TCM    cl1 1380   1.074   3.537   0.983
  212TCM    cl2 1381   0.805   3.645   0.962
  212TCM     h1 1382   0.997   3.705   0.832
  212TCM    cl3 1383   0.921   3.498   0.739
  213TCM     c1 1384   3.749   2.276   1.832
  213TCM    cl1 1385   3.796   2.115   1.891
  213TCM    cl2 1386   3.656   2.259   1.681
  213TCM     h1 1387   3.687   2.326   1.909
  213TCM    cl3 1388   3.895   2.372   1.801
  214TCM     c1 1389   2.772   2.389   0.933
  214TCM    cl1 1390   2.608   2.420   0.870
  214TCM    cl2 1391   2.768   2.386   1.110
  214TCM     h1 1392   2.808   2.292   0.895
  214TCM    cl3 1393   2.881   2.519   0.878
  215TCM     c1 1394   2.734   3.406   4.010
  215TCM    cl1 1395   2.812   3.418   4.169
  215TCM    cl2 1396   2.726   3.235   3.961
  215TCM     h1 1397   2.631   3.447   4.016
  215TCM    cl3 1398   2.829   3.497   3.891
  216TCM     c1 1399   1.184   2.728   3.889
  216TCM    cl1 1400   1.271   2.575   3.916
  216TCM    cl2 1401   1.213   2.838   4.026
  216TCM     h1 1402   1.220   2.775   3.795
  216TCM    cl3 1403   1.009   2.696   3.875
  217TCM     c1 1404   1.526   2.844   3.195
  217TCM    cl1 1405   1.613   2.721   3.099
  217TCM    cl2 1406   1.593   3.005   3.159
  217TCM     h1 1407   1.418   2.842   3.168
  217TCM    cl3 1408   1.546   2.808   3.368
  218TCM     c1 1409   3.795   4.695   3.617
  218TCM    cl1 1410   3.757   4.818   3.495
  218TCM    cl2 1411   3.659   4.581   3.632
  218TCM     h1 1412   3.886   4.640   3.586
  218TCM    cl3 1413   3.824   4.774   3.774
  219TCM     c1 1414   2.193   1.788   2.821
  219TCM    cl1 1415   2.318   1.852   2.931
  219TCM    cl2 1416   2.232   1.834   2.654
  219TCM     h1 1417   2.191   1.677   2.829
  219TCM    cl3 1418   2.034   1.854   2.865
  220TCM     c1 1419   1.445   2.217   4.806
  220TCM    cl1 1420   1.477   2.149   4.645
  220TCM    cl2 1421   1.291   2.152   4.868
  220TCM     h1 1422   1.527   2.189   4.875
  220TCM    cl3 1423   1.434   2.394   4.795
  221TCM     c1 1424   0.229   1.796   2.760
  221TCM    cl1 1425   0.377   1.864   2.687
  221TCM    cl2 1426   0.168   1.909   2.883
  221TCM     h1 1427   0.152   1.782   2.682
  221TCM    cl3 1428   0.267   1.640   2.837
  222TCM     c1 1429   3.647   0.117   4.674
  222TCM    cl1 1430   3.504   0.054   4.760
  222TCM    cl2 1431   3.738   0.225   4.781
  222TCM     h1 1432   3.711   0.033   4.643
  222TCM    cl3 1433   3.594   0.208   4.530
  223TCM     c1 1434   1.725   2.725   1.854
  223TCM    cl1 1435   1.621   2.784   1.986
  223TCM    cl2 1436   1.644   2.592   1.769
  223TCM     h1 1437   1.745   2.808   1.783
  223TCM    cl3 1438   1.879   2.667   1.922
  224TCM     c1 1439   4.190   0.536   4.046
  224TCM    cl1 1440   4.206   0.516   3.870
  224TCM    cl2 1441   4.037   0.618   4.082
  224TCM     h1 1442   4.191   0.436   4.094
  224TCM    cl3 1443   4.326   0.633   4.107
  225TCM     c1 1444   0.223   3.727   1.243
  225TCM    cl1 1445   0.322   3.669   1.379
  225TCM    cl2 1446   0.313   3.708   1.091
  225TCM     h1 1447   0.129   3.668   1.238
  225TCM    cl3 1448   0.184   3.899   1.268
  226TCM     c1 1449   0.084   1.602   0.599
  226TCM    cl1 1450   0.204   1.471   0.602
  226TCM    cl2 1451   0.150   1.741   0.510
  226TCM     h1 1452  -0.008   1.566   0.548
  226TCM    cl3 1453   0.046   1.651   0.765
  227TCM     c1 1454   3.743   2.486   2.554
  227TCM    cl1 1455   3.613   2.571   2.641
  227TCM    cl2 1456   3.736   2.527   2.381
  227TCM     h1 1457   3.842   2.518   2.596
  227TCM    cl3 1458   3.724   2.311   2.575
  228TCM     c1 1459   0.245   4.751   2.566
  228TCM    cl1 1460   0.255   4.746   2.743
  228TCM    cl2 1461   0.074   4.750   2.516
  228TCM     h1 1462   0.293   4.844   2.528
  228TCM    cl3 1463   0.327   4.610   2.497
  229TCM     c1 1464   0.172   4.540   2.221
  229TCM    cl1 1465   0.028   4.602   2.137
  229TCM    cl2 1466   0.136   4.520   2.394
  229TCM     h1 1467   0.201   4.443   2.178
  229TCM    cl3 1468   0.306   4.656   2.202
  230TCM     c1 1469   0.501   2.524   2.148
  230TCM    cl1 1470   0.656   2.493   2.067
  230TCM    cl2 1471   0.487   2.698   2.184
  230TCM     h1 1472   0.418   2.494   2.082
  230TCM    cl3 1473   0.493   2.432   2.300
  231TCM     c1 1474   0.609   3.923   2.599
  231TCM    cl1 1475   0.505   3.920   2.455
  231TCM    cl2 1476   0.646   3.756   2.648
  231TCM     h1 1477   0.703   3.977   2.575
  231TCM    cl3 1478   0.525   4.007   2.731
  232TCM     c1 1479   2.335   0.636   3.839
  232TCM    cl1 1480   2.348   0.669   4.013
  232TCM    cl2 1481   2.470   0.713   3.753
  232TCM     h1 1482   2.338   0.526   3.821
  232TCM    cl3 1483   2.181   0.701   3.777
  233TCM     c1 1484   1.747   1.793   1.919
  233TCM    cl1 1485   1.824   1.634   1.900
  233TCM    cl2 1486   1.716   1.824   2.091
  233TCM     h1 1487   1.814   1.872   1.878
  233TCM    cl3 1488   1.593   1.795   1.830
  234TCM     c1 1489   0.959   3.178   2.086
  234TCM    cl1 1490   1.046   3.080   2.206
  234TCM    cl2 1491   0.969   3.350   2.131
  234TCM     h1 1492   1.005   3.164   1.986
  234TCM    cl3 1493   0.788   3.128   2.081
  235TCM     c1 1494   4.726   3.681   2.847
  235TCM    cl1 1495   4.663   3.652   3.010
  235TCM    cl2 1496   4.645   3.572   2.732
  235TCM     h1 1497   4.707   3.786   2.817
  235TCM    cl3 1498   4.901   3.650   2.844
  236TCM     c1 1499   4.252   0.916   4.260
  236TCM    cl1 1500   4.155   1.013   4.374
  236TCM    cl2 1501   4.219   0.968   4.094
  236TCM     h1 1502   4.360   0.930   4.283
  236TCM    cl3 1503   4.210   0.744   4.278
  237TCM     c1 1504   0.158   3.001   4.364
  237TCM    cl1 1505   0.172   3.174   4.403
  237TCM    cl2 1506   0.138   2.982   4.189
  237TCM     h1 1507   0.250   2.949   4.397
  237TCM    cl3 1508   0.018   2.933   4.448
  238TCM     c1 1509   1.115   1.776   4.967
  238TCM    cl1 1510   1.168   1.618   5.030
  238TCM    cl2 1511   1.244   1.847   4.868
  238TCM     h1 1512   1.024   1.763   4.905
  238TCM    cl3 1513   1.078   1.885   5.103
  239TCM     c1 1514   1.927   2.045   1.508
  239TCM    cl1 1515   1.994   2.041   1.673
  239TCM    cl2 1516   1.863   1.884   1.466
  239TCM     h1 1517   1.845   2.120   1.503
  239TCM    cl3 1518   2.054   2.090   1.393
  240TCM     c1 1519   2.522   4.364   3.578
  240TCM    cl1 1520   2.430   4.269   3.697
  240TCM    cl2 1521   2.685   4.296   3.562
  240TCM     h1 1522   2.470   4.359   3.479
  240TCM    cl3 1523   2.532   4.533   3.632
  241TCM     c1 1524   3.199   0.449   1.461
  241TCM    cl1 1525   3.196   0.293   1.548
  241TCM    cl2 1526   3.342   0.454   1.355
  241TCM     h1 1527   3.107   0.459   1.399
  241TCM    cl3 1528   3.207   0.582   1.578
  242TCM     c1 1529   2.448   4.748   4.624
  242TCM    cl1 1530   2.581   4.731   4.507
  242TCM    cl2 1531   2.493   4.866   4.749
  242TCM     h1 1532   2.356   4.783   4.571
  242TCM    cl3 1533   2.416   4.590   4.700
  243TCM     c1 1534   2.610   1.820   3.131
  243TCM    cl1 1535   2.756   1.895   3.200
  243TCM    cl2 1536   2.480   1.822   3.251
  243TCM     h1 1537   2.579   1.877   3.041
  243TCM    cl3 1538   2.647   1.652   3.085
  244TCM     c1 1539   0.873   1.707   4.737
  244TCM    cl1 1540   0.868   1.874   4.797
  244TCM    cl2 1541   0.830   1.595   4.868
  244TCM     h1 1542   0.801   1.695   4.653
  244TCM    cl3 1543   1.038   1.670   4.680
  245TCM     c1 1544   3.142   1.044   2.848
  245TCM    cl1 1545   3.258   1.096   2.972
  245TCM    cl2 1546   3.218   1.056   2.687
  245TCM     h1 1547   3.112   0.939   2.867
  245TCM    cl3 1548   2.999   1.150   2.853
  246TCM     c1 1549   3.715   0.665   1.393
  246TCM    cl1 1550   3.607   0.806   1.389
  246TCM    cl2 1551   3.807   0.666   1.545
  246TCM     h1 1552   3.655   0.572   1.386
  246TCM    cl3 1553   3.828   0.673   1.256
  247TCM     c1 1554   0.489   0.319   0.314
  247TCM    cl1 1555   0.563   0.255   0.463
  247TCM    cl2 1556   0.388   0.194   0.239
  247TCM     h1 1557   0.426   0.407   0.339
  247TCM    cl3 1558   0.617   0.368   0.201
  248TCM     c1 1559   0.863   3.747   3.459
  248TCM    cl1 1560   0.892   3.582   3.398
  248TCM    cl2 1561   0.996   3.853   3.406
  248TCM     h1 1562   0.767   3.785   3.418
  248TCM    cl3 1563   0.856   3.744   3.637
  249TCM     c1 1564   0.216   4.139   4.143
  249TCM    cl1 1565   0.260   4.210   4.300
  249TCM    cl2 1566   0.069   4.218   4.082
  249TCM     h1 1567   0.299   4.154   4.071
  249TCM    cl3 1568   0.185   3.965   4.163
  250TCM     c1 1569   3.751   1.695   0.655
  250TCM    cl1 1570   3.772   1.584   0.792
  250TCM    cl2 1571   3.885   1.812   0.653
  250TCM     h1 1572   3.751   1.637   0.560
  250TCM    cl3 1573   3.597   1.782   0.671
  251TCM     c1 1574   3.445   4.384   3.451
  251TCM    cl1 1575   3.412   4.541   3.375
  251TCM    cl2 1576   3.616   4.376   3.500
  251TCM     h1 1577   3.381   4.372   3.541
  251TCM    cl3 1578   3.411   4.253   3.336
  252TCM     c1 1579   1.688   4.632   2.963
  252TCM    cl1 1580   1.796   4.708   2.843
  252TCM    cl2 1581   1.632   4.756   3.078
  252TCM     h1 1582   1.601   4.588   2.911
  252TCM    cl3 1583   1.776   4.506   3.051
  253TCM     c1 1584   2.597   0.427   2.347
  253TCM    cl1 1585   2.658   0.577   2.422
  253TCM    cl2 1586   2.504   0.335   2.467
  253TCM     h1 1587   2.532   0.453   2.261
  253TCM    cl3 1588   2.734   0.330   2.290
  254TCM     c1 1589   3.330   2.038   3.963
  254TCM    cl1 1590   3.330   1.881   3.879
  254TCM    cl2 1591   3.165   2.077   4.017
  254TCM     h1 1592   3.397   2.032   4.051
  254TCM    cl3 1593   3.388   2.165   3.853
  255TCM     c1 1594   2.935   2.336   0.333
  255TCM    cl1 1595   2.842   2.449   0.435
  255TCM    cl2 1596   2.947   2.401   0.168
  255TCM     h1 1597   3.036   2.323   0.376
  255TCM    cl3 1598   2.852   2.179   0.329
  256TCM     c1 1599   1.641   0.424   4.708
  256TCM    cl1 1600   1.526   0.546   4.649
  256TCM    cl2 1601   1.580   0.353   4.860
  256TCM     h1 1602   1.653   0.344   4.632
  256TCM    cl3 1603   1.799   0.500   4.738
  257TCM     c1 1604   3.794   1.228   2.163
  257TCM    cl1 1605   3.955   1.289   2.207
  257TCM    cl2 1606   3.811   1.106   2.034
  257TCM     h1 1607   3.747   1.181   2.251
  257TCM    cl3 1608   3.693   1.362   2.105
  258TCM     c1 1609   0.004   3.101   0.035
  258TCM    cl1 1610  -0.145   3.196   0.023
  258TCM    cl2 1611   0.087   3.101  -0.123
  258TCM     h1 1612   0.070   3.145   0.112
  258TCM    cl3 1613  -0.036   2.934   0.081
  259TCM     c1 1614   0.550   1.560   3.759
  259TCM    cl1 1615   0.686   1.667   3.717
  259TCM    cl2 1616   0.500   1.592   3.927
  259TCM     h1 1617   0.465   1.579   3.691
  259TCM    cl3 1618   0.602   1.391   3.744
  260TCM     c1 1619   0.950   0.678   0.165
  260TCM    cl1 1620   0.772   0.687   0.168
  260TCM    cl2 1621   1.006   0.593   0.311
  260TCM     h1 1622   0.982   0.623   0.075
  260TCM    cl3 1623   1.018   0.842   0.163
  261TCM     c1 1624   3.527   4.824   4.628
  261TCM    cl1 1625   3.633   4.891   4.754
  261TCM    cl2 1626   3.496   4.652   4.661
  261TCM     h1 1627   3.431   4.879   4.627
  261TCM    cl3 1628   3.606   4.840   4.469
  262TCM     c1 1629   3.115   3.837   3.369
  262TCM    cl1 1630   3.144   3.728   3.231
  262TCM    cl2 1631   3.257   3.835   3.477
  262TCM     h1 1632   3.099   3.940   3.331
  262TCM    cl3 1633   2.972   3.783   3.458
  263TCM     c1 1634   2.858   4.232   3.052
  263TCM    cl1 1635   2.782   4.144   2.917
  263TCM    cl2 1636   2.735   4.271   3.174
  263TCM     h1 1637   2.938   4.170   3.097
  263TCM    cl3 1638   2.930   4.383   2.990
  264TCM     c1 1639   3.480   1.274   2.436
  264TCM    cl1 1640   3.566   1.128   2.383
  264TCM    cl2 1641   3.400   1.350   2.297
  264TCM     h1 1642   3.404   1.246   2.512
  264TCM    cl3 1643   3.596   1.389   2.507
  265TCM     c1 1644   4.555   1.982   4.879
  265TCM    cl1 1645   4.676   2.111   4.900
  265TCM    cl2 1646   4.626   1.827   4.929
  265TCM     h1 1647   4.466   2.004   4.942
  265TCM    cl3 1648   4.506   1.974   4.708
  266TCM     c1 1649   3.201   2.102   0.504
  266TCM    cl1 1650   3.072   2.154   0.614
  266TCM    cl2 1651   3.289   2.245   0.443
  266TCM     h1 1652   3.272   2.036   0.558
  266TCM    cl3 1653   3.130   2.014   0.367
  267TCM     c1 1654   4.571   4.710   1.307
  267TCM    cl1 1655   4.521   4.574   1.205
  267TCM    cl2 1656   4.601   4.652   1.473
  267TCM     h1 1657   4.664   4.755   1.267
  267TCM    cl3 1658   4.442   4.833   1.310
  268TCM     c1 1659   4.657   0.640   2.977
  268TCM    cl1 1660   4.603   0.545   2.837
  268TCM    cl2 1661   4.636   0.544   3.125
  268TCM     h1 1662   4.765   0.666   2.965
  268TCM    cl3 1663   4.562   0.790   2.988
  269TCM     c1 1664   3.560   2.099   0.159
  269TCM    cl1 1665   3.395   2.134   0.215
  269TCM    cl2 1666   3.667   2.078   0.300
  269TCM     h1 1667   3.560   2.005   0.099
  269TCM    cl3 1668   3.619   2.233   0.059
  270TCM     c1 1669   1.755   0.046   2.449
  270TCM    cl1 1670   1.678   0.201   2.409
  270TCM    cl2 1671   1.739   0.014   2.623
  270TCM     h1 1672   1.707  -0.035   2.391
  270TCM    cl3 1673   1.928   0.053   2.406
  271TCM     c1 1674   1.272   4.539   4.824
  271TCM    cl1 1675   1.337   4.523   4.659
  271TCM    cl2 1676   1.220   4.707   4.850
  271TCM     h1 1677   1.186   4.470   4.837
  271TCM    cl3 1678   1.399   4.497   4.941
  272TCM     c1 1679   0.113   0.196   4.232
  272TCM    cl1 1680   0.267   0.174   4.146
  272TCM    cl2 1681   0.141   0.188   4.407
  272TCM     h1 1682   0.070   0.295   4.206
  272TCM    cl3 1683  -0.001   0.068   4.184
  273TCM     c1 1684   4.326   4.755   4.986
  273TCM    cl1 1685   4.253   4.910   4.937
  273TCM    cl2 1686   4.359   4.657   4.841
  273TCM     h1 1687   4.422   4.775   5.039
  273TCM    cl3 1688   4.215   4.668   5.093
  274TCM     c1 1689   0.670   2.526   3.684
  274TCM    cl1 1690   0.837   2.514   3.625
  274TCM    cl2 1691   0.568   2.408   3.599
  274TCM     h1 1692   0.668   2.505   3.793
  274TCM    cl3 1693   0.608   2.690   3.655
  275TCM     c1 1694   4.040   1.266   1.372
  275TCM    cl1 1695   4.044   1.413   1.472
  275TCM    cl2 1696   4.130   1.137   1.453
  275TCM     h1 1697   3.934   1.235   1.357
  275TCM    cl3 1698   4.113   1.300   1.214
  276TCM     c1 1699   1.423   4.788   0.119
  276TCM    cl1 1700   1.476   4.663   0.234
  276TCM    cl2 1701   1.348   4.710  -0.022
  276TCM     h1 1702   1.350   4.855   0.168
  276TCM    cl3 1703   1.564   4.883   0.066
  277TCM     c1 1704   3.294   0.966   3.773
  277TCM    cl1 1705   3.424   1.070   3.710
  277TCM    cl2 1706   3.184   1.063   3.872
  277TCM     h1 1707   3.238   0.922   3.688
  277TCM    cl3 1708   3.365   0.836   3.871
  278TCM     c1 1709   4.650   3.445   3.421
  278TCM    cl1 1710   4.527   3.573   3.413
  278TCM    cl2 1711   4.571   3.287   3.439
  278TCM     h1 1712   4.711   3.446   3.328
  278TCM    cl3 1713   4.756   3.474   3.561
  279TCM     c1 1714   1.361   0.775   0.356
  279TCM    cl1 1715   1.480   0.659   0.419
  279TCM    cl2 1716   1.241   0.689   0.257
  279TCM     h1 1717   1.310   0.825   0.440
  279TCM    cl3 1718   1.444   0.896   0.256
  280TCM     c1 1719   1.313   1.933   0.721
  280TCM    cl1 1720   1.447   1.946   0.838
  280TCM    cl2 1721   1.180   1.839   0.794
  280TCM     h1 1722   1.276   2.034   0.696
  280TCM    cl3 1723   1.370   1.851   0.574
  281TCM     c1 1724   3.473   2.959   2.168
  281TCM    cl1 1725   3.354   3.082   2.117
  281TCM    cl2 1726   3.483   2.958   2.345
  281TCM     h1 1727   3.441   2.859   2.132
  281TCM    cl3 1728   3.632   2.999   2.099
  282TCM     c1 1729   3.230   3.468   2.564
  282TCM    cl1 1730   3.395   3.531   2.539
  282TCM    cl2 1731   3.195   3.463   2.739
  282TCM     h1 1732   3.157   3.533   2.513
  282TCM    cl3 1733   3.219   3.303   2.497
  283TCM     c1 1734   1.332   1.078   0.031
  283TCM    cl1 1735   1.262   0.948   0.130
  283TCM    cl2 1736   1.507   1.087   0.060
  283TCM     h1 1737   1.314   1.057  -0.077
  283TCM    cl3 1738   1.257   1.233   0.074
  284TCM     c1 1739   3.050   0.148   0.605
  284TCM    cl1 1740   3.204   0.119   0.522
  284TCM    cl2 1741   3.066   0.106   0.777
  284TCM     h1 1742   3.022   0.256   0.595
  284TCM    cl3 1743   2.923   0.048   0.531
  285TCM     c1 1744   2.153   3.468   0.906
  285TCM    cl1 1745   1.978   3.440   0.911
  285TCM    cl2 1746   2.185   3.643   0.911
  285TCM     h1 1747   2.202   3.420   0.993
  285TCM    cl3 1748   2.220   3.400   0.756
  286TCM     c1 1749   2.964   3.704   1.734
  286TCM    cl1 1750   2.791   3.670   1.708
  286TCM    cl2 1751   3.037   3.757   1.581
  286TCM     h1 1752   2.975   3.784   1.810
  286TCM    cl3 1753   3.045   3.557   1.791
  287TCM     c1 1754   4.620   0.405   3.861
  287TCM    cl1 1755   4.575   0.270   3.754
  287TCM    cl2 1756   4.706   0.529   3.768
  287TCM     h1 1757   4.528   0.449   3.906
  287TCM    cl3 1758   4.726   0.344   3.991
  288TCM     c1 1759   4.647   2.899   4.521
  288TCM    cl1 1760   4.614   3.023   4.645
  288TCM    cl2 1761   4.822   2.890   4.492
  288TCM     h1 1762   4.610   2.801   4.556
  288TCM    cl3 1763   4.564   2.944   4.370
  289TCM     c1 1764   1.080   4.570   2.116
  289TCM    cl1 1765   1.210   4.574   1.995
  289TCM    cl2 1766   0.931   4.637   2.045
  289TCM     h1 1767   1.062   4.465   2.147
  289TCM    cl3 1768   1.127   4.666   2.257
  290TCM     c1 1769   0.135   0.139   0.092
  290TCM    cl1 1770  -0.034   0.134   0.145
  290TCM    cl2 1771   0.141   0.146  -0.086
  290TCM     h1 1772   0.184   0.230   0.134
  290TCM    cl3 1773   0.220  -0.006   0.149
  291TCM     c1 1774   4.574   0.358   3.389
  291TCM    cl1 1775   4.476   0.476   3.299
  291TCM    cl2 1776   4.512   0.345   3.555
  291TCM     h1 1777   4.567   0.259   3.339
  291TCM    cl3 1778   4.743   0.412   3.392
  292TCM     c1 1779   3.612   0.012   4.182
  292TCM    cl1 1780   3.716   0.154   4.155
  292TCM    cl2 1781   3.662  -0.119   4.073
  292TCM     h1 1782   3.622  -0.022   4.287
  292TCM    cl3 1783   3.443   0.055   4.150
  293TCM     c1 1784   1.438   1.813   1.229
  293TCM    cl1 1785   1.295   1.795   1.123
  293TCM    cl2 1786   1.496   1.652   1.277
  293TCM     h1 1787   1.518   1.866   1.174
  293TCM    cl3 1788   1.393   1.906   1.373
  294TCM     c1 1789   0.265   0.102   1.153
  294TCM    cl1 1790   0.332   0.015   1.013
  294TCM    cl2 1791   0.104   0.035   1.192
  294TCM     h1 1792   0.332   0.089   1.240
  294TCM    cl3 1793   0.249   0.275   1.115
  295TCM     c1 1794   3.279   1.693   2.491
  295TCM    cl1 1795   3.403   1.775   2.393
  295TCM    cl2 1796   3.338   1.674   2.657
  295TCM     h1 1797   3.186   1.754   2.491
  295TCM    cl3 1798   3.244   1.533   2.421
  296TCM     c1 1799   3.630   0.284   0.256
  296TCM    cl1 1800   3.805   0.317   0.263
  296TCM    cl2 1801   3.574   0.296   0.088
  296TCM     h1 1802   3.610   0.182   0.295
  296TCM    cl3 1803   3.544   0.403   0.356
  297TCM     c1 1804   2.904   0.502   2.359
  297TCM    cl1 1805   2.789   0.536   2.228
  297TCM    cl2 1806   2.909   0.327   2.389
  297TCM     h1 1807   3.004   0.538   2.331
  297TCM    cl3 1808   2.851   0.585   2.507
  298TCM     c1 1809   2.812   3.716   1.051
  298TCM    cl1 1810   2.784   3.684   0.879
  298TCM    cl2 1811   2.721   3.597   1.148
  298TCM     h1 1812   2.920   3.706   1.074
  298TCM    cl3 1813   2.757   3.880   1.092
  299TCM     c1 1814   2.365   2.460   4.151
  299TCM    cl1 1815   2.472   2.319   4.171
  299TCM    cl2 1816   2.353   2.501   3.978
  299TCM     h1 1817   2.264   2.436   4.190
  299TCM    cl3 1818   2.432   2.599   4.240
  300TCM     c1 1819   2.648   0.719   3.557
  300TCM    cl1 1820   2.758   0.591   3.502
  300TCM    cl2 1821   2.480   0.660   3.553
  300TCM     h1 1822   2.674   0.748   3.661
  300TCM    cl3 1823   2.664   0.860   3.450
  301TCM     c1 1824   2.580   0.386   1.365
  301TCM    cl1 1825   2.420   0.371   1.288
  301TCM    cl2 1826   2.687   0.260   1.301
  301TCM     h1 1827   2.622   0.486   1.343
  301TCM    cl3 1828   2.563   0.366   1.541
  302TCM     c1 1829   2.440   3.531   4.851
  302TCM    cl1 1830   2.530   3.395   4.780
  302TCM    cl2 1831   2.491   3.554   5.020
  302TCM     h1 1832   2.461   3.624   4.793
  302TCM    cl3 1833   2.266   3.496   4.846
  303TCM     c1 1834   0.155   3.355   4.696
  303TCM    cl1 1835   0.030   3.241   4.751
  303TCM    cl2 1836   0.125   3.398   4.526
  303TCM     h1 1837   0.151   3.447   4.759
  303TCM    cl3 1838   0.315   3.280   4.711
  304TCM     c1 1839   3.822   1.771   1.487
  304TCM    cl1 1840   3.694   1.822   1.600
  304TCM    cl2 1841   3.907   1.631   1.554
  304TCM     h1 1842   3.776   1.744   1.389
  304TCM    cl3 1843   3.937   1.905   1.463
  305TCM     c1 1844   2.255   2.735   2.492
  305TCM    cl1 1845   2.385   2.661   2.395
  305TCM    cl2 1846   2.312   2.758   2.659
  305TCM     h1 1847   2.228   2.833   2.448
  305TCM    cl3 1848   2.113   2.628   2.491
  306TCM     c1 1849   4.486   2.771   0.453
  306TCM    cl1 1850   4.380   2.863   0.343
  306TCM    cl2 1851   4.628   2.712   0.363
  306TCM     h1 1852   4.519   2.837   0.536
  306TCM    cl3 1853   4.396   2.633   0.519
  307TCM     c1 1854   0.108   4.168   1.491
  307TCM    cl1 1855   0.228   4.285   1.548
  307TCM    cl2 1856  -0.042   4.184   1.585
  307TCM     h1 1857   0.086   4.186   1.383
  307TCM    cl3 1858   0.172   4.003   1.510
  308TCM     c1 1859   3.258   1.596   3.491
  308TCM    cl1 1860   3.341   1.719   3.393
  308TCM    cl2 1861   3.193   1.671   3.638
  308TCM     h1 1862   3.176   1.551   3.432
  308TCM    cl3 1863   3.374   1.469   3.535
  309TCM     c1 1864   0.915   3.733   2.160
  309TCM    cl1 1865   0.879   3.573   2.229
  309TCM    cl2 1866   0.887   3.729   1.985
  309TCM     h1 1867   0.849   3.809   2.207
  309TCM    cl3 1868   1.085   3.774   2.192
  310TCM     c1 1869   3.000   4.007   2.026
  310TCM    cl1 1870   2.882   4.138   2.047
  310TCM    cl2 1871   3.120   4.014   2.157
  310TCM     h1 1872   2.948   3.909   2.029
  310TCM    cl3 1873   3.082   4.026   1.869
  311TCM     c1 1874   1.346   2.946   2.138
  311TCM    cl1 1875   1.302   3.100   2.216
  311TCM    cl2 1876   1.426   2.841   2.257
  311TCM     h1 1877   1.254   2.897   2.101
  311TCM    cl3 1878   1.456   2.978   2.002
  312TCM     c1 1879   4.599   0.070   4.883
  312TCM    cl1 1880   4.762   0.034   4.822
  312TCM    cl2 1881   4.610   0.131   5.050
  312TCM     h1 1882   4.551   0.147   4.819
  312TCM    cl3 1883   4.501  -0.078   4.881
  313TCM     c1 1884   4.158   4.828   2.181
  313TCM    cl1 1885   4.220   4.976   2.104
  313TCM    cl2 1886   4.079   4.727   2.059
  313TCM     h1 1887   4.242   4.772   2.227
  313TCM    cl3 1888   4.041   4.872   2.307
  314TCM     c1 1889   1.415   4.947   2.825
  314TCM    cl1 1890   1.512   4.890   2.688
  314TCM    cl2 1891   1.505   4.923   2.976
  314TCM     h1 1892   1.392   5.055   2.813
  314TCM    cl3 1893   1.263   4.856   2.832
  315TCM     c1 1894   3.381   4.854   3.523
  315TCM    cl1 1895   3.480   4.707   3.538
  315TCM    cl2 1896   3.323   4.870   3.356
  315TCM     h1 1897   3.294   4.847   3.592
  315TCM    cl3 1898   3.479   4.997   3.565
  316TCM     c1 1899   3.623   2.094   4.588
  316TCM    cl1 1900   3.710   1.939   4.585
  316TCM    cl2 1901   3.717   2.216   4.499
  316TCM     h1 1902   3.524   2.081   4.540
  316TCM    cl3 1903   3.602   2.146   4.756
  317TCM     c1 1904   4.854   4.149   2.229
  317TCM    cl1 1905   4.908   4.297   2.147
  317TCM    cl2 1906   4.684   4.116   2.187
  317TCM     h1 1907   4.917   4.064   2.196
  317TCM    cl3 1908   4.868   4.170   2.405
  318TCM     c1 1909   0.082   3.080   2.205
  318TCM    cl1 1910   0.117   3.221   2.103
  318TCM    cl2 1911   0.051   3.134   2.372
  318TCM     h1 1912  -0.007   3.027   2.166
  318TCM    cl3 1913   0.221   2.969   2.204
  319TCM     c1 1914   1.458   2.189   0.662
  319TCM    cl1 1915   1.565   2.274   0.548
  319TCM    cl2 1916   1.501   2.234   0.829
  319TCM     h1 1917   1.353   2.217   0.642
  319TCM    cl3 1918   1.478   2.013   0.642
  320TCM     c1 1919   1.014   1.874   3.837
  320TCM    cl1 1920   1.090   1.930   3.686
  320TCM    cl2 1921   1.141   1.821   3.950
  320TCM     h1 1922   0.957   1.957   3.882
  320TCM    cl3 1923   0.906   1.738   3.802
  321TCM     c1 1924   4.125   3.450   1.051
  321TCM    cl1 1925   3.956   3.428   1.000
  321TCM    cl2 1926   4.134   3.445   1.228
  321TCM     h1 1927   4.187   3.369   1.008
  321TCM    cl3 1928   4.184   3.607   0.993
  322TCM     c1 1929   0.258   0.058   1.870
  322TCM    cl1 1930   0.160   0.139   1.993
  322TCM    cl2 1931   0.330   0.180   1.762
  322TCM     h1 1932   0.339   0.000   1.919
  322TCM    cl3 1933   0.155  -0.052   1.775
  323TCM     c1 1934   1.424   2.446   1.657
  323TCM    cl1 1935   1.278   2.388   1.572
  323TCM    cl2 1936   1.553   2.476   1.539
  323TCM     h1 1937   1.400   2.540   1.711
  323TCM    cl3 1938   1.477   2.322   1.773
  324TCM     c1 1939   0.824   2.209   3.828
  324TCM    cl1 1940   0.686   2.252   3.724
  324TCM    cl2 1941   0.767   2.191   3.995
  324TCM     h1 1942   0.868   2.114   3.793
  324TCM    cl3 1943   0.946   2.338   3.820
  325TCM     c1 1944   1.106   0.791   4.900
  325TCM    cl1 1945   1.011   0.837   4.757
  325TCM    cl2 1946   0.996   0.729   5.026
  325TCM     h1 1947   1.179   0.713   4.873
  325TCM    cl3 1948   1.192   0.934   4.962
  326TCM     c1 1949   3.668   2.873   0.710
  326TCM    cl1 1950   3.737   3.032   0.670
  326TCM    cl2 1951   3.729   2.820   0.869
  326TCM     h1 1952   3.557   2.881   0.714
  326TCM    cl3 1953   3.715   2.755   0.586
  327TCM     c1 1954   3.685   4.888   2.741
  327TCM    cl1 1955   3.698   4.976   2.895
  327TCM    cl2 1956   3.684   5.005   2.607
  327TCM     h1 1957   3.771   4.819   2.730
  327TCM    cl3 1958   3.533   4.795   2.740
  328TCM     c1 1959   4.627   3.107   4.894
  328TCM    cl1 1960   4.600   3.154   5.063
  328TCM    cl2 1961   4.509   3.189   4.790
  328TCM     h1 1962   4.730   3.136   4.863
  328TCM    cl3 1963   4.608   2.931   4.877
  329TCM     c1 1964   4.462   2.726   2.689
  329TCM    cl1 1965   4.454   2.902   2.669
  329TCM    cl2 1966   4.307   2.654   2.638
  329TCM     h1 1967   4.544   2.685   2.627
  329TCM    cl3 1968   4.492   2.686   2.860
  330TCM     c1 1969   2.330   4.434   3.276
  330TCM    cl1 1970   2.190   4.468   3.172
  330TCM    cl2 1971   2.314   4.271   3.346
  330TCM     h1 1972   2.423   4.439   3.216
  330TCM    cl3 1973   2.338   4.554   3.407
  331TCM     c1 1974   3.539   2.159   0.667
  331TCM    cl1 1975   3.421   2.077   0.771
  331TCM    cl2 1976   3.703   2.129   0.728
  331TCM     h1 1977   3.531   2.120   0.563
  331TCM    cl3 1978   3.507   2.334   0.667
  332TCM     c1 1979   2.471   1.869   2.412
  332TCM    cl1 1980   2.426   1.697   2.401
  332TCM    cl2 1981   2.380   1.946   2.544
  332TCM     h1 1982   2.580   1.878   2.433
  332TCM    cl3 1983   2.433   1.950   2.259
  333TCM     c1 1984   2.918   2.813   3.178
  333TCM    cl1 1985   3.047   2.796   3.056
  333TCM    cl2 1986   2.906   2.984   3.227
  333TCM     h1 1987   2.822   2.780   3.134
  333TCM    cl3 1988   2.957   2.713   3.320
  334TCM     c1 1989   0.022   1.797   1.401
  334TCM    cl1 1990   0.127   1.839   1.264
  334TCM    cl2 1991  -0.144   1.770   1.343
  334TCM     h1 1992   0.060   1.705   1.450
  334TCM    cl3 1993   0.021   1.931   1.519
  335TCM     c1 1994   1.645   1.260   3.321
  335TCM    cl1 1995   1.742   1.257   3.471
  335TCM    cl2 1996   1.709   1.138   3.208
  335TCM     h1 1997   1.540   1.236   3.345
  335TCM    cl3 1998   1.655   1.421   3.247
  336TCM     c1 1999   3.424   4.104   1.958
  336TCM    cl1 2000   3.572   4.176   2.027
  336TCM    cl2 2001   3.284   4.152   2.057
  336TCM     h1 2002   3.410   4.140   1.854
  336TCM    cl3 2003   3.438   3.927   1.959
  337TCM     c1 2004   2.099   3.516   0.197
  337TCM    cl1 2005   1.965   3.570   0.299
  337TCM    cl2 2006   2.073   3.571   0.029
  337TCM     h1 2007   2.194   3.558   0.235
  337TCM    cl3 2008   2.108   3.338   0.200
  338TCM     c1 2009   4.620   2.037   2.955
  338TCM    cl1 2010   4.711   2.161   2.867
  338TCM    cl2 2011   4.606   2.085   3.126
  338TCM     h1 2012   4.518   2.028   2.912
  338TCM    cl3 2013   4.704   1.882   2.944
  339TCM     c1 2014   2.419   3.789   1.117
  339TCM    cl1 2015   2.461   3.919   1.232
  339TCM    cl2 2016   2.471   3.835   0.954
  339TCM     h1 2017   2.470   3.695   1.147
  339TCM    cl3 2018   2.243   3.763   1.119
  340TCM     c1 2019   1.054   4.842   4.460
  340TCM    cl1 2020   0.966   4.688   4.458
  340TCM    cl2 2021   1.196   4.829   4.566
  340TCM     h1 2022   1.087   4.867   4.357
  340TCM    cl3 2023   0.947   4.971   4.521
  341TCM     c1 2024   3.660   3.108   3.413
  341TCM    cl1 2025   3.492   3.161   3.395
  341TCM    cl2 2026   3.728   3.174   3.563
  341TCM     h1 2027   3.664   2.997   3.416
  341TCM    cl3 2028   3.755   3.166   3.274
  342TCM     c1 2029   3.747   3.765   0.996
  342TCM    cl1 2030   3.923   3.752   0.974
  342TCM    cl2 2031   3.676   3.848   0.856
  342TCM     h1 2032   3.703   3.664   1.005
  342TCM    cl3 2033   3.713   3.858   1.144
  343TCM     c1 2034   2.534   1.189   3.695
  343TCM    cl1 2035   2.468   1.066   3.584
  343TCM    cl2 2036   2.407   1.308   3.732
  343TCM     h1 2037   2.568   1.140   3.788
  343TCM    cl3 2038   2.671   1.271   3.617
  344TCM     c1 2039   2.102   3.539   4.588
  344TCM    cl1 2040   2.085   3.457   4.745
  344TCM    cl2 2041   2.106   3.418   4.458
  344TCM     h1 2042   2.016   3.607   4.573
  344TCM    cl3 2043   2.253   3.633   4.587
  345TCM     c1 2044   4.316   3.742   2.932
  345TCM    cl1 2045   4.452   3.828   2.856
  345TCM    cl2 2046   4.359   3.697   3.098
  345TCM     h1 2047   4.226   3.808   2.933
  345TCM    cl3 2048   4.279   3.595   2.838
  346TCM     c1 2049   2.481   0.107   4.425
  346TCM    cl1 2050   2.573   0.240   4.498
  346TCM    cl2 2051   2.512   0.102   4.250
  346TCM     h1 2052   2.512   0.011   4.470
  346TCM    cl3 2053   2.307   0.132   4.453
  347TCM     c1 2054   3.083   1.496   4.712
  347TCM    cl1 2055   3.047   1.491   4.886
  347TCM    cl2 2056   2.946   1.428   4.621
  347TCM     h1 2057   3.099   1.601   4.680
  347TCM    cl3 2058   3.229   1.400   4.679
  348TCM     c1 2059   0.661   0.490   3.877
  348TCM    cl1 2060   0.816   0.403   3.874
  348TCM    cl2 2061   0.565   0.446   3.734
  348TCM     h1 2062   0.605   0.463   3.969
  348TCM    cl3 2063   0.692   0.665   3.876
  349TCM     c1 2064   3.573   0.799   1.756
  349TCM    cl1 2065   3.521   0.948   1.838
  349TCM    cl2 2066   3.674   0.840   1.616
  349TCM     h1 2067   3.631   0.736   1.827
  349TCM    cl3 2068   3.429   0.709   1.701
  350TCM     c1 2069   2.833   0.027   2.304
  350TCM    cl1 2070   2.957  -0.100   2.287
  350TCM    cl2 2071   2.692  -0.014   2.203
  350TCM     h1 2072   2.802   0.034   2.410
  350TCM    cl3 2073   2.900   0.183   2.251
  351TCM     c1 2074   2.679   4.447   2.216
  351TCM    cl1 2075   2.557   4.576   2.227
  351TCM    cl2 2076   2.820   4.490   2.316
  351TCM     h1 2077   2.635   4.352   2.254
  351TCM    cl3 2078   2.730   4.427   2.047
  352TCM     c1 2079   1.918   1.297   3.807
  352TCM    cl1 2080   1.965   1.421   3.925
  352TCM    cl2 2081   1.747   1.320   3.762
  352TCM     h1 2082   1.981   1.306   3.716
  352TCM    cl3 2083   1.939   1.136   3.878
  353TCM     c1 2084   2.414   4.219   2.926
  353TCM    cl1 2085   2.418   4.152   2.762
  353TCM    cl2 2086   2.414   4.396   2.917
  353TCM     h1 2087   2.323   4.184   2.978
  353TCM    cl3 2088   2.558   4.164   3.016
  354TCM     c1 2089   4.224   1.755   4.504
  354TCM    cl1 2090   4.191   1.804   4.337
  354TCM    cl2 2091   4.290   1.893   4.595
  354TCM     h1 2092   4.130   1.720   4.552
  354TCM    cl3 2093   4.342   1.622   4.505
  355TCM     c1 2094   0.282   0.447   0.088
  355TCM    cl1 2095   0.449   0.470   0.030
  355TCM    cl2 2096   0.263   0.525   0.247
  355TCM     h1 2097   0.212   0.492   0.016
  355TCM    cl3 2098   0.249   0.273   0.103
  356TCM     c1 2099   3.904   3.781   4.875
  356TCM    cl1 2100   3.770   3.869   4.797
  356TCM    cl2 2101   3.873   3.769   5.049
  356TCM     h1 2102   3.911   3.679   4.831
  356TCM    cl3 2103   4.056   3.868   4.847
  357TCM     c1 2104   1.990   2.314   2.479
  357TCM    cl1 2105   2.020   2.178   2.368
  357TCM    cl2 2106   2.017   2.467   2.393
  357TCM     h1 2107   1.886   2.309   2.516
  357TCM    cl3 2108   2.102   2.303   2.617
  358TCM     c1 2109   2.168   4.106   1.293
  358TCM    cl1 2110   2.170   3.943   1.223
  358TCM    cl2 2111   2.231   4.100   1.460
  358TCM     h1 2112   2.231   4.174   1.233
  358TCM    cl3 2113   2.001   4.168   1.296
  359TCM     c1 2114   4.057   3.516   1.620
  359TCM    cl1 2115   4.092   3.448   1.781
  359TCM    cl2 2116   4.060   3.385   1.499
  359TCM     h1 2117   3.957   3.564   1.620
  359TCM    cl3 2118   4.181   3.637   1.579
  360TCM     c1 2119   2.551   4.518   0.366
  360TCM    cl1 2120   2.567   4.685   0.423
  360TCM    cl2 2121   2.552   4.516   0.188
  360TCM     h1 2122   2.636   4.457   0.404
  360TCM    cl3 2123   2.398   4.449   0.425
  361TCM     c1 2124   2.790   2.297   4.423
  361TCM    cl1 2125   2.940   2.211   4.383
  361TCM    cl2 2126   2.780   2.321   4.599
  361TCM     h1 2127   2.789   2.396   4.372
  361TCM    cl3 2128   2.651   2.201   4.368
  362TCM     c1 2129   1.567   3.259   2.420
  362TCM    cl1 2130   1.498   3.131   2.317
  362TCM    cl2 2131   1.588   3.196   2.585
  362TCM     h1 2132   1.665   3.290   2.380
  362TCM    cl3 2133   1.457   3.399   2.423
  363TCM     c1 2134   0.690   4.072   4.677
  363TCM    cl1 2135   0.763   4.199   4.777
  363TCM    cl2 2136   0.607   4.146   4.538
  363TCM     h1 2137   0.770   4.003   4.640
  363TCM    cl3 2138   0.573   3.979   4.773
  364TCM     c1 2139   0.085   2.035   1.224
  364TCM    cl1 2140   0.103   2.112   1.065
  364TCM    cl2 2141   0.076   2.161   1.349
  364TCM     h1 2142  -0.008   1.975   1.226
  364TCM    cl3 2143   0.225   1.930   1.255
  365TCM     c1 2144   4.478   0.832   3.882
  365TCM    cl1 2145   4.529   0.817   3.712
  365TCM    cl2 2146   4.503   1.000   3.936
  365TCM     h1 2147   4.371   0.806   3.891
  365TCM    cl3 2148   4.576   0.723   3.983
  366TCM     c1 2149   3.976   1.034   0.196
  366TCM    cl1 2150   4.020   1.161   0.081
  366TCM    cl2 2151   3.984   0.876   0.115
  366TCM     h1 2152   4.047   1.035   0.281
  366TCM    cl3 2153   3.811   1.062   0.256
  367TCM     c1 2154   1.917   1.702   3.651
  367TCM    cl1 2155   1.802   1.590   3.728
  367TCM    cl2 2156   1.856   1.751   3.492
  367TCM     h1 2157   1.930   1.792   3.715
  367TCM    cl3 2158   2.074   1.621   3.631
  368TCM     c1 2159   0.094   1.736   1.748
  368TCM    cl1 2160  -0.008   1.590   1.754
  368TCM    cl2 2161   0.177   1.757   1.904
  368TCM     h1 2162   0.169   1.726   1.667
  368TCM    cl3 2163  -0.008   1.878   1.716
  369TCM     c1 2164   1.701   0.508   3.144
  369TCM    cl1 2165   1.576   0.502   3.018
  369TCM    cl2 2166   1.625   0.485   3.304
  369TCM     h1 2167   1.775   0.427   3.127
  369TCM    cl3 2168   1.783   0.666   3.140
  370TCM     c1 2169   2.285   4.081   0.928
  370TCM    cl1 2170   2.391   4.180   1.031
  370TCM    cl2 2171   2.327   4.107   0.757
  370TCM     h1 2172   2.298   3.974   0.953
  370TCM    cl3 2173   2.116   4.129   0.955
  371TCM     c1 2174   3.465   1.661   4.042
  371TCM    cl1 2175   3.568   1.683   3.899
  371TCM    cl2 2176   3.512   1.777   4.168
  371TCM     h1 2177   3.359   1.677   4.014
  371TCM    cl3 2178   3.484   1.495   4.104
  372TCM     c1 2179   2.240   3.670   3.917
  372TCM    cl1 2180   2.303   3.768   3.783
  372TCM    cl2 2181   2.309   3.728   4.071
  372TCM     h1 2182   2.129   3.679   3.921
  372TCM    cl3 2183   2.285   3.500   3.893
  373TCM     c1 2184   3.149   0.881   4.672
  373TCM    cl1 2185   3.208   1.035   4.604
  373TCM    cl2 2186   3.186   0.875   4.846
  373TCM     h1 2187   3.039   0.874   4.657
  373TCM    cl3 2188   3.229   0.746   4.589
  374TCM     c1 2189   3.101   2.720   2.131
  374TCM    cl1 2190   3.059   2.858   2.027
  374TCM    cl2 2191   3.126   2.777   2.298
  374TCM     h1 2192   3.018   2.646   2.130
  374TCM    cl3 2193   3.250   2.644   2.071
  375TCM     c1 2194   4.703   4.130   0.615
  375TCM    cl1 2195   4.741   4.198   0.456
  375TCM    cl2 2196   4.800   4.212   0.740
  375TCM     h1 2197   4.595   4.144   0.637
  375TCM    cl3 2198   4.740   3.956   0.616
  376TCM     c1 2199   2.162   2.779   4.127
  376TCM    cl1 2200   2.142   2.779   4.304
  376TCM    cl2 2201   2.098   2.627   4.060
  376TCM     h1 2202   2.107   2.864   4.083
  376TCM    cl3 2203   2.335   2.793   4.088
  377TCM     c1 2204   2.609   4.073   4.176
  377TCM    cl1 2205   2.546   3.951   4.064
  377TCM    cl2 2206   2.691   3.992   4.312
  377TCM     h1 2207   2.682   4.138   4.123
  377TCM    cl3 2208   2.475   4.172   4.238
  378TCM     c1 2209   4.432   0.081   2.334
  378TCM    cl1 2210   4.435  -0.022   2.479
  378TCM    cl2 2211   4.263   0.108   2.284
  378TCM     h1 2212   4.480   0.178   2.357
  378TCM    cl3 2213   4.521   0.000   2.203
  379TCM     c1 2214   1.821   3.547   1.909
  379TCM    cl1 2215   1.672   3.639   1.879
  379TCM    cl2 2216   1.909   3.525   1.756
  379TCM     h1 2217   1.885   3.602   1.981
  379TCM    cl3 2218   1.779   3.387   1.977
  380TCM     c1 2219   3.470   0.719   0.780
  380TCM    cl1 2220   3.506   0.748   0.608
  380TCM    cl2 2221   3.482   0.545   0.814
  380TCM     h1 2222   3.543   0.774   0.843
  380TCM    cl3 2223   3.306   0.776   0.817
  381TCM     c1 2224   0.332   3.639   2.761
  381TCM    cl1 2225   0.342   3.734   2.611
  381TCM    cl2 2226   0.172   3.663   2.835
  381TCM     h1 2227   0.347   3.532   2.739
  381TCM    cl3 2228   0.458   3.694   2.874
  382TCM     c1 2229   2.946   2.618   4.587
  382TCM    cl1 2230   2.946   2.671   4.757
  382TCM    cl2 2231   2.781   2.569   4.540
  382TCM     h1 2232   2.980   2.701   4.523
  382TCM    cl3 2233   3.056   2.480   4.569
  383TCM     c1 2234   2.256   0.575   0.424
  383TCM    cl1 2235   2.388   0.682   0.373
  383TCM    cl2 2236   2.315   0.464   0.550
  383TCM     h1 2237   2.173   0.636   0.465
  383TCM    cl3 2238   2.198   0.481   0.285
  384TCM     c1 2239   2.917   0.174   1.953
  384TCM    cl1 2240   3.088   0.194   1.911
  384TCM    cl2 2241   2.859   0.321   2.036
  384TCM     h1 2242   2.857   0.158   1.861
  384TCM    cl3 2243   2.898   0.034   2.061
  385TCM     c1 2244   1.806   3.467   4.378
  385TCM    cl1 2245   1.790   3.570   4.522
  385TCM    cl2 2246   1.870   3.308   4.425
  385TCM     h1 2247   1.706   3.454   4.330
  385TCM    cl3 2248   1.917   3.544   4.263
  386TCM     c1 2249   0.725   2.977   0.519
  386TCM    cl1 2250   0.758   3.140   0.456
  386TCM    cl2 2251   0.782   2.966   0.687
  386TCM     h1 2252   0.616   2.957   0.516
  386TCM    cl3 2253   0.810   2.856   0.420
  387TCM     c1 2254   2.983   0.112   3.176
  387TCM    cl1 2255   3.148   0.101   3.243
  387TCM    cl2 2256   2.972   0.012   3.029
  387TCM     h1 2257   2.911   0.076   3.251
  387TCM    cl3 2258   2.947   0.281   3.135
  388TCM     c1 2259   2.114   2.915   0.865
  388TCM    cl1 2260   2.031   2.845   0.725
  388TCM    cl2 2261   2.219   3.049   0.812
  388TCM     h1 2262   2.039   2.953   0.937
  388TCM    cl3 2263   2.214   2.790   0.944
  389TCM     c1 2264   3.126   0.080   3.754
  389TCM    cl1 2265   3.104  -0.082   3.685
  389TCM    cl2 2266   3.160   0.066   3.928
  389TCM     h1 2267   3.212   0.130   3.704
  389TCM    cl3 2268   2.979   0.176   3.730
  390TCM     c1 2269   0.257   0.284   3.925
  390TCM    cl1 2270   0.087   0.335   3.916
  390TCM    cl2 2271   0.332   0.352   4.071
  390TCM     h1 2272   0.263   0.173   3.929
  390TCM    cl3 2273   0.344   0.342   3.781
  391TCM     c1 2274   2.448   2.534   3.699
  391TCM    cl1 2275   2.300   2.609   3.764
  391TCM    cl2 2276   2.432   2.515   3.523
  391TCM     h1 2277   2.535   2.600   3.721
  391TCM    cl3 2278   2.472   2.375   3.774
  392TCM     c1 2279   0.770   1.378   4.918
  392TCM    cl1 2280   0.892   1.333   4.796
  392TCM    cl2 2281   0.689   1.231   4.977
  392TCM     h1 2282   0.820   1.429   5.003
  392TCM    cl3 2283   0.650   1.487   4.845
  393TCM     c1 2284   4.650   2.877   1.668
  393TCM    cl1 2285   4.587   3.029   1.737
  393TCM    cl2 2286   4.801   2.833   1.750
  393TCM     h1 2287   4.575   2.797   1.682
  393TCM    cl3 2288   4.681   2.900   1.494
  394TCM     c1 2289   3.126   3.143   0.318
  394TCM    cl1 2290   3.064   3.035   0.445
  394TCM    cl2 2291   3.179   3.296   0.391
  394TCM     h1 2292   3.211   3.094   0.267
  394TCM    cl3 2293   2.996   3.175   0.200
  395TCM     c1 2294   2.593   4.784   1.299
  395TCM    cl1 2295   2.546   4.654   1.187
  395TCM    cl2 2296   2.479   4.791   1.435
  395TCM     h1 2297   2.696   4.765   1.337
  395TCM    cl3 2298   2.591   4.940   1.212
  396TCM     c1 2299   2.691   3.920   4.614
  396TCM    cl1 2300   2.714   4.097   4.612
  396TCM    cl2 2301   2.767   3.849   4.471
  396TCM     h1 2302   2.737   3.878   4.706
  396TCM    cl3 2303   2.517   3.884   4.613
  397TCM     c1 2304   3.971   3.868   2.451
  397TCM    cl1 2305   4.011   3.696   2.466
  397TCM    cl2 2306   3.811   3.886   2.375
  397TCM     h1 2307   3.970   3.915   2.551
  397TCM    cl3 2308   4.094   3.949   2.350
  398TCM     c1 2309   2.330   1.441   2.220
  398TCM    cl1 2310   2.161   1.489   2.188
  398TCM    cl2 2311   2.438   1.578   2.182
  398TCM     h1 2312   2.341   1.414   2.327
  398TCM    cl3 2313   2.372   1.302   2.118
  399TCM     c1 2314   4.904   2.256   0.395
  399TCM    cl1 2315   4.769   2.268   0.281
  399TCM    cl2 2316   4.841   2.259   0.562
  399TCM     h1 2317   4.959   2.161   0.378
  399TCM    cl3 2318   5.015   2.393   0.371
  400TCM     c1 2319   4.209   0.490   2.957
  400TCM    cl1 2320   4.314   0.397   3.067
  400TCM    cl2 2321   4.135   0.380   2.838
  400TCM     h1 2322   4.130   0.541   3.015
  400TCM    cl3 2323   4.307   0.612   2.871
  401TCM     c1 2324   4.839   2.258   4.874
  401TCM    cl1 2325   4.897   2.357   5.010
  401TCM    cl2 2326   4.701   2.160   4.927
  401TCM     h1 2327   4.808   2.324   4.791
  401TCM    cl3 2328   4.970   2.151   4.820
  402TCM     c1 2329   3.405   1.113   0.780
  402TCM    cl1 2330   3.267   1.104   0.891
  402TCM    cl2 2331   3.374   1.011   0.638
  402TCM     h1 2332   3.420   1.218   0.747
  402TCM    cl3 2333   3.552   1.055   0.863
  403TCM     c1 2334   2.738   4.309   4.459
  403TCM    cl1 2335   2.763   4.477   4.406
  403TCM    cl2 2336   2.782   4.198   4.328
  403TCM     h1 2337   2.803   4.289   4.547
  403TCM    cl3 2338   2.568   4.285   4.504
  404TCM     c1 2339   1.540   0.166   0.345
  404TCM    cl1 2340   1.623   0.239   0.485
  404TCM    cl2 2341   1.602   0.239   0.195
  404TCM     h1 2342   1.558   0.057   0.344
  404TCM    cl3 2343   1.365   0.197   0.358
  405TCM     c1 2344   1.411   3.207   4.230
  405TCM    cl1 2345   1.552   3.307   4.275
  405TCM    cl2 2346   1.458   3.094   4.101
  405TCM     h1 2347   1.376   3.150   4.319
  405TCM    cl3 2348   1.280   3.312   4.171
  406TCM     c1 2349   0.689   3.155   4.632
  406TCM    cl1 2350   0.720   2.991   4.570
  406TCM    cl2 2351   0.556   3.229   4.540
  406TCM     h1 2352   0.662   3.149   4.739
  406TCM    cl3 2353   0.836   3.254   4.614
  407TCM     c1 2354   1.400   1.246   0.414
  407TCM    cl1 2355   1.226   1.215   0.434
  407TCM    cl2 2356   1.443   1.232   0.242
  407TCM     h1 2357   1.424   1.348   0.450
  407TCM    cl3 2358   1.492   1.127   0.507
  408TCM     c1 2359   0.336   0.090   2.992
  408TCM    cl1 2360   0.226  -0.040   2.939
  408TCM    cl2 2361   0.306   0.236   2.895
  408TCM     h1 2362   0.317   0.112   3.099
  408TCM    cl3 2363   0.504   0.038   2.970
  409TCM     c1 2364   2.798   3.886   0.073
  409TCM    cl1 2365   2.881   3.840   0.223
  409TCM    cl2 2366   2.782   3.744  -0.033
  409TCM     h1 2367   2.697   3.925   0.098
  409TCM    cl3 2368   2.891   4.012  -0.011
  410TCM     c1 2369   0.058   1.762   0.607
  410TCM    cl1 2370   0.078   1.900   0.498
  410TCM    cl2 2371  -0.107   1.697   0.590
  410TCM     h1 2372   0.131   1.683   0.581
  410TCM    cl3 2373   0.083   1.814   0.775
  411TCM     c1 2374   3.233   4.679   3.842
  411TCM    cl1 2375   3.338   4.575   3.940
  411TCM    cl2 2376   3.223   4.613   3.677
  411TCM     h1 2377   3.132   4.682   3.887
  411TCM    cl3 2378   3.301   4.843   3.836
  412TCM     c1 2379   0.378   3.159   3.141
  412TCM    cl1 2380   0.344   3.218   3.305
  412TCM    cl2 2381   0.282   3.012   3.110
  412TCM     h1 2382   0.350   3.237   3.067
  412TCM    cl3 2383   0.551   3.121   3.126
  413TCM     c1 2384   2.914   0.433   1.665
  413TCM    cl1 2385   2.782   0.527   1.738
  413TCM    cl2 2386   2.846   0.297   1.573
  413TCM     h1 2387   2.972   0.498   1.596
  413TCM    cl3 2388   3.021   0.371   1.793
  414TCM     c1 2389   4.847   4.910   4.060
  414TCM    cl1 2390   4.870   4.808   4.204
  414TCM    cl2 2391   4.804   5.075   4.110
  414TCM     h1 2392   4.941   4.912   4.001
  414TCM    cl3 2393   4.716   4.842   3.960
  415TCM     c1 2394   4.030   0.892   1.767
  415TCM    cl1 2395   4.170   0.793   1.723
  415TCM    cl2 2396   3.990   0.866   1.938
  415TCM     h1 2397   4.053   0.999   1.750
  415TCM    cl3 2398   3.891   0.846   1.666
  416TCM     c1 2399   2.308   4.675   2.155
  416TCM    cl1 2400   2.375   4.534   2.069
  416TCM    cl2 2401   2.322   4.649   2.331
  416TCM     h1 2402   2.365   4.766   2.127
  416TCM    cl3 2403   2.137   4.696   2.111
  417TCM     c1 2404   2.276   2.487   0.652
  417TCM    cl1 2405   2.438   2.443   0.711
  417TCM    cl2 2406   2.273   2.476   0.474
  417TCM     h1 2407   2.201   2.417   0.695
  417TCM    cl3 2408   2.238   2.653   0.701
  418TCM     c1 2409   2.198   4.641   0.175
  418TCM    cl1 2410   2.369   4.636   0.225
  418TCM    cl2 2411   2.179   4.552   0.022
  418TCM     h1 2412   2.135   4.594   0.253
  418TCM    cl3 2413   2.148   4.810   0.152
  419TCM     c1 2414   3.616   1.006   2.096
  419TCM    cl1 2415   3.623   1.176   2.046
  419TCM    cl2 2416   3.674   0.902   1.963
  419TCM     h1 2417   3.681   0.991   2.185
  419TCM    cl3 2418   3.449   0.962   2.136
  420TCM     c1 2419   3.724   3.932   0.552
  420TCM    cl1 2420   3.897   3.974   0.563
  420TCM    cl2 2421   3.628   4.052   0.642
  420TCM     h1 2422   3.693   3.931   0.446
  420TCM    cl3 2423   3.698   3.771   0.623
  421TCM     c1 2424   1.702   4.241   1.877
  421TCM    cl1 2425   1.621   4.153   1.745
  421TCM    cl2 2426   1.808   4.130   1.966
  421TCM     h1 2427   1.763   4.324   1.834
  421TCM    cl3 2428   1.580   4.308   1.987
  422TCM     c1 2429   4.997   2.682   2.730
  422TCM    cl1 2430   5.106   2.822   2.736
  422TCM    cl2 2431   4.841   2.731   2.660
  422TCM     h1 2432   5.043   2.603   2.666
  422TCM    cl3 2433   4.972   2.618   2.894
  423TCM     c1 2434   1.583   1.214   1.932
  423TCM    cl1 2435   1.658   1.133   1.792
  423TCM    cl2 2436   1.647   1.144   2.082
  423TCM     h1 2437   1.606   1.322   1.929
  423TCM    cl3 2438   1.407   1.190   1.926
  424TCM     c1 2439   1.065   4.221   4.996
  424TCM    cl1 2440   1.223   4.140   5.000
  424TCM    cl2 2441   0.988   4.208   5.156
  424TCM     h1 2442   1.080   4.328   4.970
  424TCM    cl3 2443   0.962   4.144   4.873
  425TCM     c1 2444   3.111   2.514   0.662
  425TCM    cl1 2445   3.009   2.386   0.732
  425TCM    cl2 2446   3.245   2.550   0.774
  425TCM     h1 2447   3.152   2.479   0.565
  425TCM    cl3 2448   3.014   2.661   0.637
  426TCM     c1 2449   0.439   1.787   2.319
  426TCM    cl1 2450   0.296   1.688   2.284
  426TCM    cl2 2451   0.569   1.747   2.204
  426TCM     h1 2452   0.414   1.894   2.310
  426TCM    cl3 2453   0.495   1.753   2.485
  427TCM     c1 2454   2.619   0.666   4.707
  427TCM    cl1 2455   2.714   0.803   4.646
  427TCM    cl2 2456   2.448   0.713   4.720
  427TCM     h1 2457   2.628   0.580   4.636
  427TCM    cl3 2458   2.679   0.617   4.867
  428TCM     c1 2459   0.389   4.247   3.942
  428TCM    cl1 2460   0.409   4.224   4.117
  428TCM    cl2 2461   0.440   4.099   3.857
  428TCM     h1 2462   0.283   4.268   3.919
  428TCM    cl3 2463   0.490   4.383   3.889
  429TCM     c1 2464   0.020   3.937   1.251
  429TCM    cl1 2465   0.004   3.804   1.367
  429TCM    cl2 2466  -0.049   3.888   1.095
  429TCM     h1 2467  -0.033   4.027   1.289
  429TCM    cl3 2468   0.193   3.976   1.229
  430TCM     c1 2469   2.609   2.225   0.174
  430TCM    cl1 2470   2.639   2.347   0.047
  430TCM    cl2 2471   2.651   2.294   0.333
  430TCM     h1 2472   2.502   2.196   0.173
  430TCM    cl3 2473   2.709   2.082   0.143
  431TCM     c1 2474   3.359   2.373   1.897
  431TCM    cl1 2475   3.471   2.480   1.984
  431TCM    cl2 2476   3.214   2.466   1.849
  431TCM     h1 2477   3.408   2.333   1.807
  431TCM    cl3 2478   3.310   2.239   2.003
  432TCM     c1 2479   4.072   1.170   4.934
  432TCM    cl1 2480   4.079   1.040   4.813
  432TCM    cl2 2481   4.212   1.159   5.042
  432TCM     h1 2482   4.072   1.269   4.883
  432TCM    cl3 2483   3.922   1.154   5.029
  433TCM     c1 2484   1.088   1.943   4.259
  433TCM    cl1 2485   1.168   1.871   4.400
  433TCM    cl2 2486   0.970   1.828   4.192
  433TCM     h1 2487   1.036   2.036   4.289
  433TCM    cl3 2488   1.209   1.982   4.134
  434TCM     c1 2489   0.401   0.247   1.898
  434TCM    cl1 2490   0.431   0.417   1.852
  434TCM    cl2 2491   0.363   0.153   1.752
  434TCM     h1 2492   0.492   0.206   1.946
  434TCM    cl3 2493   0.264   0.240   2.011
  435TCM     c1 2494   3.807   0.341   0.831
  435TCM    cl1 2495   3.716   0.192   0.798
  435TCM    cl2 2496   3.822   0.435   0.680
  435TCM     h1 2497   3.753   0.402   0.906
  435TCM    cl3 2498   3.968   0.300   0.891
  436TCM     c1 2499   3.153   2.183   3.342
  436TCM    cl1 2500   3.288   2.086   3.405
  436TCM    cl2 2501   3.005   2.084   3.339
  436TCM     h1 2502   3.137   2.271   3.407
  436TCM    cl3 2503   3.191   2.237   3.177
  437TCM     c1 2504   3.750   2.770   3.283
  437TCM    cl1 2505   3.760   2.607   3.212
  437TCM    cl2 2506   3.810   2.889   3.165
  437TCM     h1 2507   3.645   2.793   3.308
  437TCM    cl3 2508   3.849   2.776   3.430
  438TCM     c1 2509   3.225   4.374   1.540
  438TCM    cl1 2510   3.161   4.269   1.669
  438TCM    cl2 2511   3.258   4.276   1.395
  438TCM     h1 2512   3.151   4.452   1.516
  438TCM    cl3 2513   3.376   4.450   1.595
  439TCM     c1 2514   0.527   1.224   3.924
  439TCM    cl1 2515   0.353   1.210   3.959
  439TCM    cl2 2516   0.615   1.096   4.011
  439TCM     h1 2517   0.544   1.213   3.815
  439TCM    cl3 2518   0.586   1.383   3.977
  440TCM     c1 2519   0.112   1.587   1.273
  440TCM    cl1 2520   0.056   1.485   1.407
  440TCM    cl2 2521   0.236   1.499   1.179
  440TCM     h1 2522   0.027   1.613   1.207
  440TCM    cl3 2523   0.183   1.736   1.338
  441TCM     c1 2524   1.697   2.425   3.613
  441TCM    cl1 2525   1.690   2.277   3.514
  441TCM    cl2 2526   1.747   2.383   3.778
  441TCM     h1 2527   1.770   2.496   3.569
  441TCM    cl3 2528   1.536   2.501   3.617
  442TCM     c1 2529   0.938   3.553   4.792
  442TCM    cl1 2530   0.774   3.526   4.729
  442TCM    cl2 2531   0.953   3.479   4.953
  442TCM     h1 2532   1.012   3.508   4.723
  442TCM    cl3 2533   0.968   3.728   4.805
  443TCM     c1 2534   3.676   1.266   1.257
  443TCM    cl1 2535   3.576   1.124   1.295
  443TCM    cl2 2536   3.820   1.215   1.166
  443TCM     h1 2537   3.617   1.337   1.195
  443TCM    cl3 2538   3.726   1.346   1.407
  444TCM     c1 2539   3.473   1.620   4.521
  444TCM    cl1 2540   3.412   1.598   4.687
  444TCM    cl2 2541   3.644   1.670   4.527
  444TCM     h1 2542   3.464   1.524   4.465
  444TCM    cl3 2543   3.377   1.745   4.439
  445TCM     c1 2544   0.708   3.874   4.025
  445TCM    cl1 2545   0.540   3.826   3.991
  445TCM    cl2 2546   0.770   3.780   4.162
  445TCM     h1 2547   0.770   3.855   3.935
  445TCM    cl3 2548   0.713   4.047   4.065
  446TCM     c1 2549   3.595   3.122   4.906
  446TCM    cl1 2550   3.606   3.153   4.731
  446TCM    cl2 2551   3.702   3.235   4.993
  446TCM     h1 2552   3.490   3.137   4.939
  446TCM    cl3 2553   3.645   2.955   4.940
  447TCM     c1 2554   1.728   2.456   0.812
  447TCM    cl1 2555   1.694   2.483   0.640
  447TCM    cl2 2556   1.709   2.284   0.850
  447TCM     h1 2557   1.832   2.488   0.835
  447TCM    cl3 2558   1.614   2.551   0.911
  448TCM     c1 2559   4.398   4.991   4.940
  448TCM    cl1 2560   4.302   4.841   4.939
  448TCM    cl2 2561   4.315   5.115   4.843
  448TCM     h1 2562   4.409   5.027   5.044
  448TCM    cl3 2563   4.559   4.960   4.870
  449TCM     c1 2564   4.413   1.027   0.030
  449TCM    cl1 2565   4.293   1.012  -0.101
  449TCM    cl2 2566   4.470   0.865   0.077
  449TCM     h1 2567   4.499   1.088  -0.006
  449TCM    cl3 2568   4.338   1.106   0.170
  450TCM     c1 2569   3.099   0.737   3.236
  450TCM    cl1 2570   2.967   0.786   3.129
  450TCM    cl2 2571   3.230   0.665   3.139
  450TCM     h1 2572   3.138   0.826   3.290
  450TCM    cl3 2573   3.040   0.618   3.354
  451TCM     c1 2574   4.356   1.275   4.629
  451TCM    cl1 2575   4.428   1.383   4.751
  451TCM    cl2 2576   4.258   1.151   4.711
  451TCM     h1 2577   4.291   1.334   4.561
  451TCM    cl3 2578   4.485   1.196   4.536
  452TCM     c1 2579   4.760   2.058   3.546
  452TCM    cl1 2580   4.857   1.928   3.619
  452TCM    cl2 2581   4.616   1.989   3.468
  452TCM     h1 2582   4.728   2.130   3.624
  452TCM    cl3 2583   4.858   2.144   3.424
  453TCM     c1 2584   0.088   4.806   3.454
  453TCM    cl1 2585   0.236   4.723   3.508
  453TCM    cl2 2586   0.076   4.797   3.277
  453TCM     h1 2587   0.000   4.758   3.500
  453TCM    cl3 2588   0.095   4.977   3.504
  454TCM     c1 2589   3.366   0.652   3.524
  454TCM    cl1 2590   3.391   0.627   3.699
  454TCM    cl2 2591   3.501   0.746   3.457
  454TCM     h1 2592   3.361   0.553   3.474
  454TCM    cl3 2593   3.213   0.739   3.498
  455TCM     c1 2594   3.855   3.661   1.295
  455TCM    cl1 2595   3.706   3.693   1.387
  455TCM    cl2 2596   3.903   3.491   1.318
  455TCM     h1 2597   3.836   3.680   1.187
  455TCM    cl3 2598   3.984   3.768   1.353
  456TCM     c1 2599   0.547   0.074   1.096
  456TCM    cl1 2600   0.409   0.180   1.132
  456TCM    cl2 2601   0.519  -0.009   0.941
  456TCM     h1 2602   0.640   0.134   1.089
  456TCM    cl3 2603   0.564  -0.047   1.225
  457TCM     c1 2604   2.157   3.868   3.405
  457TCM    cl1 2605   2.136   4.041   3.442
  457TCM    cl2 2606   2.181   3.778   3.556
  457TCM     h1 2607   2.067   3.830   3.353
  457TCM    cl3 2608   2.300   3.848   3.300
  458TCM     c1 2609   4.508   3.855   1.071
  458TCM    cl1 2610   4.642   3.865   1.188
  458TCM    cl2 2611   4.573   3.834   0.907
  458TCM     h1 2612   4.443   3.768   1.097
  458TCM    cl3 2613   4.412   4.004   1.079
  459TCM     c1 2614   3.156   4.279   4.305
  459TCM    cl1 2615   3.006   4.183   4.293
  459TCM    cl2 2616   3.272   4.195   4.409
  459TCM     h1 2617   3.199   4.292   4.203
  459TCM    cl3 2618   3.118   4.438   4.374
  460TCM     c1 2619   2.065   1.774   4.519
  460TCM    cl1 2620   2.111   1.716   4.357
  460TCM    cl2 2621   2.107   1.651   4.640
  460TCM     h1 2622   2.118   1.868   4.541
  460TCM    cl3 2623   1.889   1.803   4.523
  461TCM     c1 2624   1.453   3.544   1.613
  461TCM    cl1 2625   1.566   3.420   1.552
  461TCM    cl2 2626   1.479   3.566   1.788
  461TCM     h1 2627   1.472   3.640   1.561
  461TCM    cl3 2628   1.286   3.492   1.584
  462TCM     c1 2629   1.843   0.076   1.276
  462TCM    cl1 2630   1.797  -0.057   1.386
  462TCM    cl2 2631   1.821   0.023   1.108
  462TCM     h1 2632   1.780   0.164   1.296
  462TCM    cl3 2633   2.014   0.117   1.303
  463TCM     c1 2634   4.217   4.310   3.469
  463TCM    cl1 2635   4.231   4.292   3.292
  463TCM    cl2 2636   4.344   4.421   3.526
  463TCM     h1 2637   4.118   4.351   3.494
  463TCM    cl3 2638   4.238   4.152   3.546
  464TCM     c1 2639   0.729   0.895   3.459
  464TCM    cl1 2640   0.766   0.722   3.444
  464TCM    cl2 2641   0.848   0.972   3.567
  464TCM     h1 2642   0.733   0.943   3.359
  464TCM    cl3 2643   0.566   0.915   3.528
  465TCM     c1 2644   1.699   4.352   0.445
  465TCM    cl1 2645   1.694   4.505   0.536
  465TCM    cl2 2646   1.705   4.387   0.271
  465TCM     h1 2647   1.789   4.295   0.474
  465TCM    cl3 2648   1.554   4.257   0.481
  466TCM     c1 2649   3.261   0.307   4.862
  466TCM    cl1 2650   3.277   0.437   4.742
  466TCM    cl2 2651   3.150   0.182   4.800
  466TCM     h1 2652   3.360   0.262   4.881
  466TCM    cl3 2653   3.195   0.374   5.013
  467TCM     c1 2654   3.828   0.811   3.027
  467TCM    cl1 2655   3.657   0.855   3.006
  467TCM    cl2 2656   3.928   0.914   2.922
  467TCM     h1 2657   3.857   0.827   3.133
  467TCM    cl3 2658   3.852   0.641   2.983
  468TCM     c1 2659   0.140   4.526   3.716
  468TCM    cl1 2660   0.020   4.540   3.586
  468TCM    cl2 2661   0.303   4.552   3.649
  468TCM     h1 2662   0.120   4.602   3.793
  468TCM    cl3 2663   0.131   4.364   3.788
  469TCM     c1 2664   4.408   1.634   4.897
  469TCM    cl1 2665   4.442   1.777   4.798
  469TCM    cl2 2666   4.369   1.684   5.063
  469TCM     h1 2667   4.322   1.578   4.854
  469TCM    cl3 2668   4.552   1.529   4.900
  470TCM     c1 2669   0.334   0.550   2.496
  470TCM    cl1 2670   0.341   0.724   2.532
  470TCM    cl2 2671   0.257   0.464   2.631
  470TCM     h1 2672   0.276   0.533   2.403
  470TCM    cl3 2673   0.500   0.488   2.474
  471TCM     c1 2674   0.155   2.182   1.857
  471TCM    cl1 2675   0.299   2.259   1.926
  471TCM    cl2 2676   0.141   2.224   1.685
  471TCM     h1 2677   0.164   2.071   1.867
  471TCM    cl3 2678   0.010   2.237   1.943
  472TCM     c1 2679   3.710   2.069   1.397
  472TCM    cl1 2680   3.782   1.990   1.255
  472TCM    cl2 2681   3.640   2.225   1.349
  472TCM     h1 2682   3.631   2.004   1.439
  472TCM    cl3 2683   3.836   2.096   1.520
  473TCM     c1 2684   2.632   0.789   4.128
  473TCM    cl1 2685   2.677   0.939   4.044
  473TCM    cl2 2686   2.517   0.827   4.259
  473TCM     h1 2687   2.584   0.719   4.056
  473TCM    cl3 2688   2.777   0.713   4.197
  474TCM     c1 2689   4.666   2.444   4.661
  474TCM    cl1 2690   4.522   2.544   4.689
  474TCM    cl2 2691   4.641   2.345   4.515
  474TCM     h1 2692   4.754   2.509   4.646
  474TCM    cl3 2693   4.692   2.337   4.800
  475TCM     c1 2694   3.836   0.676   2.579
  475TCM    cl1 2695   3.751   0.562   2.686
  475TCM    cl2 2696   3.797   0.843   2.628
  475TCM     h1 2697   3.945   0.660   2.587
  475TCM    cl3 2698   3.784   0.650   2.411
  476TCM     c1 2699   3.311   1.999   3.052
  476TCM    cl1 2700   3.377   1.865   3.148
  476TCM    cl2 2701   3.287   1.945   2.884
  476TCM     h1 2702   3.214   2.031   3.095
  476TCM    cl3 2703   3.424   2.136   3.054
  477TCM     c1 2704   3.802   1.582   1.169
  477TCM    cl1 2705   3.909   1.497   1.055
  477TCM    cl2 2706   3.833   1.524   1.334
  477TCM     h1 2707   3.822   1.691   1.164
  477TCM    cl3 2708   3.633   1.551   1.126
  478TCM     c1 2709   0.572   3.492   1.419
  478TCM    cl1 2710   0.404   3.479   1.362
  478TCM    cl2 2711   0.616   3.343   1.507
  478TCM     h1 2712   0.640   3.505   1.332
  478TCM    cl3 2713   0.587   3.632   1.528
  479TCM     c1 2714   2.494   3.674   4.320
  479TCM    cl1 2715   2.337   3.618   4.383
  479TCM    cl2 2716   2.477   3.841   4.260
  479TCM     h1 2717   2.569   3.672   4.402
  479TCM    cl3 2718   2.546   3.568   4.188
  480TCM     c1 2719   1.920   1.510   1.715
  480TCM    cl1 2720   1.747   1.474   1.695
  480TCM    cl2 2721   2.012   1.438   1.581
  480TCM     h1 2722   1.935   1.620   1.715
  480TCM    cl3 2723   1.977   1.443   1.869
  481TCM     c1 2724   4.581   2.430   0.050
  481TCM    cl1 2725   4.570   2.522  -0.101
  481TCM    cl2 2726   4.462   2.298   0.049
  481TCM     h1 2727   4.683   2.388   0.060
  481TCM    cl3 2728   4.548   2.538   0.188
  482TCM     c1 2729   3.099   4.510   3.325
  482TCM    cl1 2730   3.235   4.507   3.211
  482TCM    cl2 2731   2.967   4.409   3.262
  482TCM     h1 2732   3.133   4.469   3.423
  482TCM    cl3 2733   3.042   4.677   3.347
  483TCM     c1 2734   4.975   3.795   4.902
  483TCM    cl1 2735   5.071   3.695   4.791
  483TCM    cl2 2736   5.050   3.793   5.063
  483TCM     h1 2737   4.971   3.899   4.864
  483TCM    cl3 2738   4.810   3.729   4.913
  484TCM     c1 2739   1.164   2.675   3.063
  484TCM    cl1 2740   1.336   2.671   3.106
  484TCM    cl2 2741   1.144   2.755   2.905
  484TCM     h1 2742   1.124   2.571   3.057
  484TCM    cl3 2743   1.074   2.766   3.187
  485TCM     c1 2744   2.536   2.681   1.060
  485TCM    cl1 2745   2.390   2.748   1.135
  485TCM    cl2 2746   2.543   2.730   0.889
  485TCM     h1 2747   2.626   2.720   1.113
  485TCM    cl3 2748   2.533   2.504   1.071
  486TCM     c1 2749   0.141   3.460   3.275
  486TCM    cl1 2750   0.248   3.405   3.406
  486TCM    cl2 2751   0.100   3.631   3.300
  486TCM     h1 2752   0.192   3.448   3.177
  486TCM    cl3 2753  -0.008   3.363   3.275
  487TCM     c1 2754   2.465   4.724   3.033
  487TCM    cl1 2755   2.548   4.876   3.069
  487TCM    cl2 2756   2.479   4.688   2.859
  487TCM     h1 2757   2.511   4.641   3.091
  487TCM    cl3 2758   2.293   4.738   3.077
  488TCM     c1 2759   0.001   2.607   3.900
  488TCM    cl1 2760  -0.110   2.746   3.905
  488TCM    cl2 2761   0.033   2.551   4.066
  488TCM     h1 2762  -0.045   2.525   3.842
  488TCM    cl3 2763   0.154   2.656   3.824
  489TCM     c1 2764   2.602   2.152   3.287
  489TCM    cl1 2765   2.762   2.101   3.346
  489TCM    cl2 2766   2.476   2.051   3.362
  489TCM     h1 2767   2.585   2.258   3.313
  489TCM    cl3 2768   2.596   2.133   3.110
  490TCM     c1 2769   1.935   0.752   3.816
  490TCM    cl1 2770   1.948   0.585   3.755
  490TCM    cl2 2771   1.776   0.775   3.892
  490TCM     h1 2772   2.015   0.770   3.891
  490TCM    cl3 2773   1.954   0.866   3.680
  491TCM     c1 2774   0.928   0.263   0.596
  491TCM    cl1 2775   0.993   0.428   0.607
  491TCM    cl2 2776   0.762   0.269   0.533
  491TCM     h1 2777   0.992   0.202   0.528
  491TCM    cl3 2778   0.928   0.188   0.758
  492TCM     c1 2779   4.147   1.332   3.388
  492TCM    cl1 2780   4.178   1.476   3.288
  492TCM    cl2 2781   4.115   1.382   3.555
  492TCM     h1 2782   4.060   1.277   3.348
  492TCM    cl3 2783   4.290   1.227   3.385
  493TCM     c1 2784   3.225   4.816   3.081
  493TCM    cl1 2785   3.315   4.956   3.020
  493TCM    cl2 2786   3.094   4.872   3.188
  493TCM     h1 2787   3.182   4.760   2.996
  493TCM    cl3 2788   3.334   4.710   3.173
  494TCM     c1 2789   2.182   2.422   2.826
  494TCM    cl1 2790   2.045   2.510   2.753
  494TCM    cl2 2791   2.204   2.476   2.994
  494TCM     h1 2792   2.161   2.313   2.824
  494TCM    cl3 2793   2.330   2.456   2.733
  495TCM     c1 2794   1.458   0.594   4.963
  495TCM    cl1 2795   1.338   0.679   5.063
  495TCM    cl2 2796   1.560   0.712   4.879
  495TCM     h1 2797   1.521   0.530   5.028
  495TCM    cl3 2798   1.374   0.492   4.844
  496TCM     c1 2799   2.246   4.308   4.068
  496TCM    cl1 2800   2.111   4.257   3.965
  496TCM    cl2 2801   2.218   4.254   4.235
  496TCM     h1 2802   2.340   4.263   4.030
  496TCM    cl3 2803   2.260   4.486   4.065
  497TCM     c1 2804   0.766   3.684   4.775
  497TCM    cl1 2805   0.638   3.581   4.708
  497TCM    cl2 2806   0.925   3.617   4.731
  497TCM     h1 2807   0.757   3.787   4.735
  497TCM    cl3 2808   0.751   3.689   4.953
  498TCM     c1 2809   0.092   2.956   1.592
  498TCM    cl1 2810   0.167   2.838   1.702
  498TCM    cl2 2811   0.218   3.054   1.515
  498TCM     h1 2812   0.034   2.902   1.514
  498TCM    cl3 2813  -0.018   3.061   1.684
  499TCM     c1 2814   3.350   1.095   3.319
  499TCM    cl1 2815   3.364   1.229   3.202
  499TCM    cl2 2816   3.179   1.056   3.344
  499TCM     h1 2817   3.403   1.006   3.280
  499TCM    cl3 2818   3.423   1.144   3.474
  500TCM     c1 2819   1.546   4.983   0.955
  500TCM    cl1 2820   1.398   4.900   1.007
  500TCM    cl2 2821   1.557   4.981   0.778
  500TCM     h1 2822   1.544   5.088   0.991
  500TCM    cl3 2823   1.688   4.900   1.024
  501TCM     c1 2824   2.759   2.846   3.609
  501TCM    cl1 2825   2.719   2.675   3.581
  501TCM    cl2 2826   2.921   2.858   3.680
  501TCM     h1 2827   2.756   2.901   3.513
  501TCM    cl3 2828   2.640   2.916   3.721
  502TCM     c1 2829   0.084   3.266   0.980
  502TCM    cl1 2830   0.190   3.355   0.868
  502TCM    cl2 2831   0.046   3.369   1.120
  502TCM     h1 2832  -0.010   3.238   0.929
  502TCM    cl3 2833   0.168   3.119   1.036
  503TCM     c1 2834   1.878   0.168   4.916
  503TCM    cl1 2835   1.839   0.326   4.845
  503TCM    cl2 2836   1.860   0.176   5.092
  503TCM     h1 2837   1.809   0.091   4.875
  503TCM    cl3 2838   2.046   0.124   4.875
  504TCM     c1 2839   1.458   1.771   2.753
  504TCM    cl1 2840   1.551   1.843   2.620
  504TCM    cl2 2841   1.558   1.767   2.900
  504TCM     h1 2842   1.367   1.832   2.772
  504TCM    cl3 2843   1.410   1.606   2.710
  505TCM     c1 2844   2.718   3.795   2.201
  505TCM    cl1 2845   2.571   3.794   2.301
  505TCM    cl2 2846   2.680   3.858   2.040
  505TCM     h1 2847   2.795   3.859   2.249
  505TCM    cl3 2848   2.780   3.628   2.187
  506TCM     c1 2849   1.506   0.522   2.663
  506TCM    cl1 2850   1.457   0.613   2.518
  506TCM    cl2 2851   1.455   0.353   2.648
  506TCM     h1 2852   1.617   0.527   2.674
  506TCM    cl3 2853   1.430   0.595   2.807
  507TCM     c1 2854   0.122   4.931   2.474
  507TCM    cl1 2855  -0.035   4.928   2.391
  507TCM    cl2 2856   0.231   4.811   2.399
  507TCM     h1 2857   0.167   5.032   2.465
  507TCM    cl3 2858   0.099   4.891   2.645
  508TCM     c1 2859   2.609   3.765   2.933
  508TCM    cl1 2860   2.572   3.851   2.783
  508TCM    cl2 2861   2.524   3.608   2.934
  508TCM     h1 2862   2.718   3.747   2.940
  508TCM    cl3 2863   2.555   3.862   3.072
  509TCM     c1 2864   0.052   4.927   4.969
  509TCM    cl1 2865  -0.077   4.970   5.082
  509TCM    cl2 2866   0.013   4.990   4.807
  509TCM     h1 2867   0.148   4.971   5.003
  509TCM    cl3 2868   0.068   4.750   4.961
  510TCM     c1 2869   1.528   3.947   4.893
  510TCM    cl1 2870   1.403   3.891   5.006
  510TCM    cl2 2871   1.680   3.975   4.981
  510TCM     h1 2872   1.545   3.869   4.815
  510TCM    cl3 2873   1.475   4.098   4.816
  511TCM     c1 2874   0.402   1.852   3.198
  511TCM    cl1 2875   0.296   1.731   3.122
  511TCM    cl2 2876   0.565   1.839   3.128
  511TCM     h1 2877   0.362   1.954   3.179
  511TCM    cl3 2878   0.410   1.822   3.373
  512TCM     c1 2879   4.597   0.353   4.502
  512TCM    cl1 2880   4.560   0.514   4.569
  512TCM    cl2 2881   4.449   0.281   4.436
  512TCM     h1 2882   4.672   0.363   4.421
  512TCM    cl3 2883   4.662   0.249   4.631
  513TCM     c1 2884   4.272   2.314   2.254
  513TCM    cl1 2885   4.316   2.254   2.415
  513TCM    cl2 2886   4.420   2.352   2.163
  513TCM     h1 2887   4.215   2.235   2.200
  513TCM    cl3 2888   4.173   2.460   2.270
  514TCM     c1 2889   3.522   4.571   1.372
  514TCM    cl1 2890   3.399   4.649   1.474
  514TCM    cl2 2891   3.518   4.643   1.209
  514TCM     h1 2892   3.623   4.587   1.417
  514TCM    cl3 2893   3.489   4.397   1.360
  515TCM     c1 2894   0.201   0.099   0.489
  515TCM    cl1 2895   0.213   0.100   0.311
  515TCM    cl2 2896   0.301  -0.033   0.554
  515TCM     h1 2897   0.236   0.196   0.529
  515TCM    cl3 2898   0.031   0.073   0.536
  516TCM     c1 2899   3.978   0.045   4.989
  516TCM    cl1 2900   3.841   0.061   4.876
  516TCM    cl2 2901   3.919   0.065   5.156
  516TCM     h1 2902   4.024  -0.055   4.977
  516TCM    cl3 2903   4.098   0.171   4.953
  517TCM     c1 2904   0.616   0.013   2.158
  517TCM    cl1 2905   0.681   0.050   2.319
  517TCM    cl2 2906   0.747  -0.045   2.053
  517TCM     h1 2907   0.538  -0.065   2.167
  517TCM    cl3 2908   0.544   0.160   2.088
  518TCM     c1 2909   2.845   0.051   4.107
  518TCM    cl1 2910   2.855  -0.008   4.275
  518TCM    cl2 2911   2.894  -0.079   3.996
  518TCM     h1 2912   2.741   0.082   4.085
  518TCM    cl3 2913   2.954   0.190   4.087
  519TCM     c1 2914   4.389   4.108   1.556
  519TCM    cl1 2915   4.532   4.193   1.492
  519TCM    cl2 2916   4.373   4.143   1.730
  519TCM     h1 2917   4.298   4.143   1.503
  519TCM    cl3 2918   4.409   3.933   1.533
  520TCM     c1 2919   3.310   3.578   4.579
  520TCM    cl1 2920   3.353   3.412   4.531
  520TCM    cl2 2921   3.331   3.596   4.755
  520TCM     h1 2922   3.376   3.650   4.526
  520TCM    cl3 2923   3.140   3.611   4.536
  521TCM     c1 2924   2.763   0.421   4.052
  521TCM    cl1 2925   2.869   0.463   4.188
  521TCM    cl2 2926   2.806   0.520   3.911
  521TCM     h1 2927   2.776   0.313   4.027
  521TCM    cl3 2928   2.594   0.452   4.097
  522TCM     c1 2929   3.361   3.243   1.538
  522TCM    cl1 2930   3.223   3.137   1.506
  522TCM    cl2 2931   3.404   3.235   1.711
  522TCM     h1 2932   3.448   3.211   1.477
  522TCM    cl3 2933   3.318   3.411   1.497
  523TCM     c1 2934   0.109   2.942   3.406
  523TCM    cl1 2935   0.068   2.904   3.237
  523TCM    cl2 2936   0.275   2.889   3.439
  523TCM     h1 2937   0.100   3.051   3.422
  523TCM    cl3 2938  -0.003   2.856   3.515
  524TCM     c1 2939   1.506   3.760   2.838
  524TCM    cl1 2940   1.589   3.603   2.853
  524TCM    cl2 2941   1.357   3.757   2.935
  524TCM     h1 2942   1.572   3.840   2.875
  524TCM    cl3 2943   1.466   3.790   2.668
  525TCM     c1 2944   2.811   4.147   1.473
  525TCM    cl1 2945   2.959   4.078   1.403
  525TCM    cl2 2946   2.843   4.203   1.639
  525TCM     h1 2947   2.777   4.233   1.411
  525TCM    cl3 2948   2.683   4.024   1.476
  526TCM     c1 2949   0.135   1.576   2.687
  526TCM    cl1 2950   0.003   1.478   2.619
  526TCM    cl2 2951   0.263   1.596   2.565
  526TCM     h1 2952   0.096   1.675   2.716
  526TCM    cl3 2953   0.202   1.494   2.830
  527TCM     c1 2954   4.432   3.376   2.755
  527TCM    cl1 2955   4.436   3.520   2.651
  527TCM    cl2 2956   4.432   3.426   2.926
  527TCM     h1 2957   4.340   3.318   2.734
  527TCM    cl3 2958   4.575   3.275   2.723
  528TCM     c1 2959   2.787   4.820   2.405
  528TCM    cl1 2960   2.828   4.772   2.238
  528TCM    cl2 2961   2.686   4.694   2.480
  528TCM     h1 2962   2.881   4.832   2.463
  528TCM    cl3 2963   2.698   4.973   2.402
  529TCM     c1 2964   3.037   3.108   2.194
  529TCM    cl1 2965   3.019   3.257   2.288
  529TCM    cl2 2966   3.097   3.147   2.031
  529TCM     h1 2967   3.110   3.041   2.245
  529TCM    cl3 2968   2.880   3.026   2.181
  530TCM     c1 2969   1.920   3.412   3.882
  530TCM    cl1 2970   1.961   3.572   3.815
  530TCM    cl2 2971   2.042   3.294   3.829
  530TCM     h1 2972   1.919   3.417   3.992
  530TCM    cl3 2973   1.760   3.362   3.822
  531TCM     c1 2974   4.921   1.763   0.248
  531TCM    cl1 2975   5.089   1.704   0.258
  531TCM    cl2 2976   4.910   1.888   0.123
  531TCM     h1 2977   4.854   1.678   0.223
  531TCM    cl3 2978   4.873   1.831   0.405
  532TCM     c1 2979   2.063   3.020   1.858
  532TCM    cl1 2980   1.918   3.115   1.818
  532TCM    cl2 2981   2.098   3.037   2.032
  532TCM     h1 2982   2.045   2.914   1.834
  532TCM    cl3 2983   2.201   3.081   1.764
  533TCM     c1 2984   1.983   0.862   4.686
  533TCM    cl1 2985   1.893   0.722   4.749
  533TCM    cl2 2986   1.943   0.886   4.514
  533TCM     h1 2987   1.955   0.953   4.743
  533TCM    cl3 2988   2.158   0.833   4.702
  534TCM     c1 2989   0.274   0.037   3.739
  534TCM    cl1 2990   0.402   0.094   3.629
  534TCM    cl2 2991   0.296   0.112   3.899
  534TCM     h1 2992   0.175   0.066   3.698
  534TCM    cl3 2993   0.282  -0.140   3.754
  535TCM     c1 2994   1.671   4.382   1.441
  535TCM    cl1 2995   1.736   4.532   1.370
  535TCM    cl2 2996   1.525   4.333   1.352
  535TCM     h1 2997   1.747   4.302   1.434
  535TCM    cl3 2998   1.629   4.410   1.611
  536TCM     c1 2999   4.825   0.922   4.015
  536TCM    cl1 3000   4.849   0.759   3.947
  536TCM    cl2 3001   4.855   1.044   3.889
  536TCM     h1 3002   4.720   0.931   4.052
  536TCM    cl3 3003   4.938   0.946   4.150
  537TCM     c1 3004   2.356   3.156   0.040
  537TCM    cl1 3005   2.400   3.128  -0.130
  537TCM    cl2 3006   2.180   3.142   0.059
  537TCM     h1 3007   2.406   3.080   0.104
  537TCM    cl3 3008   2.409   3.318   0.090
  538TCM     c1 3009   2.631   4.151   1.171
  538TCM    cl1 3010   2.627   4.127   0.995
  538TCM    cl2 3011   2.676   4.319   1.208
  538TCM     h1 3012   2.531   4.129   1.214
  538TCM    cl3 3013   2.751   4.040   1.243
  539TCM     c1 3014   1.608   0.801   3.719
  539TCM    cl1 3015   1.591   0.877   3.879
  539TCM    cl2 3016   1.674   0.920   3.604
  539TCM     h1 3017   1.677   0.715   3.727
  539TCM    cl3 3018   1.449   0.746   3.662
  540TCM     c1 3019   1.529   1.033   2.605
  540TCM    cl1 3020   1.618   0.880   2.593
  540TCM    cl2 3021   1.590   1.127   2.743
  540TCM     h1 3022   1.542   1.092   2.512
  540TCM    cl3 3023   1.356   0.999   2.629
  541TCM     c1 3024   1.984   3.102   3.199
  541TCM    cl1 3025   2.106   3.231   3.191
  541TCM    cl2 3026   2.031   2.983   3.323
  541TCM     h1 3027   1.885   3.146   3.226
  541TCM    cl3 3028   1.972   3.021   3.041
  542TCM     c1 3029   3.814   4.172   2.744
  542TCM    cl1 3030   3.929   4.248   2.857
  542TCM    cl2 3031   3.773   4.287   2.615
  542TCM     h1 3032   3.861   4.082   2.700
  542TCM    cl3 3033   3.667   4.125   2.832
  543TCM     c1 3034   2.706   0.005   0.209
  543TCM    cl1 3035   2.726   0.071   0.373
  543TCM    cl2 3036   2.673   0.137   0.095
  543TCM     h1 3037   2.799  -0.048   0.179
  543TCM    cl3 3038   2.570  -0.110   0.208
  544TCM     c1 3039   1.632   3.697   3.829
  544TCM    cl1 3040   1.733   3.810   3.736
  544TCM    cl2 3041   1.512   3.788   3.923
  544TCM     h1 3042   1.580   3.628   3.759
  544TCM    cl3 3043   1.735   3.603   3.940
  545TCM     c1 3044   2.381   2.166   1.046
  545TCM    cl1 3045   2.347   2.331   1.102
  545TCM    cl2 3046   2.261   2.119   0.923
  545TCM     h1 3047   2.483   2.162   1.001
  545TCM    cl3 3048   2.372   2.053   1.183
  546TCM     c1 3049   2.058   1.178   1.822
  546TCM    cl1 3050   2.192   1.281   1.877
  546TCM    cl2 3051   2.114   1.009   1.809
  546TCM     h1 3052   1.975   1.184   1.895
  546TCM    cl3 3053   2.002   1.233   1.663
  547TCM     c1 3054   2.372   2.752   0.120
  547TCM    cl1 3055   2.252   2.819   0.007
  547TCM    cl2 3056   2.313   2.770   0.287
  547TCM     h1 3057   2.388   2.645   0.098
  547TCM    cl3 3058   2.526   2.840   0.102
  548TCM     c1 3059   3.540   2.444   4.096
  548TCM    cl1 3060   3.657   2.557   4.167
  548TCM    cl2 3061   3.433   2.381   4.224
  548TCM     h1 3062   3.479   2.497   4.020
  548TCM    cl3 3063   3.626   2.309   4.019
  549TCM     c1 3064   0.730   0.312   1.686
  549TCM    cl1 3065   0.752   0.301   1.862
  549TCM    cl2 3066   0.741   0.482   1.636
  549TCM     h1 3067   0.809   0.253   1.635
  549TCM    cl3 3068   0.570   0.248   1.643
  550TCM     c1 3069   4.290   4.773   0.536
  550TCM    cl1 3070   4.141   4.718   0.614
  550TCM    cl2 3071   4.252   4.903   0.421
  550TCM     h1 3072   4.360   4.812   0.613
  550TCM    cl3 3073   4.366   4.638   0.449
  551TCM     c1 3074   0.289   4.277   0.827
  551TCM    cl1 3075   0.416   4.314   0.707
  551TCM    cl2 3076   0.345   4.324   0.989
  551TCM     h1 3077   0.197   4.333   0.802
  551TCM    cl3 3078   0.255   4.102   0.825
  552TCM     c1 3079   2.228   2.264   3.522
  552TCM    cl1 3080   2.183   2.116   3.435
  552TCM    cl2 3081   2.190   2.245   3.695
  552TCM     h1 3082   2.337   2.282   3.510
  552TCM    cl3 3083   2.137   2.402   3.456
  553TCM     c1 3084   0.548   3.999   0.960
  553TCM    cl1 3085   0.568   3.828   0.919
  553TCM    cl2 3086   0.703   4.065   1.018
  553TCM     h1 3087   0.514   4.055   0.870
  553TCM    cl3 3088   0.425   4.016   1.089
  554TCM     c1 3089   1.329   3.850   0.163
  554TCM    cl1 3090   1.252   3.692   0.190
  554TCM    cl2 3091   1.312   3.895  -0.008
  554TCM     h1 3092   1.279   3.926   0.227
  554TCM    cl3 3093   1.501   3.839   0.206
  555TCM     c1 3094   3.199   2.020   2.292
  555TCM    cl1 3095   3.336   2.089   2.382
  555TCM    cl2 3096   3.071   1.972   2.407
  555TCM     h1 3097   3.158   2.096   2.222
  555TCM    cl3 3098   3.253   1.878   2.200
  556TCM     c1 3099   1.917   2.668   2.242
  556TCM    cl1 3100   1.782   2.594   2.153
  556TCM    cl2 3101   1.902   2.630   2.415
  556TCM     h1 3102   2.013   2.628   2.204
  556TCM    cl3 3103   1.913   2.844   2.219
  557TCM     c1 3104   3.392   0.026   1.832
  557TCM    cl1 3105   3.539   0.019   1.932
  557TCM    cl2 3106   3.436   0.001   1.661
  557TCM     h1 3107   3.322  -0.053   1.864
  557TCM    cl3 3108   3.315   0.185   1.851
  558TCM     c1 3109   0.958   2.496   4.107
  558TCM    cl1 3110   0.908   2.333   4.157
  558TCM    cl2 3111   1.022   2.491   3.941
  558TCM     h1 3112   0.870   2.564   4.111
  558TCM    cl3 3113   1.084   2.556   4.217
  559TCM     c1 3114   4.626   3.795   4.666
  559TCM    cl1 3115   4.793   3.737   4.687
  559TCM    cl2 3116   4.576   3.770   4.497
  559TCM     h1 3117   4.558   3.740   4.733
  559TCM    cl3 3118   4.619   3.969   4.705
  560TCM     c1 3119   4.932   1.797   3.879
  560TCM    cl1 3120   4.771   1.851   3.931
  560TCM    cl2 3121   4.923   1.734   3.713
  560TCM     h1 3122   5.003   1.883   3.882
  560TCM    cl3 3123   4.990   1.670   3.988
  561TCM     c1 3124   4.071   2.196   2.555
  561TCM    cl1 3125   4.050   2.371   2.528
  561TCM    cl2 3126   3.963   2.144   2.686
  561TCM     h1 3127   4.046   2.141   2.462
  561TCM    cl3 3128   4.240   2.163   2.601
  562TCM     c1 3129   1.455   2.716   4.899
  562TCM    cl1 3130   1.300   2.801   4.876
  562TCM    cl2 3131   1.518   2.750   5.062
  562TCM     h1 3132   1.440   2.607   4.887
  562TCM    cl3 3133   1.572   2.773   4.778
  563TCM     c1 3134   3.665   2.041   2.877
  563TCM    cl1 3135   3.609   2.210   2.873
  563TCM    cl2 3136   3.532   1.934   2.827
  563TCM     h1 3137   3.750   2.028   2.808
  563TCM    cl3 3138   3.715   1.999   3.042
  564TCM     c1 3139   2.757   4.784   0.787
  564TCM    cl1 3140   2.789   4.617   0.840
  564TCM    cl2 3141   2.644   4.781   0.650
  564TCM     h1 3142   2.712   4.841   0.871
  564TCM    cl3 3143   2.910   4.860   0.738
  565TCM     c1 3144   1.693   3.835   0.549
  565TCM    cl1 3145   1.599   3.928   0.667
  565TCM    cl2 3146   1.594   3.702   0.485
  565TCM     h1 3147   1.724   3.901   0.465
  565TCM    cl3 3148   1.838   3.768   0.628
  566TCM     c1 3149   0.069   3.103   4.865
  566TCM    cl1 3150   0.212   3.208   4.851
  566TCM    cl2 3151   0.002   3.072   4.703
  566TCM     h1 3152   0.097   3.007   4.912
  566TCM    cl3 3153  -0.055   3.184   4.965
  567TCM     c1 3154   2.932   4.938   2.806
  567TCM    cl1 3155   2.861   4.927   2.969
  567TCM    cl2 3156   2.803   4.957   2.686
  567TCM     h1 3157   3.000   5.026   2.802
  567TCM    cl3 3158   3.025   4.790   2.772
  568TCM     c1 3159   4.789   3.756   3.356
  568TCM    cl1 3160   4.862   3.914   3.320
  568TCM    cl2 3161   4.627   3.780   3.425
  568TCM     h1 3162   4.781   3.697   3.262
  568TCM    cl3 3163   4.891   3.668   3.472
  569TCM     c1 3164   1.638   0.794   2.900
  569TCM    cl1 3165   1.495   0.833   2.802
  569TCM    cl2 3166   1.735   0.670   2.818
  569TCM     h1 3167   1.700   0.886   2.914
  569TCM    cl3 3168   1.587   0.733   3.059
  570TCM     c1 3169   3.315   2.640   4.309
  570TCM    cl1 3170   3.223   2.516   4.221
  570TCM    cl2 3171   3.217   2.704   4.443
  570TCM     h1 3172   3.408   2.596   4.349
  570TCM    cl3 3173   3.357   2.773   4.198
  571TCM     c1 3174   2.410   4.166   0.319
  571TCM    cl1 3175   2.506   4.054   0.220
  571TCM    cl2 3176   2.253   4.093   0.356
  571TCM     h1 3177   2.464   4.188   0.413
  571TCM    cl3 3178   2.385   4.318   0.229
  572TCM     c1 3179   3.223   1.504   0.003
  572TCM    cl1 3180   3.342   1.620   0.068
  572TCM    cl2 3181   3.090   1.485   0.119
  572TCM     h1 3182   3.184   1.541  -0.093
  572TCM    cl3 3183   3.302   1.346  -0.022
  573TCM     c1 3184   2.326   1.636   3.769
  573TCM    cl1 3185   2.422   1.685   3.911
  573TCM    cl2 3186   2.431   1.556   3.651
  573TCM     h1 3187   2.246   1.566   3.801
  573TCM    cl3 3188   2.252   1.780   3.695
  574TCM     c1 3189   1.327   0.931   2.413
  574TCM    cl1 3190   1.452   0.818   2.472
  574TCM    cl2 3191   1.176   0.903   2.503
  574TCM     h1 3192   1.361   1.035   2.430
  574TCM    cl3 3193   1.299   0.904   2.240
  575TCM     c1 3194   2.843   4.226   4.862
  575TCM    cl1 3195   2.680   4.295   4.873
  575TCM    cl2 3196   2.938   4.316   4.743
  575TCM     h1 3197   2.892   4.232   4.962
  575TCM    cl3 3198   2.832   4.055   4.812
  576TCM     c1 3199   2.265   4.439   1.283
  576TCM    cl1 3200   2.138   4.355   1.375
  576TCM    cl2 3201   2.278   4.366   1.121
  576TCM     h1 3202   2.238   4.546   1.273
  576TCM    cl3 3203   2.420   4.424   1.367
  577TCM     c1 3204   0.985   2.412   4.846
  577TCM    cl1 3205   0.955   2.560   4.753
  577TCM    cl2 3206   0.847   2.301   4.828
  577TCM     h1 3207   1.077   2.362   4.808
  577TCM    cl3 3208   1.007   2.452   5.018
  578TCM     c1 3209   1.709   1.105   1.580
  578TCM    cl1 3210   1.570   1.211   1.547
  578TCM    cl2 3211   1.781   1.050   1.426
  578TCM     h1 3212   1.785   1.160   1.638
  578TCM    cl3 3213   1.654   0.963   1.673
  579TCM     c1 3214   0.517   3.511   3.384
  579TCM    cl1 3215   0.537   3.684   3.418
  579TCM    cl2 3216   0.672   3.443   3.327
  579TCM     h1 3217   0.486   3.458   3.477
  579TCM    cl3 3218   0.393   3.489   3.259
  580TCM     c1 3219   0.257   0.073   3.525
  580TCM    cl1 3220   0.319  -0.043   3.646
  580TCM    cl2 3221   0.213  -0.014   3.377
  580TCM     h1 3222   0.168   0.124   3.566
  580TCM    cl3 3223   0.383   0.193   3.489
  581TCM     c1 3224   4.256   0.106   3.031
  581TCM    cl1 3225   4.377   0.234   3.049
  581TCM    cl2 3226   4.300  -0.032   3.134
  581TCM     h1 3227   4.156   0.144   3.061
  581TCM    cl3 3228   4.250   0.053   2.861
  582TCM     c1 3229   3.268   3.907   1.272
  582TCM    cl1 3230   3.203   4.069   1.239
  582TCM    cl2 3231   3.325   3.899   1.440
  582TCM     h1 3232   3.188   3.832   1.256
  582TCM    cl3 3233   3.404   3.874   1.162
  583TCM     c1 3234   4.615   4.183   3.627
  583TCM    cl1 3235   4.539   4.256   3.485
  583TCM    cl2 3236   4.579   4.280   3.771
  583TCM     h1 3237   4.576   4.080   3.641
  583TCM    cl3 3238   4.792   4.176   3.603
  584TCM     c1 3239   0.981   3.753   0.067
  584TCM    cl1 3240   0.994   3.778   0.242
  584TCM    cl2 3241   1.002   3.909  -0.017
  584TCM     h1 3242   1.059   3.682   0.033
  584TCM    cl3 3243   0.821   3.686   0.028
  585TCM     c1 3244   0.092   2.245   4.823
  585TCM    cl1 3245   0.177   2.130   4.928
  585TCM    cl2 3246   0.104   2.191   4.654
  585TCM     h1 3247  -0.015   2.250   4.853
  585TCM    cl3 3248   0.166   2.406   4.839
  586TCM     c1 3249   1.049   0.054   2.202
  586TCM    cl1 3250   1.004   0.160   2.337
  586TCM    cl2 3251   0.969   0.111   2.053
  586TCM     h1 3252   1.159   0.057   2.188
  586TCM    cl3 3253   0.998  -0.112   2.237
  587TCM     c1 3254   0.998   1.143   3.949
  587TCM    cl1 3255   0.888   1.063   3.835
  587TCM    cl2 3256   1.015   1.043   4.095
  587TCM     h1 3257   1.098   1.155   3.901
  587TCM    cl3 3258   0.933   1.302   3.993
  588TCM     c1 3259   3.894   2.613   3.948
  588TCM    cl1 3260   4.057   2.560   3.899
  588TCM    cl2 3261   3.772   2.514   3.864
  588TCM     h1 3262   3.883   2.600   4.058
  588TCM    cl3 3263   3.872   2.784   3.905
  589TCM     c1 3264   2.291   3.398   4.926
  589TCM    cl1 3265   2.308   3.382   4.749
  589TCM    cl2 3266   2.273   3.570   4.968
  589TCM     h1 3267   2.201   3.342   4.959
  589TCM    cl3 3268   2.435   3.332   5.005
  590TCM     c1 3269   1.371   0.480   0.657
  590TCM    cl1 3270   1.424   0.397   0.509
  590TCM    cl2 3271   1.373   0.365   0.793
  590TCM     h1 3272   1.439   0.564   0.679
  590TCM    cl3 3273   1.206   0.542   0.634
  591TCM     c1 3274   2.096   1.933   2.298
  591TCM    cl1 3275   2.188   2.057   2.387
  591TCM    cl2 3276   2.174   1.902   2.141
  591TCM     h1 3277   2.094   1.839   2.357
  591TCM    cl3 3278   1.930   1.990   2.271
  592TCM     c1 3279   3.183   1.611   3.139
  592TCM    cl1 3280   3.042   1.695   3.207
  592TCM    cl2 3281   3.180   1.624   2.962
  592TCM     h1 3282   3.276   1.657   3.178
  592TCM    cl3 3283   3.178   1.439   3.185
  593TCM     c1 3284   2.823   4.673   0.086
  593TCM    cl1 3285   2.986   4.620   0.041
  593TCM    cl2 3286   2.774   4.810  -0.017
  593TCM     h1 3287   2.751   4.589   0.073
  593TCM    cl3 3288   2.822   4.725   0.257
  594TCM     c1 3289   3.715   3.407   3.158
  594TCM    cl1 3290   3.631   3.523   3.053
  594TCM    cl2 3291   3.605   3.353   3.287
  594TCM     h1 3292   3.748   3.320   3.098
  594TCM    cl3 3293   3.857   3.485   3.231
  595TCM     c1 3294   2.951   3.901   0.735
  595TCM    cl1 3295   2.813   3.940   0.629
  595TCM    cl2 3296   2.988   3.728   0.722
  595TCM     h1 3297   3.039   3.961   0.705
  595TCM    cl3 3298   2.909   3.940   0.904
  596TCM     c1 3299   4.469   4.237   0.899
  596TCM    cl1 3300   4.439   4.284   1.069
  596TCM    cl2 3301   4.597   4.114   0.894
  596TCM     h1 3302   4.376   4.196   0.855
  596TCM    cl3 3303   4.520   4.380   0.807
  597TCM     c1 3304   4.601   2.956   0.027
  597TCM    cl1 3305   4.486   2.865   0.128
  597TCM    cl2 3306   4.537   2.969  -0.139
  597TCM     h1 3307   4.615   3.058   0.069
  597TCM    cl3 3308   4.757   2.871   0.023
  598TCM     c1 3309   2.845   0.963   1.957
  598TCM    cl1 3310   2.860   1.090   1.833
  598TCM    cl2 3311   2.698   0.992   2.053
  598TCM     h1 3312   2.839   0.864   1.909
  598TCM    cl3 3313   2.987   0.968   2.065
  599TCM     c1 3314   3.430   4.512   2.719
  599TCM    cl1 3315   3.530   4.520   2.866
  599TCM    cl2 3316   3.435   4.348   2.653
  599TCM     h1 3317   3.325   4.539   2.744
  599TCM    cl3 3318   3.493   4.627   2.598
  600TCM     c1 3319   3.723   3.412   3.678
  600TCM    cl1 3320   3.864   3.399   3.785
  600TCM    cl2 3321   3.773   3.384   3.510
  600TCM     h1 3322   3.647   3.335   3.707
  600TCM    cl3 3323   3.652   3.574   3.693
  601TCM     c1 3324   4.176   0.208   4.936
  601TCM    cl1 3325   4.260   0.283   5.074
  601TCM    cl2 3326   4.251   0.261   4.784
  601TCM     h1 3327   4.182   0.098   4.944
  601TCM    cl3 3328   4.005   0.258   4.938
  602TCM     c1 3329   3.248   3.067   3.192
  602TCM    cl1 3330   3.172   3.203   3.277
  602TCM    cl2 3331   3.266   3.109   3.020
  602TCM     h1 3332   3.347   3.046   3.235
  602TCM    cl3 3333   3.144   2.923   3.207
  603TCM     c1 3334   2.507   0.466   3.649
  603TCM    cl1 3335   2.499   0.302   3.717
  603TCM    cl2 3336   2.343   0.524   3.614
  603TCM     h1 3337   2.556   0.534   3.722
  603TCM    cl3 3338   2.602   0.463   3.499
  604TCM     c1 3339   2.401   3.399   1.239
  604TCM    cl1 3340   2.556   3.354   1.163
  604TCM    cl2 3341   2.431   3.458   1.404
  604TCM     h1 3342   2.353   3.479   1.180
  604TCM    cl3 3343   2.294   3.257   1.245
  605TCM     c1 3344   0.076   1.282   2.168
  605TCM    cl1 3345   0.153   1.405   2.065
  605TCM    cl2 3346   0.194   1.157   2.210
  605TCM     h1 3347   0.039   1.331   2.261
  605TCM    cl3 3348  -0.060   1.209   2.081
  606TCM     c1 3349   4.187   3.020   3.723
  606TCM    cl1 3350   4.030   2.962   3.783
  606TCM    cl2 3351   4.310   2.893   3.743
  606TCM     h1 3352   4.178   3.046   3.615
  606TCM    cl3 3353   4.236   3.165   3.815
  607TCM     c1 3354   1.608   3.456   3.185
  607TCM    cl1 3355   1.707   3.544   3.067
  607TCM    cl2 3356   1.620   3.281   3.154
  607TCM     h1 3357   1.643   3.478   3.287
  607TCM    cl3 3358   1.438   3.506   3.168
  608TCM     c1 3359   2.552   3.148   2.348
  608TCM    cl1 3360   2.446   3.098   2.482
  608TCM    cl2 3361   2.719   3.165   2.407
  608TCM     h1 3362   2.549   3.071   2.268
  608TCM    cl3 3363   2.497   3.304   2.283
  609TCM     c1 3364   1.965   2.752   4.848
  609TCM    cl1 3365   1.870   2.654   4.963
  609TCM    cl2 3366   1.856   2.821   4.725
  609TCM     h1 3367   2.016   2.834   4.903
  609TCM    cl3 3368   2.086   2.649   4.769
  610TCM     c1 3369   4.824   0.736   2.598
  610TCM    cl1 3370   4.825   0.558   2.604
  610TCM    cl2 3371   4.707   0.790   2.476
  610TCM     h1 3372   4.795   0.776   2.698
  610TCM    cl3 3373   4.986   0.795   2.556
  611TCM     c1 3374   4.883   1.948   1.002
  611TCM    cl1 3375   4.756   1.918   0.881
  611TCM    cl2 3376   4.839   2.090   1.100
  611TCM     h1 3377   4.893   1.860   1.068
  611TCM    cl3 3378   5.037   1.979   0.920
  612TCM     c1 3379   3.187   3.953   0.141
  612TCM    cl1 3380   3.252   3.797   0.086
  612TCM    cl2 3381   3.253   4.084   0.041
  612TCM     h1 3382   3.076   3.952   0.133
  612TCM    cl3 3383   3.233   3.980   0.311
  613TCM     c1 3384   2.746   3.938   3.328
  613TCM    cl1 3385   2.837   3.970   3.478
  613TCM    cl2 3386   2.860   3.899   3.197
  613TCM     h1 3387   2.677   3.853   3.344
  613TCM    cl3 3388   2.652   4.083   3.284
  614TCM     c1 3389   2.083   4.419   1.941
  614TCM    cl1 3390   2.187   4.281   1.984
  614TCM    cl2 3391   1.984   4.466   2.081
  614TCM     h1 3392   2.146   4.504   1.909
  614TCM    cl3 3393   1.976   4.372   1.807
  615TCM     c1 3394   1.621   1.677   0.406
  615TCM    cl1 3395   1.477   1.659   0.507
  615TCM    cl2 3396   1.745   1.768   0.495
  615TCM     h1 3397   1.661   1.576   0.380
  615TCM    cl3 3398   1.579   1.764   0.257
  616TCM     c1 3399   0.257   2.734   4.112
  616TCM    cl1 3400   0.355   2.846   4.014
  616TCM    cl2 3401   0.289   2.567   4.059
  616TCM     h1 3402   0.284   2.745   4.219
  616TCM    cl3 3403   0.085   2.771   4.090
  617TCM     c1 3404   0.510   1.483   4.429
  617TCM    cl1 3405   0.570   1.642   4.482
  617TCM    cl2 3406   0.583   1.356   4.529
  617TCM     h1 3407   0.400   1.480   4.439
  617TCM    cl3 3408   0.555   1.458   4.259
  618TCM     c1 3409   4.945   2.827   0.389
  618TCM    cl1 3410   4.902   2.966   0.492
  618TCM    cl2 3411   4.861   2.682   0.447
  618TCM     h1 3412   4.914   2.848   0.284
  618TCM    cl3 3413   5.120   2.801   0.395
  619TCM     c1 3414   2.180   4.180   4.545
  619TCM    cl1 3415   2.345   4.149   4.488
  619TCM    cl2 3416   2.185   4.251   4.708
  619TCM     h1 3417   2.130   4.251   4.475
  619TCM    cl3 3418   2.088   4.028   4.549
  620TCM     c1 3419   3.063   3.376   2.998
  620TCM    cl1 3420   2.895   3.419   2.955
  620TCM    cl2 3421   3.170   3.512   2.957
  620TCM     h1 3422   3.069   3.356   3.107
  620TCM    cl3 3423   3.112   3.232   2.907
  621TCM     c1 3424   2.965   4.266   0.107
  621TCM    cl1 3425   2.936   4.112   0.191
  621TCM    cl2 3426   3.089   4.242  -0.019
  621TCM     h1 3427   2.870   4.300   0.059
  621TCM    cl3 3428   3.021   4.387   0.223
  622TCM     c1 3429   3.423   4.380   0.201
  622TCM    cl1 3430   3.496   4.290   0.067
  622TCM    cl2 3431   3.503   4.336   0.353
  622TCM     h1 3432   3.435   4.489   0.183
  622TCM    cl3 3433   3.250   4.341   0.211
  623TCM     c1 3434   2.407   3.671   0.805
  623TCM    cl1 3435   2.573   3.729   0.780
  623TCM    cl2 3436   2.393   3.594   0.964
  623TCM     h1 3437   2.336   3.757   0.799
  623TCM    cl3 3438   2.366   3.553   0.678
  624TCM     c1 3439   4.083   3.840   3.492
  624TCM    cl1 3440   4.182   3.804   3.349
  624TCM    cl2 3441   4.190   3.882   3.628
  624TCM     h1 3442   4.015   3.924   3.470
  624TCM    cl3 3443   3.987   3.696   3.535
  625TCM     c1 3444   0.213   4.682   3.925
  625TCM    cl1 3445   0.059   4.644   3.845
  625TCM    cl2 3446   0.181   4.741   4.090
  625TCM     h1 3447   0.276   4.591   3.930
  625TCM    cl3 3448   0.298   4.808   3.833
  626TCM     c1 3449   4.208   0.253   3.289
  626TCM    cl1 3450   4.234   0.128   3.413
  626TCM    cl2 3451   4.056   0.339   3.323
  626TCM     h1 3452   4.293   0.325   3.292
  626TCM    cl3 3453   4.199   0.178   3.129
  627TCM     c1 3454   2.433   2.570   3.165
  627TCM    cl1 3455   2.386   2.699   3.051
  627TCM    cl2 3456   2.383   2.615   3.329
  627TCM     h1 3457   2.384   2.475   3.136
  627TCM    cl3 3458   2.610   2.549   3.161
  628TCM     c1 3459   4.986   4.571   2.471
  628TCM    cl1 3460   5.010   4.744   2.504
  628TCM    cl2 3461   4.955   4.485   2.624
  628TCM     h1 3462   4.899   4.558   2.403
  628TCM    cl3 3463   5.132   4.505   2.395
  629TCM     c1 3464   2.387   0.731   1.785
  629TCM    cl1 3465   2.269   0.633   1.696
  629TCM    cl2 3466   2.385   0.684   1.957
  629TCM     h1 3467   2.489   0.714   1.743
  629TCM    cl3 3468   2.345   0.904   1.770
  630TCM     c1 3469   0.147   2.268   2.833
  630TCM    cl1 3470   0.060   2.251   2.679
  630TCM    cl2 3471   0.202   2.108   2.888
  630TCM     h1 3472   0.235   2.335   2.819
  630TCM    cl3 3473   0.038   2.339   2.955
  631TCM     c1 3474   1.092   3.964   0.842
  631TCM    cl1 3475   1.083   3.952   0.664
  631TCM    cl2 3476   1.207   3.844   0.904
  631TCM     h1 3477   1.125   4.066   0.870
  631TCM    cl3 3478   0.931   3.933   0.911
  632TCM     c1 3479   2.604   2.969   0.447
  632TCM    cl1 3480   2.734   2.926   0.334
  632TCM    cl2 3481   2.544   3.132   0.410
  632TCM     h1 3482   2.521   2.896   0.438
  632TCM    cl3 3483   2.667   2.966   0.614
  633TCM     c1 3484   0.686   0.559   0.590
  633TCM    cl1 3485   0.772   0.466   0.465
  633TCM    cl2 3486   0.643   0.451   0.725
  633TCM     h1 3487   0.752   0.640   0.628
  633TCM    cl3 3488   0.538   0.630   0.521
  634TCM     c1 3489   0.046   2.033   2.981
  634TCM    cl1 3490   0.010   2.155   3.104
  634TCM    cl2 3491   0.045   2.109   2.820
  634TCM     h1 3492   0.146   1.989   3.000
  634TCM    cl3 3493  -0.077   1.905   2.986
  635TCM     c1 3494   2.486   0.929   3.216
  635TCM    cl1 3495   2.616   0.964   3.100
  635TCM    cl2 3496   2.530   0.994   3.375
  635TCM     h1 3497   2.392   0.976   3.181
  635TCM    cl3 3498   2.463   0.753   3.229
  636TCM     c1 3499   0.080   0.933   1.975
  636TCM    cl1 3500   0.178   1.073   1.927
  636TCM    cl2 3501   0.159   0.784   1.920
  636TCM     h1 3502   0.070   0.930   2.086
  636TCM    cl3 3503  -0.081   0.945   1.901
  637TCM     c1 3504   3.968   0.404   4.238
  637TCM    cl1 3505   3.824   0.337   4.317
  637TCM    cl2 3506   3.995   0.571   4.295
  637TCM     h1 3507   4.057   0.342   4.263
  637TCM    cl3 3508   3.944   0.405   4.062
  638TCM     c1 3509   0.104   0.785   4.789
  638TCM    cl1 3510   0.199   0.703   4.663
  638TCM    cl2 3511   0.182   0.761   4.947
  638TCM     h1 3512   0.099   0.893   4.766
  638TCM    cl3 3513  -0.060   0.717   4.793
  639TCM     c1 3514   2.874   0.453   1.234
  639TCM    cl1 3515   3.009   0.544   1.161
  639TCM    cl2 3516   2.850   0.508   1.402
  639TCM     h1 3517   2.782   0.471   1.176
  639TCM    cl3 3518   2.913   0.280   1.234
  640TCM     c1 3519   2.103   1.261   3.525
  640TCM    cl1 3520   2.179   1.322   3.673
  640TCM    cl2 3521   1.957   1.168   3.567
  640TCM     h1 3522   2.074   1.347   3.460
  640TCM    cl3 3523   2.217   1.156   3.438
  641TCM     c1 3524   3.415   1.315   1.880
  641TCM    cl1 3525   3.383   1.400   1.727
  641TCM    cl2 3526   3.575   1.362   1.942
  641TCM     h1 3527   3.337   1.343   1.955
  641TCM    cl3 3528   3.411   1.140   1.852
  642TCM     c1 3529   3.870   2.050   4.051
  642TCM    cl1 3530   3.998   1.984   3.946
  642TCM    cl2 3531   3.932   2.065   4.217
  642TCM     h1 3532   3.839   2.149   4.013
  642TCM    cl3 3533   3.730   1.940   4.050
  643TCM     c1 3534   1.566   2.126   4.143
  643TCM    cl1 3535   1.389   2.111   4.147
  643TCM    cl2 3536   1.610   2.295   4.112
  643TCM     h1 3537   1.608   2.094   4.241
  643TCM    cl3 3538   1.631   2.023   4.014
  644TCM     c1 3539   1.064   0.353   1.769
  644TCM    cl1 3540   0.995   0.357   1.934
  644TCM    cl2 3541   1.054   0.187   1.706
  644TCM     h1 3542   1.006   0.421   1.704
  644TCM    cl3 3543   1.234   0.404   1.775
   5.00000   5.00000   5.00000
