GROningen MAchine for Chemical Simulation
 3543
    1MOP     C1    1   0.513   2.438   1.937
    1MOP     O1    2   0.478   2.356   2.021
    1MOP     C2    3   0.472   2.416   1.796
    1MOP     C3    4   0.512   2.504   1.694
    1MOP     C4    5   0.467   2.487   1.564
    1MOP     C5    6   0.382   2.381   1.529
    1MOP     C6    7   0.336   2.363   1.390
    1MOP     C7    8   0.343   2.240   1.320
    1MOP     C8    9   0.288   2.232   1.191
    1MOP     C9   10   0.229   2.341   1.128
    1MOP     O2   11   0.179   2.319   1.001
    1MOP    C10   12   0.118   2.429   0.932
    1MOP    C11   13   0.224   2.464   1.197
    1MOP    C12   14   0.277   2.474   1.326
    1MOP    C13   15   0.407   2.120   1.376
    1MOP    C14   16   0.344   1.994   1.370
    1MOP    C15   17   0.405   1.881   1.426
    1MOP    C16   18   0.529   1.893   1.489
    1MOP    C17   19   0.596   2.016   1.495
    1MOP    C18   20   0.534   2.128   1.437
    1MOP    C19   21   0.729   2.025   1.569
    1MOP     N1   22   0.705   2.003   1.711
    1MOP    C20   23   0.799   2.162   1.559
    1MOP    C21   24   0.342   2.292   1.630
    1MOP    C22   25   0.386   2.309   1.762
    1MOP     H1   26   0.577   2.589   1.718
    1MOP     H2   27   0.500   2.557   1.486
    1MOP     H3   28   0.294   2.138   1.136
    1MOP     H4   29   0.083   2.397   0.834
    1MOP     H5   30   0.189   2.512   0.918
    1MOP     H6   31   0.031   2.466   0.988
    1MOP     H7   32   0.179   2.551   1.153
    1MOP     H8   33   0.269   2.569   1.378
    1MOP     H9   34   0.247   1.985   1.325
    1MOP    H10   35   0.354   1.785   1.422
    1MOP    H11   36   0.572   1.805   1.534
    1MOP    H12   37   0.582   2.225   1.438
    1MOP    H13   38   0.799   1.954   1.525
    1MOP    H14   39   0.660   2.080   1.760
    1MOP    H15   40   0.739   2.240   1.605
    1MOP    H16   41   0.817   2.188   1.454
    1MOP    H17   42   0.895   2.158   1.610
    1MOP    H18   43   0.277   2.210   1.607
    1MOP    H19   44   0.353   2.240   1.839
    2MOP    C23   45   0.713   1.891   1.790
    2MOP     O3   46   0.678   1.921   1.902
    2MOP    C24   47   0.760   1.750   1.764
    2MOP    C25   48   0.813   1.702   1.643
    2MOP    C26   49   0.854   1.570   1.628
    2MOP    C27   50   0.844   1.478   1.734
    2MOP    C28   51   0.883   1.337   1.714
    2MOP    C29   52   0.959   1.260   1.807
    2MOP    C30   53   0.985   1.125   1.778
    2MOP    C31   54   0.941   1.063   1.662
    2MOP     O4   55   0.974   0.930   1.645
    2MOP    C32   56   0.942   0.867   1.521
    2MOP    C33   57   0.867   1.140   1.570
    2MOP    C34   58   0.839   1.273   1.597
    2MOP    C35   59   1.015   1.314   1.933
    2MOP    C36   60   1.001   1.241   2.053
    2MOP    C37   61   1.056   1.288   2.172
    2MOP    C38   62   1.127   1.408   2.174
    2MOP    C39   63   1.145   1.482   2.057
    2MOP    C40   64   1.088   1.434   1.937
    2MOP    C41   65   1.229   1.607   2.062
    2MOP     N2   66   1.143   1.725   2.054
    2MOP    C42   67   1.332   1.614   1.949
    2MOP    C43   68   0.791   1.524   1.855
    2MOP    C44   69   0.751   1.657   1.870
    2MOP    H20   70   0.825   1.764   1.555
    2MOP    H21   71   0.895   1.537   1.533
    2MOP    H22   72   1.044   1.066   1.847
    2MOP    H23   73   0.980   0.764   1.521
    2MOP    H24   74   0.986   0.920   1.436
    2MOP    H25   75   0.833   0.862   1.507
    2MOP    H26   76   0.829   1.097   1.478
    2MOP    H27   77   0.778   1.328   1.525
    2MOP    H28   78   0.946   1.148   2.053
    2MOP    H29   79   1.043   1.231   2.264
    2MOP    H30   80   1.168   1.443   2.269
    2MOP    H31   81   1.101   1.489   1.845
    2MOP    H32   82   1.286   1.607   2.156
    2MOP    H33   83   1.111   1.752   1.961
    2MOP    H34   84   1.283   1.625   1.852
    2MOP    H35   85   1.393   1.523   1.948
    2MOP    H36   86   1.398   1.700   1.963
    2MOP    H37   87   0.780   1.455   1.939
    2MOP    H38   88   0.710   1.686   1.965
    3MOP    C45   89   1.137   1.823   2.151
    3MOP     O5   90   1.182   1.803   2.263
    3MOP    C46   91   1.091   1.957   2.113
    3MOP    C47   92   1.002   1.976   2.005
    3MOP    C48   93   0.967   2.105   1.964
    3MOP    C49   94   1.021   2.218   2.026
    3MOP    C50   95   0.993   2.353   1.975
    3MOP    C51   96   0.954   2.462   2.057
    3MOP    C52   97   0.941   2.589   1.998
    3MOP    C53   98   0.961   2.611   1.862
    3MOP     O6   99   0.945   2.740   1.817
    3MOP    C54  100   0.970   2.768   1.679
    3MOP    C55  101   0.996   2.502   1.782
    3MOP    C56  102   1.012   2.375   1.837
    3MOP    C57  103   0.925   2.449   2.201
    3MOP    C58  104   0.973   2.545   2.293
    3MOP    C59  105   0.941   2.536   2.428
    3MOP    C60  106   0.860   2.431   2.475
    3MOP    C61  107   0.809   2.336   2.385
    3MOP    C62  108   0.844   2.346   2.250
    3MOP    C63  109   0.714   2.230   2.436
    3MOP     N3  110   0.774   2.098   2.423
    3MOP    C64  111   0.582   2.230   2.359
    3MOP    C65  112   1.107   2.200   2.136
    3MOP    C66  113   1.142   2.071   2.178
    3MOP    H39  114   0.958   1.891   1.954
    3MOP    H40  115   0.898   2.118   1.881
    3MOP    H41  116   0.911   2.674   2.058
    3MOP    H42  117   0.955   2.875   1.659
    3MOP    H43  118   0.901   2.712   1.615
    3MOP    H44  119   1.072   2.743   1.652
    3MOP    H45  120   1.013   2.513   1.675
    3MOP    H46  121   1.042   2.293   1.774
    3MOP    H47  122   1.036   2.627   2.259
    3MOP    H48  123   0.979   2.609   2.499
    3MOP    H49  124   0.836   2.426   2.580
    3MOP    H50  125   0.803   2.273   2.180
    3MOP    H51  126   0.691   2.251   2.541
    3MOP    H52  127   0.766   2.053   2.333
    3MOP    H53  128   0.597   2.203   2.254
    3MOP    H54  129   0.538   2.330   2.363
    3MOP    H55  130   0.512   2.160   2.404
    3MOP    H56  131   1.150   2.286   2.185
    3MOP    H57  132   1.211   2.059   2.262
    4MOP    C67  133   0.804   2.015   2.530
    4MOP     O7  134   0.805   2.060   2.644
    4MOP    C68  135   0.819   1.870   2.508
    4MOP    C69  136   0.859   1.819   2.383
    4MOP    C70  137   0.865   1.681   2.361
    4MOP    C71  138   0.830   1.590   2.462
    4MOP    C72  139   0.824   1.445   2.434
    4MOP    C73  140   0.877   1.345   2.520
    4MOP    C74  141   0.856   1.211   2.486
    4MOP    C75  142   0.787   1.171   2.372
    4MOP     O8  143   0.776   1.035   2.351
    4MOP    C76  144   0.705   0.990   2.235
    4MOP    C77  145   0.736   1.270   2.288
    4MOP    C78  146   0.755   1.406   2.318
    4MOP    C79  147   0.955   1.373   2.642
    4MOP    C80  148   0.930   1.301   2.761
    4MOP    C81  149   1.005   1.324   2.875
    4MOP    C82  150   1.107   1.419   2.875
    4MOP    C83  151   1.135   1.492   2.759
    4MOP    C84  152   1.059   1.468   2.643
    4MOP    C85  153   1.250   1.591   2.760
    4MOP     N4  154   1.205   1.725   2.727
    4MOP    C86  155   1.357   1.550   2.658
    4MOP    C87  156   0.792   1.641   2.586
    4MOP    C88  157   0.787   1.779   2.609
    4MOP    H58  158   0.887   1.886   2.302
    4MOP    H59  159   0.898   1.645   2.264
    4MOP    H60  160   0.897   1.132   2.549
    4MOP    H61  161   0.705   0.881   2.232
    4MOP    H62  162   0.754   1.026   2.142
    4MOP    H63  163   0.601   1.025   2.236
    4MOP    H64  164   0.682   1.245   2.197
    4MOP    H65  165   0.713   1.479   2.252
    4MOP    H66  166   0.850   1.227   2.763
    4MOP    H67  167   0.984   1.267   2.966
    4MOP    H68  168   1.164   1.435   2.966
    4MOP    H69  169   1.081   1.524   2.553
    4MOP    H70  170   1.297   1.589   2.859
    4MOP    H71  171   1.183   1.744   2.630
    4MOP    H72  172   1.318   1.555   2.556
    4MOP    H73  173   1.391   1.448   2.677
    4MOP    H74  174   1.443   1.618   2.665
    4MOP    H75  175   0.763   1.572   2.666
    4MOP    H76  176   0.754   1.815   2.707
    5MOP    C89  177   1.230   1.836   2.806
    5MOP     O9  178   1.266   1.821   2.922
    5MOP    C90  179   1.227   1.970   2.745
    5MOP    C91  180   1.154   1.997   2.628
    5MOP    C92  181   1.158   2.125   2.570
    5MOP    C93  182   1.235   2.227   2.626
    5MOP    C94  183   1.247   2.359   2.560
    5MOP    C95  184   1.231   2.483   2.626
    5MOP    C96  185   1.256   2.601   2.554
    5MOP    C97  186   1.294   2.601   2.420
    5MOP    O10  187   1.312   2.724   2.361
    5MOP    C98  188   1.352   2.727   2.223
    5MOP    C99  189   1.309   2.477   2.356
    5MOP   C100  190   1.286   2.358   2.425
    5MOP   C101  191   1.185   2.497   2.766
    5MOP   C102  192   1.246   2.589   2.852
    5MOP   C103  193   1.200   2.607   2.983
    5MOP   C104  194   1.092   2.531   3.030
    5MOP   C105  195   1.029   2.438   2.946
    5MOP   C106  196   1.076   2.421   2.815
    5MOP   C107  197   0.909   2.362   2.999
    5MOP     N5  198   0.935   2.218   2.995
    5MOP   C108  199   0.784   2.390   2.915
    5MOP   C109  200   1.306   2.201   2.744
    5MOP   C110  201   1.301   2.075   2.802
    5MOP    H77  202   1.094   1.921   2.580
    5MOP    H78  203   1.100   2.144   2.480
    5MOP    H79  204   1.241   2.698   2.601
    5MOP    H80  205   1.363   2.832   2.191
    5MOP    H81  206   1.277   2.680   2.158
    5MOP    H82  207   1.449   2.677   2.209
    5MOP    H83  208   1.338   2.470   2.252
    5MOP    H84  209   1.302   2.264   2.374
    5MOP    H85  210   1.330   2.649   2.818
    5MOP    H86  211   1.248   2.678   3.048
    5MOP    H87  212   1.059   2.546   3.132
    5MOP    H88  213   1.027   2.350   2.750
    5MOP    H89  214   0.889   2.395   3.101
    5MOP    H90  215   0.915   2.169   2.908
    5MOP    H91  216   0.796   2.351   2.813
    5MOP    H92  217   0.766   2.498   2.910
    5MOP    H93  218   0.698   2.342   2.960
    5MOP    H94  219   1.367   2.279   2.788
    5MOP    H95  220   1.360   2.055   2.892
    6MOP   C111  221   0.936   2.138   3.108
    6MOP    O11  222   0.946   2.190   3.220
    6MOP   C112  223   0.909   1.994   3.096
    6MOP   C113  224   0.928   1.926   2.974
    6MOP   C114  225   0.894   1.790   2.963
    6MOP   C115  226   0.839   1.721   3.072
    6MOP   C116  227   0.792   1.581   3.055
    6MOP   C117  228   0.825   1.476   3.144
    6MOP   C118  229   0.766   1.350   3.124
    6MOP   C119  230   0.677   1.325   3.019
    6MOP    O12  231   0.629   1.197   3.010
    6MOP   C120  232   0.539   1.165   2.901
    6MOP   C121  233   0.646   1.430   2.931
    6MOP   C122  234   0.703   1.556   2.950
    6MOP   C123  235   0.922   1.490   3.255
    6MOP   C124  236   0.893   1.438   3.382
    6MOP   C125  237   0.984   1.454   3.487
    6MOP   C126  238   1.106   1.517   3.465
    6MOP   C127  239   1.139   1.567   3.339
    6MOP   C128  240   1.046   1.553   3.234
    6MOP   C129  241   1.273   1.633   3.317
    6MOP     N6  242   1.255   1.773   3.284
    6MOP   C130  243   1.351   1.567   3.203
    6MOP   C131  244   0.824   1.787   3.193
    6MOP   C132  245   0.859   1.921   3.206
    6MOP    H96  246   0.967   1.977   2.887
    6MOP    H97  247   0.911   1.739   2.869
    6MOP    H98  248   0.791   1.268   3.190
    6MOP    H99  249   0.510   1.060   2.908
    6MOP   H100  250   0.586   1.183   2.805
    6MOP   H101  251   0.448   1.227   2.908
    6MOP   H102  252   0.578   1.416   2.849
    6MOP   H103  253   0.674   1.636   2.883
    6MOP   H104  254   0.799   1.389   3.400
    6MOP   H105  255   0.960   1.416   3.586
    6MOP   H106  256   1.175   1.529   3.549
    6MOP   H107  257   1.071   1.593   3.136
    6MOP   H108  258   1.334   1.622   3.408
    6MOP   H109  259   1.256   1.800   3.186
    6MOP   H110  260   1.300   1.582   3.107
    6MOP   H111  261   1.361   1.460   3.221
    6MOP   H112  262   1.451   1.610   3.196
    6MOP   H113  263   0.783   1.734   3.279
    6MOP   H114  264   0.845   1.972   3.302
    7MOP   C133  265   1.274   1.875   3.376
    7MOP    O13  266   1.284   1.847   3.496
    7MOP   C134  267   1.303   2.010   3.328
    7MOP   C135  268   1.262   2.053   3.200
    7MOP   C136  269   1.300   2.178   3.151
    7MOP   C137  270   1.384   2.263   3.226
    7MOP   C138  271   1.436   2.388   3.168
    7MOP   C139  272   1.436   2.511   3.235
    7MOP   C140  273   1.499   2.622   3.173
    7MOP   C141  274   1.556   2.614   3.047
    7MOP    O14  275   1.611   2.729   2.997
    7MOP   C142  276   1.676   2.724   2.868
    7MOP   C143  277   1.554   2.490   2.980
    7MOP   C144  278   1.495   2.379   3.040
    7MOP   C145  279   1.372   2.533   3.366
    7MOP   C146  280   1.440   2.597   3.470
    7MOP   C147  281   1.378   2.617   3.594
    7MOP   C148  282   1.247   2.575   3.614
    7MOP   C149  283   1.175   2.513   3.511
    7MOP   C150  284   1.240   2.490   3.388
    7MOP   C151  285   1.031   2.472   3.534
    7MOP     N7  286   1.024   2.327   3.554
    7MOP   C152  287   0.939   2.507   3.417
    7MOP   C153  288   1.421   2.222   3.355
    7MOP   C154  289   1.380   2.099   3.406
    7MOP   H115  290   1.201   1.988   3.137
    7MOP   H116  291   1.266   2.209   3.053
    7MOP   H117  292   1.499   2.718   3.223
    7MOP   H118  293   1.716   2.823   2.843
    7MOP   H119  294   1.605   2.695   2.790
    7MOP   H120  295   1.759   2.653   2.870
    7MOP   H121  296   1.597   2.477   2.882
    7MOP   H122  297   1.497   2.284   2.988
    7MOP   H123  298   1.542   2.630   3.456
    7MOP   H124  299   1.432   2.665   3.675
    7MOP   H125  300   1.199   2.591   3.710
    7MOP   H126  301   1.187   2.439   3.307
    7MOP   H127  302   0.993   2.525   3.622
    7MOP   H128  303   1.027   2.267   3.472
    7MOP   H129  304   0.962   2.447   3.329
    7MOP   H130  305   0.950   2.613   3.392
    7MOP   H131  306   0.835   2.490   3.445
    7MOP   H132  307   1.484   2.286   3.415
    7MOP   H133  308   1.412   2.070   3.506
    8MOP   C155  309   0.985   2.267   3.674
    8MOP    O15  310   0.969   2.338   3.772
    8MOP   C156  311   0.950   2.124   3.678
    8MOP   C157  312   0.976   2.038   3.570
    8MOP   C158  313   0.932   1.904   3.572
    8MOP   C159  314   0.862   1.855   3.684
    8MOP   C160  315   0.806   1.719   3.684
    8MOP   C161  316   0.830   1.625   3.787
    8MOP   C162  317   0.762   1.503   3.785
    8MOP   C163  318   0.671   1.470   3.683
    8MOP    O16  319   0.611   1.346   3.692
    8MOP   C164  320   0.511   1.313   3.596
    8MOP   C165  321   0.649   1.564   3.582
    8MOP   C166  322   0.716   1.686   3.582
    8MOP   C167  323   0.926   1.650   3.897
    8MOP   C168  324   0.889   1.627   4.030
    8MOP   C169  325   0.979   1.651   4.135
    8MOP   C170  326   1.108   1.698   4.106
    8MOP   C171  327   1.148   1.720   3.974
    8MOP   C172  328   1.056   1.696   3.870
    8MOP   C173  329   1.289   1.769   3.947
    8MOP     N8  330   1.286   1.910   3.912
    8MOP   C174  331   1.358   1.692   3.834
    8MOP   C175  332   0.842   1.939   3.794
    8MOP   C176  333   0.885   2.072   3.791
    8MOP   H134  334   1.029   2.072   3.481
    8MOP   H135  335   0.952   1.839   3.489
    8MOP   H136  336   0.780   1.429   3.862
    8MOP   H137  337   0.468   1.215   3.621
    8MOP   H138  338   0.554   1.307   3.495
    8MOP   H139  339   0.429   1.386   3.596
    8MOP   H140  340   0.580   1.543   3.500
    8MOP   H141  341   0.697   1.758   3.502
    8MOP   H142  342   0.789   1.592   4.053
    8MOP   H143  343   0.948   1.635   4.238
    8MOP   H144  344   1.176   1.718   4.187
    8MOP   H145  345   1.086   1.715   3.767
    8MOP   H146  346   1.350   1.754   4.037
    8MOP   H147  347   1.260   1.936   3.817
    8MOP   H148  348   1.309   1.711   3.738
    8MOP   H149  349   1.355   1.584   3.854
    8MOP   H150  350   1.462   1.723   3.826
    8MOP   H151  351   0.789   1.902   3.881
    8MOP   H152  352   0.866   2.135   3.877
    9CAP   C177  353   0.599   2.583   2.103
    9CAP    O17  354   0.587   2.551   1.964
    9CAP   H153  355   0.502   2.606   2.146
    9CAP   H154  356   0.663   2.672   2.114
    9CAP   H155  357   0.644   2.501   2.159
   10CAP   C178  358   1.294   2.371   3.927
   10CAP   C179  359   1.286   2.255   4.027
   10CAP   C180  360   1.402   2.271   4.127
   10CAP   C181  361   1.151   2.262   4.099
   10CAP    O18  362   1.296   2.136   3.946
   10CAP   C182  363   1.296   2.013   4.002
   10CAP    O19  364   1.306   1.988   4.122
   10CAP   H156  365   1.281   2.467   3.978
   10CAP   H157  366   1.392   2.371   3.878
   10CAP   H158  367   1.217   2.361   3.851
   10CAP   H159  368   1.497   2.250   4.078
   10CAP   H160  369   1.391   2.204   4.212
   10CAP   H161  370   1.404   2.374   4.167
   10CAP   H162  371   1.068   2.249   4.028
   10CAP   H163  372   1.142   2.184   4.175
   10CAP   H164  373   1.138   2.359   4.148
    1TCM     c1  374   4.337   0.347   2.674
    1TCM    cl1  375   4.448   0.470   2.609
    1TCM    cl2  376   4.326   0.363   2.851
    1TCM     h1  377   4.236   0.362   2.629
    1TCM    cl3  378   4.397   0.185   2.632
    1TCM     c1  379   1.948   2.512   4.169
    1TCM    cl1  380   1.937   2.392   4.038
    1TCM    cl2  381   1.892   2.438   4.321
    1TCM     h1  382   2.053   2.545   4.181
    1TCM    cl3  383   1.846   2.652   4.130
    1TCM     c1  384   1.910   2.225   0.858
    1TCM    cl1  385   1.894   2.325   0.712
    1TCM    cl2  386   1.890   2.054   0.815
    1TCM     h1  387   2.010   2.241   0.903
    1TCM    cl3  388   1.785   2.272   0.975
    1TCM     c1  389   2.657   0.329   3.692
    1TCM    cl1  390   2.644   0.212   3.559
    1TCM    cl2  391   2.495   0.357   3.762
    1TCM     h1  392   2.724   0.290   3.770
    1TCM    cl3  393   2.721   0.483   3.629
    1TCM     c1  394   2.103   1.740   2.653
    1TCM    cl1  395   2.131   1.565   2.666
    1TCM    cl2  396   2.134   1.792   2.486
    1TCM     h1  397   1.998   1.763   2.680
    1TCM    cl3  398   2.213   1.826   2.763
    1TCM     c1  399   5.038   1.265   0.563
    1TCM    cl1  400   5.017   1.328   0.728
    1TCM    cl2  401   5.212   1.257   0.524
    1TCM     h1  402   4.994   1.163   0.557
    1TCM    cl3  403   4.956   1.372   0.448
    1TCM     c1  404   3.041   0.814   2.393
    1TCM    cl1  405   2.879   0.877   2.434
    1TCM    cl2  406   3.025   0.660   2.306
    1TCM     h1  407   3.093   0.888   2.329
    1TCM    cl3  408   3.134   0.789   2.543
    1TCM     c1  409   3.618   4.186   4.711
    1TCM    cl1  410   3.619   4.340   4.799
    1TCM    cl2  411   3.609   4.218   4.536
    1TCM     h1  412   3.710   4.129   4.733
    1TCM    cl3  413   3.476   4.091   4.761
    1TCM     c1  414   0.778   4.171   3.472
    1TCM    cl1  415   0.603   4.162   3.440
    1TCM    cl2  416   0.858   4.029   3.402
    1TCM     h1  417   0.819   4.263   3.425
    1TCM    cl3  418   0.806   4.175   3.647
    1TCM     c1  419   4.046   1.252   2.740
    1TCM    cl1  420   4.191   1.332   2.805
    1TCM    cl2  421   4.090   1.157   2.596
    1TCM     h1  422   4.003   1.185   2.817
    1TCM    cl3  423   3.926   1.375   2.694
    1TCM     c1  424   4.904   3.214   4.502
    1TCM    cl1  425   4.997   3.064   4.523
    1TCM    cl2  426   4.969   3.340   4.609
    1TCM     h1  427   4.911   3.248   4.397
    1TCM    cl3  428   4.733   3.184   4.543
    1TCM     c1  429   0.700   3.015   1.406
    1TCM    cl1  430   0.570   3.136   1.419
    1TCM    cl2  431   0.842   3.090   1.328
    1TCM     h1  432   0.728   2.980   1.507
    1TCM    cl3  433   0.644   2.878   1.307
    1TCM     c1  434   4.739   3.455   1.967
    1TCM    cl1  435   4.907   3.507   1.994
    1TCM    cl2  436   4.721   3.285   2.017
    1TCM     h1  437   4.670   3.518   2.027
    1TCM    cl3  438   4.699   3.470   1.795
    1TCM     c1  439   4.305   4.429   0.728
    1TCM    cl1  440   4.248   4.541   0.602
    1TCM    cl2  441   4.165   4.348   0.803
    1TCM     h1  442   4.372   4.353   0.682
    1TCM    cl3  443   4.394   4.520   0.852
    1TCM     c1  444   2.462   5.233   3.864
    1TCM    cl1  445   2.321   5.340   3.877
    1TCM    cl2  446   2.609   5.323   3.906
    1TCM     h1  447   2.450   5.147   3.933
    1TCM    cl3  448   2.475   5.173   3.697
    1TCM     c1  449   2.940   1.920   3.137
    1TCM    cl1  450   3.020   2.036   3.028
    1TCM    cl2  451   2.957   1.756   3.071
    1TCM     h1  452   2.988   1.925   3.237
    1TCM    cl3  453   2.768   1.961   3.151
    1TCM     c1  454   0.659   3.056   5.079
    1TCM    cl1  455   0.656   2.879   5.093
    1TCM    cl2  456   0.537   3.109   4.960
    1TCM     h1  457   0.637   3.102   5.178
    1TCM    cl3  458   0.821   3.108   5.025
    1TCM     c1  459   4.655   3.608   2.391
    1TCM    cl1  460   4.751   3.599   2.241
    1TCM    cl2  461   4.665   3.453   2.476
    1TCM     h1  462   4.696   3.689   2.455
    1TCM    cl3  463   4.486   3.644   2.351
    1TCM     c1  464   5.204   3.672   4.868
    1TCM    cl1  465   5.061   3.660   4.763
    1TCM    cl2  466   5.248   3.843   4.890
    1TCM     h1  467   5.181   3.627   4.967
    1TCM    cl3  468   5.340   3.585   4.794
    1TCM     c1  469   2.123   1.108   3.459
    1TCM    cl1  470   2.214   1.058   3.603
    1TCM    cl2  471   2.235   1.172   3.336
    1TCM     h1  472   2.068   1.021   3.417
    1TCM    cl3  473   2.006   1.235   3.503
    1TCM     c1  474   2.161   1.098   3.908
    1TCM    cl1  475   2.116   1.032   4.067
    1TCM    cl2  476   2.033   1.060   3.790
    1TCM     h1  477   2.173   1.208   3.916
    1TCM    cl3  478   2.314   1.025   3.854
    1TCM     c1  479   3.109   4.734   4.846
    1TCM    cl1  480   3.273   4.675   4.884
    1TCM    cl2  481   2.989   4.616   4.903
    1TCM     h1  482   3.093   4.831   4.897
    1TCM    cl3  483   3.094   4.755   4.670
    1TCM     c1  484   2.720   2.485   2.011
    1TCM    cl1  485   2.748   2.314   1.973
    1TCM    cl2  486   2.728   2.508   2.188
    1TCM     h1  487   2.798   2.547   1.962
    1TCM    cl3  488   2.559   2.534   1.953
    1TCM     c1  489   2.756   2.032   5.066
    1TCM    cl1  490   2.633   1.956   4.963
    1TCM    cl2  491   2.745   1.964   5.230
    1TCM     h1  492   2.856   2.013   5.025
    1TCM    cl3  493   2.727   2.207   5.073
    1TCM     c1  494   4.911   0.287   1.341
    1TCM    cl1  495   4.773   0.395   1.313
    1TCM    cl2  496   4.966   0.304   1.509
    1TCM     h1  497   4.880   0.182   1.323
    1TCM    cl3  498   5.043   0.329   1.230
    1TCM     c1  499   3.060   0.856   1.250
    1TCM    cl1  500   3.193   0.786   1.347
    1TCM    cl2  501   3.087   0.821   1.078
    1TCM     h1  502   2.964   0.812   1.283
    1TCM    cl3  503   3.056   1.032   1.275
    1TCM     c1  504   3.948   3.287   1.893
    1TCM    cl1  505   3.842   3.193   2.001
    1TCM    cl2  506   3.943   3.217   1.729
    1TCM     h1  507   3.914   3.392   1.889
    1TCM    cl3  508   4.115   3.281   1.954
    1TCM     c1  509   1.120   0.887   3.693
    1TCM    cl1  510   1.196   0.982   3.823
    1TCM    cl2  511   1.003   0.989   3.606
    1TCM     h1  512   1.198   0.852   3.623
    1TCM    cl3  513   1.036   0.747   3.763
    1TCM     c1  514   0.680   5.181   4.129
    1TCM    cl1  515   0.767   5.048   4.209
    1TCM    cl2  516   0.645   5.135   3.961
    1TCM     h1  517   0.586   5.202   4.183
    1TCM    cl3  518   0.782   5.327   4.130
    1TCM     c1  519   2.849   3.647   3.467
    1TCM    cl1  520   2.858   3.473   3.502
    1TCM    cl2  521   2.849   3.739   3.619
    1TCM     h1  522   2.937   3.677   3.406
    1TCM    cl3  523   2.700   3.681   3.376
    1TCM     c1  524   0.733   3.295   1.670
    1TCM    cl1  525   0.571   3.330   1.605
    1TCM    cl2  526   0.834   3.441   1.662
    1TCM     h1  527   0.723   3.263   1.776
    1TCM    cl3  528   0.808   3.165   1.576
    1TCM     c1  529   4.980   1.991   2.132
    1TCM    cl1  530   5.130   2.012   2.039
    1TCM    cl2  531   4.840   2.016   2.025
    1TCM     h1  532   4.977   1.888   2.174
    1TCM    cl3  533   4.975   2.109   2.264
    1TCM     c1  534   1.281   3.621   2.288
    1TCM    cl1  535   1.266   3.526   2.138
    1TCM    cl2  536   1.420   3.562   2.381
    1TCM     h1  537   1.295   3.728   2.263
    1TCM    cl3  538   1.133   3.602   2.384
    1TCM     c1  539   3.954   1.402   2.057
    1TCM    cl1  540   3.837   1.535   2.074
    1TCM    cl2  541   4.114   1.469   2.019
    1TCM     h1  542   3.960   1.345   2.153
    1TCM    cl3  543   3.902   1.293   1.927
    1TCM     c1  544   0.673   2.222   1.977
    1TCM    cl1  545   0.755   2.245   1.821
    1TCM    cl2  546   0.758   2.098   2.072
    1TCM     h1  547   0.673   2.318   2.034
    1TCM    cl3  548   0.505   2.171   1.949
    1TCM     c1  549   2.305   3.880   1.809
    1TCM    cl1  550   2.293   3.741   1.920
    1TCM    cl2  551   2.265   3.827   1.644
    1TCM     h1  552   2.233   3.958   1.841
    1TCM    cl3  553   2.470   3.945   1.812
    1TCM     c1  554   1.037   4.526   1.131
    1TCM    cl1  555   0.989   4.516   1.302
    1TCM    cl2  556   1.073   4.695   1.090
    1TCM     h1  557   1.127   4.464   1.115
    1TCM    cl3  558   0.904   4.467   1.029
    1TCM     c1  559   0.245   1.303   4.809
    1TCM    cl1  560   0.369   1.227   4.707
    1TCM    cl2  561   0.305   1.317   4.975
    1TCM     h1  562   0.222   1.404   4.769
    1TCM    cl3  563   0.097   1.204   4.807
    1TCM     c1  564   1.334   3.879   4.782
    1TCM    cl1  565   1.431   3.983   4.889
    1TCM    cl2  566   1.403   3.882   4.618
    1TCM     h1  567   1.335   3.775   4.820
    1TCM    cl3  568   1.167   3.939   4.777
    1TCM     c1  569   0.327   0.756   4.835
    1TCM    cl1  570   0.253   0.616   4.754
    1TCM    cl2  571   0.469   0.701   4.928
    1TCM     h1  572   0.359   0.830   4.760
    1TCM    cl3  573   0.210   0.830   4.946
    1TCM     c1  574   1.099   4.298   2.258
    1TCM    cl1  575   1.000   4.328   2.403
    1TCM    cl2  576   1.237   4.411   2.257
    1TCM     h1  577   1.137   4.194   2.260
    1TCM    cl3  578   1.001   4.323   2.112
    1TCM     c1  579   3.688   4.104   0.164
    1TCM    cl1  580   3.804   3.991   0.237
    1TCM    cl2  581   3.775   4.246   0.101
    1TCM     h1  582   3.634   4.054   0.082
    1TCM    cl3  583   3.571   4.157   0.288
    1TCM     c1  584   1.646   1.549   1.449
    1TCM    cl1  585   1.475   1.534   1.404
    1TCM    cl2  586   1.715   1.694   1.373
    1TCM     h1  587   1.655   1.557   1.559
    1TCM    cl3  588   1.735   1.405   1.393
    1TCM     c1  589   3.491   0.669   2.307
    1TCM    cl1  590   3.370   0.705   2.182
    1TCM    cl2  591   3.417   0.569   2.435
    1TCM     h1  592   3.576   0.614   2.262
    1TCM    cl3  593   3.549   0.821   2.378
    1TCM     c1  594   0.162   0.607   2.001
    1TCM    cl1  595   0.269   0.520   1.888
    1TCM    cl2  596   0.078   0.737   1.914
    1TCM     h1  597   0.088   0.536   2.043
    1TCM    cl3  598   0.260   0.677   2.132
    1TCM     c1  599   3.862   2.614   1.120
    1TCM    cl1  600   3.765   2.652   1.264
    1TCM    cl2  601   3.879   2.437   1.105
    1TCM     h1  602   3.812   2.654   1.030
    1TCM    cl3  603   4.023   2.687   1.137
    1TCM     c1  604   4.178   0.100   0.780
    1TCM    cl1  605   4.309   0.026   0.686
    1TCM    cl2  606   4.220   0.096   0.953
    1TCM     h1  607   4.164   0.205   0.748
    1TCM    cl3  608   4.028   0.008   0.754
    1TCM     c1  609   4.951   1.788   3.408
    1TCM    cl1  610   4.991   1.947   3.477
    1TCM    cl2  611   5.020   1.775   3.244
    1TCM     h1  612   4.993   1.708   3.472
    1TCM    cl3  613   4.774   1.770   3.399
    1TCM     c1  614   2.035   3.589   2.426
    1TCM    cl1  615   1.859   3.578   2.441
    1TCM    cl2  616   2.110   3.458   2.520
    1TCM     h1  617   2.064   3.578   2.319
    1TCM    cl3  618   2.091   3.746   2.487
    1TCM     c1  619   0.580   0.264   4.873
    1TCM    cl1  620   0.470   0.178   4.763
    1TCM    cl2  621   0.711   0.154   4.923
    1TCM     h1  622   0.624   0.351   4.820
    1TCM    cl3  623   0.490   0.319   5.016
    1TCM     c1  624   4.592   0.695   4.538
    1TCM    cl1  625   4.494   0.548   4.546
    1TCM    cl2  626   4.695   0.706   4.682
    1TCM     h1  627   4.656   0.692   4.447
    1TCM    cl3  628   4.486   0.837   4.531
    1TCM     c1  629   3.835   4.687   1.570
    1TCM    cl1  630   3.748   4.839   1.540
    1TCM    cl2  631   3.878   4.676   1.743
    1TCM     h1  632   3.769   4.601   1.543
    1TCM    cl3  633   3.983   4.682   1.472
    1TCM     c1  634   4.506   4.565   4.898
    1TCM    cl1  635   4.548   4.579   5.070
    1TCM    cl2  636   4.439   4.720   4.841
    1TCM     h1  637   4.597   4.541   4.840
    1TCM    cl3  638   4.386   4.437   4.877
    1TCM     c1  639   4.032   4.337   1.784
    1TCM    cl1  640   4.130   4.440   1.678
    1TCM    cl2  641   3.869   4.406   1.801
    1TCM     h1  642   4.025   4.235   1.740
    1TCM    cl3  643   4.109   4.327   1.944
    1TCM     c1  644   3.875   4.061   3.383
    1TCM    cl1  645   3.969   4.015   3.526
    1TCM    cl2  646   3.982   4.064   3.240
    1TCM     h1  647   3.794   3.987   3.366
    1TCM    cl3  648   3.805   4.223   3.407
    1TCM     c1  649   0.407   0.888   3.415
    1TCM    cl1  650   0.574   0.831   3.432
    1TCM    cl2  651   0.335   0.817   3.269
    1TCM     h1  652   0.348   0.858   3.504
    1TCM    cl3  653   0.406   1.066   3.402
    1TCM     c1  654   3.055   2.654   2.854
    1TCM    cl1  655   2.946   2.513   2.856
    1TCM    cl2  656   3.059   2.727   3.016
    1TCM     h1  657   3.157   2.622   2.826
    1TCM    cl3  658   2.995   2.774   2.737
    1TCM     c1  659   3.716   2.417   2.437
    1TCM    cl1  660   3.683   2.588   2.403
    1TCM    cl2  661   3.880   2.376   2.382
    1TCM     h1  662   3.708   2.398   2.546
    1TCM    cl3  663   3.598   2.316   2.350
    1TCM     c1  664   5.011   0.684   2.444
    1TCM    cl1  665   4.932   0.570   2.556
    1TCM    cl2  666   4.945   0.663   2.281
    1TCM     h1  667   4.993   0.788   2.478
    1TCM    cl3  668   5.186   0.652   2.442
    1TCM     c1  669   0.429   0.142   3.041
    1TCM    cl1  670   0.283   0.041   3.031
    1TCM    cl2  671   0.396   0.301   2.967
    1TCM     h1  672   0.457   0.156   3.148
    1TCM    cl3  673   0.563   0.063   2.954
    1TCM     c1  674   5.241   3.691   1.388
    1TCM    cl1  675   5.340   3.543   1.374
    1TCM    cl2  676   5.103   3.680   1.277
    1TCM     h1  677   5.205   3.701   1.492
    1TCM    cl3  678   5.340   3.832   1.346
    1TCM     c1  679   1.410   2.550   4.459
    1TCM    cl1  680   1.335   2.439   4.343
    1TCM    cl2  681   1.394   2.485   4.623
    1TCM     h1  682   1.518   2.562   4.434
    1TCM    cl3  683   1.329   2.708   4.450
    1TCM     c1  684   2.685   4.463   4.198
    1TCM    cl1  685   2.560   4.336   4.189
    1TCM    cl2  686   2.778   4.464   4.046
    1TCM     h1  687   2.636   4.562   4.212
    1TCM    cl3  688   2.794   4.431   4.334
    1TCM     c1  689   4.676   1.678   0.384
    1TCM    cl1  690   4.693   1.824   0.283
    1TCM    cl2  691   4.655   1.726   0.554
    1TCM     h1  692   4.588   1.620   0.351
    1TCM    cl3  693   4.823   1.578   0.368
    1TCM     c1  694   2.944   4.733   4.453
    1TCM    cl1  695   2.809   4.703   4.342
    1TCM    cl2  696   2.961   4.907   4.482
    1TCM     h1  697   2.925   4.681   4.550
    1TCM    cl3  698   3.094   4.669   4.382
    1TCM     c1  699   3.809   4.177   2.042
    1TCM    cl1  700   3.726   4.048   2.132
    1TCM    cl2  701   3.748   4.181   1.875
    1TCM     h1  702   3.789   4.274   2.091
    1TCM    cl3  703   3.984   4.146   2.041
    1TCM     c1  704   0.911   0.250   3.537
    1TCM    cl1  705   0.868   0.400   3.622
    1TCM    cl2  706   0.890   0.112   3.647
    1TCM     h1  707   0.846   0.237   3.448
    1TCM    cl3  708   1.081   0.258   3.484
    1TCM     c1  709   2.799   0.916   2.741
    1TCM    cl1  710   2.629   0.964   2.723
    1TCM    cl2  711   2.842   0.798   2.615
    1TCM     h1  712   2.864   1.006   2.731
    1TCM    cl3  713   2.823   0.843   2.902
    1TCM     c1  714   2.231   1.592   3.572
    1TCM    cl1  715   2.220   1.682   3.725
    1TCM    cl2  716   2.075   1.515   3.536
    1TCM     h1  717   2.258   1.662   3.490
    1TCM    cl3  718   2.357   1.468   3.586
    1TCM     c1  719   2.895   1.182   3.872
    1TCM    cl1  720   2.909   1.332   3.777
    1TCM    cl2  721   2.827   1.219   4.032
    1TCM     h1  722   2.828   1.111   3.818
    1TCM    cl3  723   3.056   1.109   3.891
    1TCM     c1  724   4.649   5.130   1.271
    1TCM    cl1  725   4.547   5.087   1.410
    1TCM    cl2  726   4.613   5.296   1.220
    1TCM     h1  727   4.756   5.123   1.301
    1TCM    cl3  728   4.617   5.018   1.137
    1TCM     c1  729   0.519   4.433   0.327
    1TCM    cl1  730   0.661   4.428   0.221
    1TCM    cl2  731   0.570   4.469   0.493
    1TCM     h1  732   0.449   4.512   0.292
    1TCM    cl3  733   0.437   4.275   0.323
    1TCM     c1  734   2.416   3.452   2.237
    1TCM    cl1  735   2.587   3.421   2.276
    1TCM    cl2  736   2.332   3.516   2.380
    1TCM     h1  737   2.410   3.526   2.154
    1TCM    cl3  738   2.339   3.300   2.186
    1TCM     c1  739   5.036   2.908   4.343
    1TCM    cl1  740   5.150   2.908   4.479
    1TCM    cl2  741   4.971   3.072   4.321
    1TCM     h1  742   5.087   2.876   4.250
    1TCM    cl3  743   4.902   2.796   4.378
    1TCM     c1  744   3.367   3.638   1.047
    1TCM    cl1  745   3.439   3.690   0.893
    1TCM    cl2  746   3.468   3.694   1.182
    1TCM     h1  747   3.265   3.682   1.057
    1TCM    cl3  748   3.356   3.461   1.051
    1TCM     c1  749   3.218   2.959   4.953
    1TCM    cl1  750   3.237   3.066   4.813
    1TCM    cl2  751   3.139   3.049   5.085
    1TCM     h1  752   3.156   2.872   4.925
    1TCM    cl3  753   3.378   2.904   5.008
    1TCM     c1  754   3.927   3.817   4.871
    1TCM    cl1  755   4.001   3.970   4.925
    1TCM    cl2  756   3.899   3.823   4.696
    1TCM     h1  757   3.994   3.733   4.896
    1TCM    cl3  758   3.772   3.795   4.955
    1TCM     c1  759   1.953   2.684   4.835
    1TCM    cl1  760   1.880   2.690   4.674
    1TCM    cl2  761   2.029   2.841   4.871
    1TCM     h1  762   1.875   2.663   4.911
    1TCM    cl3  763   2.077   2.557   4.840
    1TCM     c1  764   2.260   4.096   4.222
    1TCM    cl1  765   2.254   4.175   4.381
    1TCM    cl2  766   2.284   4.219   4.096
    1TCM     h1  767   2.344   4.024   4.220
    1TCM    cl3  768   2.106   4.011   4.194
    1TCM     c1  769   0.799   0.326   0.143
    1TCM    cl1  770   0.709   0.246   0.012
    1TCM    cl2  771   0.685   0.374   0.272
    1TCM     h1  772   0.874   0.256   0.184
    1TCM    cl3  773   0.880   0.470   0.079
    1TCM     c1  774   1.191   0.644   2.946
    1TCM    cl1  775   1.304   0.530   3.025
    1TCM    cl2  776   1.163   0.782   3.054
    1TCM     h1  777   1.236   0.679   2.851
    1TCM    cl3  778   1.038   0.561   2.913
    1TCM     c1  779   4.522   3.211   3.248
    1TCM    cl1  780   4.429   3.292   3.377
    1TCM    cl2  781   4.430   3.216   3.096
    1TCM     h1  782   4.619   3.264   3.235
    1TCM    cl3  783   4.553   3.042   3.294
    1TCM     c1  784   3.181   4.760   5.240
    1TCM    cl1  785   3.217   4.587   5.229
    1TCM    cl2  786   3.064   4.805   5.114
    1TCM     h1  787   3.137   4.782   5.340
    1TCM    cl3  788   3.330   4.854   5.219
    1TCM     c1  789   1.870   0.145   3.591
    1TCM    cl1  790   1.928   0.305   3.642
    1TCM    cl2  791   2.009   0.041   3.552
    1TCM     h1  792   1.811   0.099   3.673
    1TCM    cl3  793   1.767   0.162   3.447
    1TCM     c1  794   0.930   0.808   4.016
    1TCM    cl1  795   1.009   0.650   4.000
    1TCM    cl2  796   0.920   0.853   4.187
    1TCM     h1  797   0.990   0.884   3.961
    1TCM    cl3  798   0.767   0.801   3.946
    1TCM     c1  799   2.059   5.155   2.403
    1TCM    cl1  800   1.906   5.245   2.400
    1TCM    cl2  801   2.050   5.020   2.288
    1TCM     h1  802   2.142   5.223   2.375
    1TCM    cl3  803   2.088   5.092   2.567
    1TCM     c1  804   1.298   1.240   2.456
    1TCM    cl1  805   1.434   1.275   2.565
    1TCM    cl2  806   1.170   1.156   2.546
    1TCM     h1  807   1.259   1.335   2.415
    1TCM    cl3  808   1.355   1.136   2.323
    1TCM     c1  809   1.605   1.644   0.185
    1TCM    cl1  810   1.651   1.507   0.289
    1TCM    cl2  811   1.580   1.587   0.019
    1TCM     h1  812   1.511   1.689   0.224
    1TCM    cl3  813   1.734   1.766   0.187
    1TCM     c1  814   4.245   3.104   2.474
    1TCM    cl1  815   4.134   3.167   2.350
    1TCM    cl2  816   4.152   3.021   2.601
    1TCM     h1  817   4.315   3.032   2.427
    1TCM    cl3  818   4.336   3.239   2.545
    1TCM     c1  819   2.908   4.870   1.418
    1TCM    cl1  820   2.739   4.891   1.365
    1TCM    cl2  821   3.017   4.945   1.299
    1TCM     h1  822   2.921   4.919   1.517
    1TCM    cl3  823   2.944   4.697   1.432
    1TCM     c1  824   4.321   2.475   3.331
    1TCM    cl1  825   4.361   2.628   3.411
    1TCM    cl2  826   4.223   2.375   3.442
    1TCM     h1  827   4.263   2.495   3.239
    1TCM    cl3  828   4.470   2.388   3.290
    1TCM     c1  829   4.306   0.780   3.675
    1TCM    cl1  830   4.344   0.658   3.799
    1TCM    cl2  831   4.291   0.701   3.516
    1TCM     h1  832   4.209   0.829   3.701
    1TCM    cl3  833   4.435   0.902   3.669
    1TCM     c1  834   4.210   0.981   3.313
    1TCM    cl1  835   4.363   0.924   3.382
    1TCM    cl2  836   4.202   0.936   3.141
    1TCM     h1  837   4.125   0.936   3.368
    1TCM    cl3  838   4.202   1.158   3.327
    1TCM     c1  839   2.081   0.277   3.351
    1TCM    cl1  840   2.110   0.134   3.250
    1TCM    cl2  841   2.134   0.244   3.517
    1TCM     h1  842   2.139   0.363   3.310
    1TCM    cl3  843   1.908   0.317   3.350
    1TCM     c1  844   0.520   4.486   3.684
    1TCM    cl1  845   0.662   4.591   3.665
    1TCM    cl2  846   0.573   4.318   3.708
    1TCM     h1  847   0.460   4.519   3.771
    1TCM    cl3  848   0.419   4.495   3.537
    1TCM     c1  849   0.292   1.949   4.818
    1TCM    cl1  850   0.207   2.065   4.922
    1TCM    cl2  851   0.324   2.023   4.660
    1TCM     h1  852   0.389   1.921   4.865
    1TCM    cl3  853   0.192   1.804   4.797
    1TCM     c1  854   1.100   5.147   5.169
    1TCM    cl1  855   0.963   5.059   5.239
    1TCM    cl2  856   1.093   5.318   5.218
    1TCM     h1  857   1.195   5.102   5.205
    1TCM    cl3  858   1.094   5.137   4.991
    1TCM     c1  859   2.034   2.591   4.531
    1TCM    cl1  860   2.079   2.480   4.400
    1TCM    cl2  861   1.949   2.502   4.659
    1TCM     h1  862   2.126   2.637   4.573
    1TCM    cl3  863   1.929   2.719   4.467
    1TCM     c1  864   4.819   1.685   2.350
    1TCM    cl1  865   4.797   1.856   2.394
    1TCM    cl2  866   4.841   1.671   2.174
    1TCM     h1  867   4.909   1.645   2.401
    1TCM    cl3  868   4.676   1.592   2.400
    1TCM     c1  869   2.921   1.347   2.581
    1TCM    cl1  870   2.907   1.480   2.697
    1TCM    cl2  871   2.880   1.194   2.662
    1TCM     h1  872   2.851   1.364   2.497
    1TCM    cl3  873   3.088   1.339   2.520
    1TCM     c1  874   3.229   0.515   2.672
    1TCM    cl1  875   3.245   0.415   2.526
    1TCM    cl2  876   3.378   0.505   2.768
    1TCM     h1  877   3.211   0.621   2.642
    1TCM    cl3  878   3.092   0.457   2.769
    1TCM     c1  879   2.371   4.625   1.171
    1TCM    cl1  880   2.351   4.780   1.257
    1TCM    cl2  881   2.459   4.652   1.019
    1TCM     h1  882   2.429   4.555   1.235
    1TCM    cl3  883   2.211   4.556   1.137
    1TCM     c1  884   0.579   3.432   4.105
    1TCM    cl1  885   0.456   3.547   4.163
    1TCM    cl2  886   0.586   3.438   3.927
    1TCM     h1  887   0.678   3.459   4.147
    1TCM    cl3  888   0.535   3.268   4.157
    1TCM     c1  889   2.510   0.103   1.676
    1TCM    cl1  890   2.385   0.000   1.750
    1TCM    cl2  891   2.653   0.107   1.782
    1TCM     h1  892   2.539   0.060   1.578
    1TCM    cl3  893   2.447   0.267   1.654
    1TCM     c1  894   2.650   4.931   3.662
    1TCM    cl1  895   2.564   4.851   3.795
    1TCM    cl2  896   2.643   4.829   3.516
    1TCM     h1  897   2.602   5.029   3.640
    1TCM    cl3  898   2.820   4.957   3.708
    1TCM     c1  899   3.667   3.632   4.856
    1TCM    cl1  900   3.714   3.773   4.759
    1TCM    cl2  901   3.558   3.684   4.987
    1TCM     h1  902   3.615   3.559   4.792
    1TCM    cl3  903   3.812   3.558   4.926
    1TCM     c1  904   1.726   0.225   4.768
    1TCM    cl1  905   1.637   0.072   4.788
    1TCM    cl2  906   1.855   0.204   4.647
    1TCM     h1  907   1.657   0.304   4.734
    1TCM    cl3  908   1.799   0.272   4.924
    1TCM     c1  909   3.424   3.768   1.901
    1TCM    cl1  910   3.417   3.904   2.017
    1TCM    cl2  911   3.514   3.819   1.756
    1TCM     h1  912   3.476   3.682   1.948
    1TCM    cl3  913   3.259   3.721   1.855
    1TCM     c1  914   0.129   2.909   2.155
    1TCM    cl1  915   0.073   2.769   2.061
    1TCM    cl2  916   0.170   2.857   2.320
    1TCM     h1  917   0.220   2.952   2.107
    1TCM    cl3  918   0.001   3.032   2.161
    1TCM     c1  919   1.859   0.927   3.576
    1TCM    cl1  920   1.720   0.823   3.617
    1TCM    cl2  921   1.860   1.069   3.683
    1TCM     h1  922   1.953   0.869   3.591
    1TCM    cl3  923   1.847   0.979   3.407
    1TCM     c1  924   1.438   4.575   3.674
    1TCM    cl1  925   1.404   4.426   3.765
    1TCM    cl2  926   1.509   4.533   3.516
    1TCM     h1  927   1.344   4.631   3.658
    1TCM    cl3  928   1.553   4.675   3.765
    1TCM     c1  929   1.279   3.270   3.574
    1TCM    cl1  930   1.438   3.333   3.622
    1TCM    cl2  931   1.225   3.149   3.692
    1TCM     h1  932   1.206   3.353   3.570
    1TCM    cl3  933   1.292   3.194   3.414
    1TCM     c1  934   4.855   2.347   2.482
    1TCM    cl1  935   5.007   2.414   2.419
    1TCM    cl2  936   4.801   2.443   2.622
    1TCM     h1  937   4.778   2.350   2.403
    1TCM    cl3  938   4.881   2.179   2.533
    1TCM     c1  939   2.397   1.401   1.881
    1TCM    cl1  940   2.396   1.426   2.057
    1TCM    cl2  941   2.515   1.274   1.841
    1TCM     h1  942   2.296   1.369   1.848
    1TCM    cl3  943   2.443   1.552   1.800
    1TCM     c1  944   1.289   0.155   3.681
    1TCM    cl1  945   1.365   0.000   3.636
    1TCM    cl2  946   1.339   0.280   3.565
    1TCM     h1  947   1.179   0.144   3.678
    1TCM    cl3  948   1.341   0.201   3.844
    1TCM     c1  949   4.333   3.813   2.786
    1TCM    cl1  950   4.231   3.703   2.880
    1TCM    cl2  951   4.368   3.959   2.882
    1TCM     h1  952   4.428   3.762   2.760
    1TCM    cl3  953   4.249   3.860   2.637
    1TCM     c1  954   4.468   1.316   4.046
    1TCM    cl1  955   4.334   1.215   4.105
    1TCM    cl2  956   4.433   1.371   3.881
    1TCM     h1  957   4.481   1.403   4.113
    1TCM    cl3  958   4.618   1.220   4.046
    1TCM     c1  959   3.841   2.047   2.591
    1TCM    cl1  960   3.793   1.918   2.478
    1TCM    cl2  961   3.865   1.978   2.753
    1TCM     h1  962   3.935   2.094   2.556
    1TCM    cl3  963   3.713   2.170   2.599
    1TCM     c1  964   4.969   3.979   3.354
    1TCM    cl1  965   4.956   4.142   3.424
    1TCM    cl2  966   5.096   3.888   3.437
    1TCM     h1  967   4.872   3.926   3.366
    1TCM    cl3  968   5.008   3.992   3.181
    1TCM     c1  969   0.646   1.657   0.406
    1TCM    cl1  970   0.628   1.783   0.530
    1TCM    cl2  971   0.705   1.731   0.255
    1TCM     h1  972   0.719   1.581   0.441
    1TCM    cl3  973   0.489   1.579   0.377
    1TCM     c1  974   3.662   1.783   3.647
    1TCM    cl1  975   3.763   1.698   3.528
    1TCM    cl2  976   3.583   1.664   3.753
    1TCM     h1  977   3.725   1.851   3.707
    1TCM    cl3  978   3.538   1.877   3.561
    1TCM     c1  979   1.737   2.336   3.168
    1TCM    cl1  980   1.684   2.496   3.224
    1TCM    cl2  981   1.816   2.352   3.010
    1TCM     h1  982   1.808   2.293   3.241
    1TCM    cl3  983   1.595   2.229   3.153
    1TCM     c1  984   0.329   3.227   0.175
    1TCM    cl1  985   0.456   3.233   0.300
    1TCM    cl2  986   0.374   3.108   0.051
    1TCM     h1  987   0.233   3.198   0.222
    1TCM    cl3  988   0.313   3.387   0.100
    1TCM     c1  989   0.793   4.622   5.066
    1TCM    cl1  990   0.682   4.662   5.199
    1TCM    cl2  991   0.831   4.770   4.975
    1TCM     h1  992   0.887   4.580   5.108
    1TCM    cl3  993   0.717   4.504   4.958
    1TCM     c1  994   4.749   4.850   0.175
    1TCM    cl1  995   4.883   4.746   0.120
    1TCM    cl2  996   4.767   4.882   0.349
    1TCM     h1  997   4.752   4.946   0.120
    1TCM    cl3  998   4.594   4.769   0.145
    1TCM     c1  999   4.450   3.546   2.049
    1TCM    cl1 1000   4.529   3.552   1.889
    1TCM    cl2 1001   4.435   3.376   2.100
    1TCM     h1 1002   4.511   3.601   2.123
    1TCM    cl3 1003   4.289   3.619   2.038
    1TCM     c1 1004   2.438   0.364   3.494
    1TCM    cl1 1005   2.451   0.231   3.612
    1TCM    cl2 1006   2.388   0.299   3.337
    1TCM     h1 1007   2.363   0.437   3.530
    1TCM    cl3 1008   2.596   0.444   3.477
    1TCM     c1 1009   0.404   1.600   3.312
    1TCM    cl1 1010   0.467   1.746   3.230
    1TCM    cl2 1011   0.381   1.634   3.485
    1TCM     h1 1012   0.307   1.571   3.266
    1TCM    cl3 1013   0.521   1.467   3.293
    1TCM     c1 1014   0.322   4.455   4.961
    1TCM    cl1 1015   0.490   4.509   4.934
    1TCM    cl2 1016   0.301   4.411   5.132
    1TCM     h1 1017   0.252   4.537   4.935
    1TCM    cl3 1018   0.289   4.313   4.859
    1TCM     c1 1019   4.316   1.426   2.216
    1TCM    cl1 1020   4.301   1.348   2.057
    1TCM    cl2 1021   4.188   1.367   2.324
    1TCM     h1 1022   4.415   1.403   2.260
    1TCM    cl3 1023   4.300   1.602   2.197
    1TCM     c1 1024   1.510   0.709   1.841
    1TCM    cl1 1025   1.454   0.873   1.801
    1TCM    cl2 1026   1.478   0.676   2.013
    1TCM     h1 1027   1.456   0.635   1.779
    1TCM    cl3 1028   1.685   0.698   1.810
    1TCM     c1 1029   2.093   1.862   3.611
    1TCM    cl1 1030   2.217   1.859   3.484
    1TCM    cl2 1031   1.994   1.715   3.601
    1TCM     h1 1032   2.142   1.867   3.710
    1TCM    cl3 1033   1.989   2.005   3.589
    1TCM     c1 1034   2.648   3.563   3.792
    1TCM    cl1 1035   2.616   3.626   3.629
    1TCM    cl2 1036   2.809   3.485   3.795
    1TCM     h1 1037   2.647   3.646   3.865
    1TCM    cl3 1038   2.524   3.444   3.836
    1TCM     c1 1039   0.974   1.290   3.768
    1TCM    cl1 1040   0.817   1.321   3.691
    1TCM    cl2 1041   0.948   1.249   3.939
    1TCM     h1 1042   1.024   1.206   3.717
    1TCM    cl3 1043   1.076   1.435   3.757
    1TCM     c1 1044   0.789   4.430   1.932
    1TCM    cl1 1045   0.649   4.467   2.036
    1TCM    cl2 1046   0.753   4.476   1.764
    1TCM     h1 1047   0.878   4.486   1.968
    1TCM    cl3 1048   0.823   4.255   1.939
    1TCM     c1 1049   3.730   4.191   2.596
    1TCM    cl1 1050   3.832   4.116   2.471
    1TCM    cl2 1051   3.821   4.202   2.748
    1TCM     h1 1052   3.701   4.293   2.563
    1TCM    cl3 1053   3.584   4.093   2.620
    1TCM     c1 1054   0.623   2.525   3.616
    1TCM    cl1 1055   0.737   2.407   3.683
    1TCM    cl2 1056   0.607   2.662   3.728
    1TCM     h1 1057   0.661   2.561   3.519
    1TCM    cl3 1058   0.464   2.448   3.594
    1TCM     c1 1059   1.778   3.988   1.913
    1TCM    cl1 1060   1.911   4.043   1.808
    1TCM    cl2 1061   1.743   3.817   1.879
    1TCM     h1 1062   1.807   4.000   2.019
    1TCM    cl3 1063   1.633   4.085   1.880
    1TCM     c1 1064   1.728   1.648   2.625
    1TCM    cl1 1065   1.624   1.788   2.591
    1TCM    cl2 1066   1.679   1.510   2.524
    1TCM     h1 1067   1.834   1.674   2.603
    1TCM    cl3 1068   1.713   1.604   2.797
    1TCM     c1 1069   3.955   0.115   4.047
    1TCM    cl1 1070   3.806   0.032   3.996
    1TCM    cl2 1071   4.044   0.170   3.904
    1TCM     h1 1072   3.929   0.202   4.111
    1TCM    cl3 1073   4.057   0.002   4.140
    1TCM     c1 1074   0.173   4.539   4.601
    1TCM    cl1 1075   0.165   4.679   4.710
    1TCM    cl2 1076   0.285   4.573   4.467
    1TCM     h1 1077   0.209   4.450   4.658
    1TCM    cl3 1078   0.011   4.505   4.536
    1TCM     c1 1079   1.228   1.700   0.991
    1TCM    cl1 1080   1.217   1.759   1.158
    1TCM    cl2 1081   1.068   1.642   0.938
    1TCM     h1 1082   1.261   1.782   0.925
    1TCM    cl3 1083   1.345   1.566   0.982
    1TCM     c1 1084   2.719   2.798   0.293
    1TCM    cl1 1085   2.563   2.762   0.215
    1TCM    cl2 1086   2.710   2.757   0.465
    1TCM     h1 1087   2.799   2.739   0.244
    1TCM    cl3 1088   2.755   2.971   0.275
    1TCM     c1 1089   3.639   1.396   3.473
    1TCM    cl1 1090   3.616   1.331   3.637
    1TCM    cl2 1091   3.571   1.283   3.354
    1TCM     h1 1092   3.587   1.494   3.465
    1TCM    cl3 1093   3.812   1.419   3.441
    1TCM     c1 1094   3.529   0.345   1.964
    1TCM    cl1 1095   3.682   0.310   1.882
    1TCM    cl2 1096   3.539   0.292   2.134
    1TCM     h1 1097   3.509   0.454   1.961
    1TCM    cl3 1098   3.397   0.258   1.883
    1TCM     c1 1099   4.133   2.688   1.549
    1TCM    cl1 1100   4.266   2.772   1.466
    1TCM    cl2 1101   4.196   2.540   1.625
    1TCM     h1 1102   4.090   2.754   1.627
    1TCM    cl3 1103   4.007   2.645   1.432
    1TCM     c1 1104   2.988   4.249   2.675
    1TCM    cl1 1105   2.981   4.360   2.814
    1TCM    cl2 1106   3.125   4.138   2.695
    1TCM     h1 1107   2.894   4.191   2.669
    1TCM    cl3 1108   3.008   4.343   2.525
    1TCM     c1 1109   4.441   1.118   2.775
    1TCM    cl1 1110   4.542   1.167   2.913
    1TCM    cl2 1111   4.425   0.941   2.774
    1TCM     h1 1112   4.341   1.164   2.785
    1TCM    cl3 1113   4.517   1.172   2.623
    1TCM     c1 1114   1.069   2.093   4.922
    1TCM    cl1 1115   0.996   2.249   4.966
    1TCM    cl2 1116   1.229   2.120   4.850
    1TCM     h1 1117   1.080   2.031   5.013
    1TCM    cl3 1118   0.964   2.010   4.805
    1TCM     c1 1119   2.398   4.583   4.621
    1TCM    cl1 1120   2.492   4.630   4.765
    1TCM    cl2 1121   2.494   4.615   4.475
    1TCM     h1 1122   2.373   4.475   4.627
    1TCM    cl3 1123   2.247   4.678   4.615
    1TCM     c1 1124   2.315   5.134   5.101
    1TCM    cl1 1125   2.357   5.003   5.213
    1TCM    cl2 1126   2.461   5.191   5.018
    1TCM     h1 1127   2.242   5.096   5.026
    1TCM    cl3 1128   2.242   5.268   5.192
    1TCM     c1 1129   2.046   1.299   2.994
    1TCM    cl1 1130   1.944   1.416   2.908
    1TCM    cl2 1131   2.114   1.182   2.878
    1TCM     h1 1132   2.129   1.352   3.045
    1TCM    cl3 1133   1.949   1.213   3.115
    1TCM     c1 1134   1.928   2.218   5.136
    1TCM    cl1 1135   1.851   2.196   5.294
    1TCM    cl2 1136   2.021   2.072   5.094
    1TCM     h1 1137   1.850   2.236   5.059
    1TCM    cl3 1138   2.038   2.358   5.142
    1TCM     c1 1139   2.255   1.847   1.661
    1TCM    cl1 1140   2.345   1.888   1.809
    1TCM    cl2 1141   2.272   1.979   1.543
    1TCM     h1 1142   2.294   1.753   1.618
    1TCM    cl3 1143   2.083   1.826   1.701
    1TCM     c1 1144   2.739   2.743   0.876
    1TCM    cl1 1145   2.727   2.570   0.919
    1TCM    cl2 1146   2.809   2.833   1.012
    1TCM     h1 1147   2.803   2.754   0.786
    1TCM    cl3 1148   2.576   2.806   0.841
    1TCM     c1 1149   3.065   1.863   2.005
    1TCM    cl1 1150   2.904   1.930   1.972
    1TCM    cl2 1151   3.100   1.874   2.179
    1TCM     h1 1152   3.069   1.757   1.973
    1TCM    cl3 1153   3.187   1.956   1.914
    1TCM     c1 1154   4.666   4.534   2.731
    1TCM    cl1 1155   4.817   4.463   2.792
    1TCM    cl2 1156   4.589   4.628   2.861
    1TCM     h1 1157   4.688   4.601   2.646
    1TCM    cl3 1158   4.556   4.405   2.679
    1TCM     c1 1159   3.268   0.437   4.920
    1TCM    cl1 1160   3.157   0.537   5.016
    1TCM    cl2 1161   3.291   0.511   4.760
    1TCM     h1 1162   3.366   0.430   4.972
    1TCM    cl3 1163   3.200   0.274   4.901
    1TCM     c1 1164   3.963   3.988   4.147
    1TCM    cl1 1165   4.060   4.123   4.208
    1TCM    cl2 1166   4.071   3.856   4.095
    1TCM     h1 1167   3.896   3.951   4.227
    1TCM    cl3 1168   3.866   4.042   4.008
    1TCM     c1 1169   2.024   1.368   2.632
    1TCM    cl1 1170   1.933   1.512   2.683
    1TCM    cl2 1171   1.938   1.222   2.686
    1TCM     h1 1172   2.033   1.367   2.522
    1TCM    cl3 1173   2.186   1.372   2.705
    1TCM     c1 1174   2.681   0.473   0.150
    1TCM    cl1 1175   2.561   0.495   0.021
    1TCM    cl2 1176   2.608   0.512   0.307
    1TCM     h1 1177   2.716   0.368   0.150
    1TCM    cl3 1178   2.820   0.581   0.121
    1TCM     c1 1179   2.515   2.964   1.958
    1TCM    cl1 1180   2.533   2.819   1.856
    1TCM    cl2 1181   2.532   2.919   2.129
    1TCM     h1 1182   2.594   3.037   1.931
    1TCM    cl3 1183   2.355   3.036   1.930
    1TCM     c1 1184   1.139   4.914   1.681
    1TCM    cl1 1185   1.152   5.021   1.822
    1TCM    cl2 1186   1.099   5.011   1.537
    1TCM     h1 1187   1.235   4.862   1.665
    1TCM    cl3 1188   1.010   4.795   1.708
    1TCM     c1 1189   4.248   2.317   4.422
    1TCM    cl1 1190   4.339   2.361   4.276
    1TCM    cl2 1191   4.187   2.465   4.500
    1TCM     h1 1192   4.162   2.252   4.394
    1TCM    cl3 1193   4.355   2.231   4.535
    1TCM     c1 1194   1.947   5.076   5.129
    1TCM    cl1 1195   2.035   4.940   5.055
    1TCM    cl2 1196   1.817   5.012   5.233
    1TCM     h1 1197   2.017   5.136   5.190
    1TCM    cl3 1198   1.877   5.178   5.002
    1TCM     c1 1199   3.419   3.894   0.637
    1TCM    cl1 1200   3.467   4.046   0.558
    1TCM    cl2 1201   3.558   3.827   0.726
    1TCM     h1 1202   3.336   3.914   0.707
    1TCM    cl3 1203   3.366   3.777   0.514
    1TCM     c1 1204   4.664   0.984   1.073
    1TCM    cl1 1205   4.638   0.817   1.127
    1TCM    cl2 1206   4.770   1.069   1.189
    1TCM     h1 1207   4.713   0.983   0.973
    1TCM    cl3 1208   4.508   1.069   1.062
    1TCM     c1 1209   4.167   1.868   1.962
    1TCM    cl1 1210   4.023   1.922   2.051
    1TCM    cl2 1211   4.151   1.915   1.791
    1TCM     h1 1212   4.257   1.916   2.005
    1TCM    cl3 1213   4.182   1.692   1.974
    1TCM     c1 1214   4.131   1.736   0.109
    1TCM    cl1 1215   4.186   1.886   0.188
    1TCM    cl2 1216   3.984   1.678   0.189
    1TCM     h1 1217   4.110   1.757   0.002
    1TCM    cl3 1218   4.259   1.612   0.121
    1TCM     c1 1219   3.996   3.232   4.804
    1TCM    cl1 1220   4.084   3.283   4.659
    1TCM    cl2 1221   3.883   3.360   4.854
    1TCM     h1 1222   3.938   3.139   4.782
    1TCM    cl3 1223   4.110   3.200   4.936
    1TCM     c1 1224   1.267   0.544   3.760
    1TCM    cl1 1225   1.189   0.457   3.626
    1TCM    cl2 1226   1.367   0.677   3.694
    1TCM     h1 1227   1.190   0.586   3.827
    1TCM    cl3 1228   1.371   0.432   3.851
    1TCM     c1 1229   3.569   0.366   1.449
    1TCM    cl1 1230   3.711   0.423   1.541
    1TCM    cl2 1231   3.518   0.207   1.510
    1TCM     h1 1232   3.486   0.439   1.461
    1TCM    cl3 1233   3.612   0.352   1.277
    1TCM     c1 1234   1.205   0.451   4.206
    1TCM    cl1 1235   1.121   0.553   4.326
    1TCM    cl2 1236   1.377   0.439   4.249
    1TCM     h1 1237   1.160   0.350   4.206
    1TCM    cl3 1238   1.190   0.524   4.045
    1TCM     c1 1239   3.162   5.235   3.643
    1TCM    cl1 1240   3.241   5.149   3.508
    1TCM    cl2 1241   3.034   5.340   3.579
    1TCM     h1 1242   3.117   5.161   3.713
    1TCM    cl3 1243   3.282   5.333   3.729
    1TCM     c1 1244   2.355   1.128   4.222
    1TCM    cl1 1245   2.201   1.144   4.310
    1TCM    cl2 1246   2.338   1.006   4.094
    1TCM     h1 1247   2.381   1.226   4.176
    1TCM    cl3 1248   2.484   1.079   4.334
    1TCM     c1 1249   3.312   0.770   0.355
    1TCM    cl1 1250   3.331   0.620   0.449
    1TCM    cl2 1251   3.375   0.745   0.190
    1TCM     h1 1252   3.205   0.797   0.350
    1TCM    cl3 1253   3.404   0.901   0.433
    1TCM     c1 1254   1.767   2.157   2.690
    1TCM    cl1 1255   1.888   2.155   2.821
    1TCM    cl2 1256   1.819   2.270   2.563
    1TCM     h1 1257   1.758   2.055   2.647
    1TCM    cl3 1258   1.610   2.209   2.755
    1TCM     c1 1259   4.975   4.018   4.692
    1TCM    cl1 1260   5.072   4.162   4.731
    1TCM    cl2 1261   4.843   4.002   4.811
    1TCM     h1 1262   4.932   4.029   4.590
    1TCM    cl3 1263   5.078   3.873   4.698
    1TCM     c1 1264   2.776   5.261   3.696
    1TCM    cl1 1265   2.617   5.340   3.695
    1TCM    cl2 1266   2.881   5.340   3.816
    1TCM     h1 1267   2.764   5.154   3.722
    1TCM    cl3 1268   2.850   5.274   3.535
    1TCM     c1 1269   4.724   0.997   3.658
    1TCM    cl1 1270   4.638   0.904   3.783
    1TCM    cl2 1271   4.669   0.945   3.498
    1TCM     h1 1272   4.703   1.105   3.672
    1TCM    cl3 1273   4.899   0.969   3.673
    1TCM     c1 1274   5.102   4.841   0.644
    1TCM    cl1 1275   5.115   4.949   0.504
    1TCM    cl2 1276   5.086   4.938   0.792
    1TCM     h1 1277   5.013   4.776   0.633
    1TCM    cl3 1278   5.248   4.741   0.655
    1TCM     c1 1279   0.680   3.390   0.278
    1TCM    cl1 1280   0.671   3.397   0.101
    1TCM    cl2 1281   0.543   3.479   0.348
    1TCM     h1 1282   0.677   3.285   0.312
    1TCM    cl3 1283   0.832   3.465   0.333
    1TCM     c1 1284   1.212   2.483   4.765
    1TCM    cl1 1285   1.325   2.346   4.769
    1TCM    cl2 1286   1.275   2.615   4.867
    1TCM     h1 1287   1.201   2.519   4.661
    1TCM    cl3 1288   1.053   2.431   4.827
    1TCM     c1 1289   1.124   3.143   1.656
    1TCM    cl1 1290   1.038   3.292   1.701
    1TCM    cl2 1291   1.298   3.178   1.643
    1TCM     h1 1292   1.108   3.066   1.734
    1TCM    cl3 1293   1.063   3.085   1.500
    1TCM     c1 1294   4.271   1.671   2.614
    1TCM    cl1 1295   4.133   1.568   2.658
    1TCM    cl2 1296   4.319   1.638   2.446
    1TCM     h1 1297   4.243   1.778   2.624
    1TCM    cl3 1298   4.408   1.635   2.722
    1TCM     c1 1299   2.159   0.604   4.359
    1TCM    cl1 1300   2.324   0.575   4.419
    1TCM    cl2 1301   2.108   0.467   4.259
    1TCM     h1 1302   2.090   0.615   4.445
    1TCM    cl3 1303   2.157   0.753   4.261
    1TCM     c1 1304   0.361   0.185   2.650
    1TCM    cl1 1305   0.329   0.041   2.749
    1TCM    cl2 1306   0.318   0.152   2.481
    1TCM     h1 1307   0.301   0.271   2.688
    1TCM    cl3 1308   0.534   0.226   2.660
    1TCM     c1 1309   1.847   4.532   4.450
    1TCM    cl1 1310   1.909   4.684   4.382
    1TCM    cl2 1311   1.863   4.535   4.628
    1TCM     h1 1312   1.740   4.519   4.423
    1TCM    cl3 1313   1.942   4.396   4.385
    1TCM     c1 1314   4.252   4.605   1.532
    1TCM    cl1 1315   4.156   4.481   1.448
    1TCM    cl2 1316   4.323   4.716   1.413
    1TCM     h1 1317   4.186   4.662   1.601
    1TCM    cl3 1318   4.382   4.528   1.625
    1TCM     c1 1319   1.206   2.407   0.501
    1TCM    cl1 1320   1.105   2.372   0.643
    1TCM    cl2 1321   1.374   2.360   0.534
    1TCM     h1 1322   1.168   2.350   0.414
    1TCM    cl3 1323   1.199   2.581   0.465
    1TCM     c1 1324   1.348   0.881   4.239
    1TCM    cl1 1325   1.336   0.737   4.134
    1TCM    cl2 1326   1.223   0.872   4.365
    1TCM     h1 1327   1.448   0.884   4.286
    1TCM    cl3 1328   1.324   1.028   4.142
    1TCM     c1 1329   1.892   1.543   0.893
    1TCM    cl1 1330   1.945   1.515   0.725
    1TCM    cl2 1331   1.892   1.388   0.980
    1TCM     h1 1332   1.962   1.613   0.942
    1TCM    cl3 1333   1.728   1.611   0.893
    1TCM     c1 1334   1.251   4.630   1.419
    1TCM    cl1 1335   1.379   4.726   1.497
    1TCM    cl2 1336   1.243   4.670   1.246
    1TCM     h1 1337   1.273   4.522   1.431
    1TCM    cl3 1338   1.094   4.667   1.495
    1TCM     c1 1339   5.054   2.764   2.615
    1TCM    cl1 1340   4.917   2.753   2.728
    1TCM    cl2 1341   4.993   2.797   2.451
    1TCM     h1 1342   5.121   2.847   2.647
    1TCM    cl3 1343   5.144   2.611   2.616
    1TCM     c1 1344   1.069   2.468   0.161
    1TCM    cl1 1345   1.238   2.460   0.109
    1TCM    cl2 1346   0.964   2.482   0.018
    1TCM     h1 1347   1.043   2.376   0.216
    1TCM    cl3 1348   1.045   2.610   0.265
    1TCM     c1 1349   3.653   4.782   3.458
    1TCM    cl1 1350   3.695   4.618   3.515
    1TCM    cl2 1351   3.592   4.878   3.594
    1TCM     h1 1352   3.743   4.830   3.415
    1TCM    cl3 1353   3.527   4.770   3.332
    1TCM     c1 1354   2.165   1.061   2.434
    1TCM    cl1 1355   2.005   1.132   2.403
    1TCM    cl2 1356   2.275   1.187   2.494
    1TCM     h1 1357   2.156   0.981   2.510
    1TCM    cl3 1358   2.230   0.993   2.283
    1TCM     c1 1359   0.711   4.579   4.508
    1TCM    cl1 1360   0.747   4.702   4.385
    1TCM    cl2 1361   0.631   4.441   4.431
    1TCM     h1 1362   0.806   4.546   4.556
    1TCM    cl3 1363   0.604   4.649   4.632
    1TCM     c1 1364   2.043   4.850   3.930
    1TCM    cl1 1365   2.161   4.974   3.977
    1TCM    cl2 1366   2.082   4.697   4.010
    1TCM     h1 1367   1.941   4.883   3.961
    1TCM    cl3 1368   2.047   4.828   3.754
    1TCM     c1 1369   1.112   0.186   1.270
    1TCM    cl1 1370   1.085   0.031   1.189
    1TCM    cl2 1371   0.956   0.260   1.311
    1TCM     h1 1372   1.171   0.170   1.363
    1TCM    cl3 1373   1.202   0.295   1.161
    1TCM     c1 1374   2.525   3.095   1.114
    1TCM    cl1 1375   2.558   3.254   1.041
    1TCM    cl2 1376   2.678   3.022   1.170
    1TCM     h1 1377   2.456   3.107   1.200
    1TCM    cl3 1378   2.450   2.988   0.992
    1TCM     c1 1379   0.963   3.711   1.150
    1TCM    cl1 1380   1.082   3.637   1.260
    1TCM    cl2 1381   0.813   3.745   1.239
    1TCM     h1 1382   1.005   3.805   1.109
    1TCM    cl3 1383   0.929   3.599   1.016
    1TCM     c1 1384   3.757   2.376   2.109
    1TCM    cl1 1385   3.804   2.215   2.168
    1TCM    cl2 1386   3.664   2.359   1.958
    1TCM     h1 1387   3.695   2.426   2.186
    1TCM    cl3 1388   3.903   2.473   2.078
    1TCM     c1 1389   2.780   2.489   1.210
    1TCM    cl1 1390   2.616   2.520   1.147
    1TCM    cl2 1391   2.776   2.486   1.387
    1TCM     h1 1392   2.816   2.392   1.171
    1TCM    cl3 1393   2.888   2.619   1.155
    1TCM     c1 1394   2.742   3.506   4.287
    1TCM    cl1 1395   2.820   3.517   4.446
    1TCM    cl2 1396   2.734   3.335   4.238
    1TCM     h1 1397   2.639   3.547   4.293
    1TCM    cl3 1398   2.837   3.597   4.168
    1TCM     c1 1399   1.192   2.828   4.166
    1TCM    cl1 1400   1.278   2.675   4.193
    1TCM    cl2 1401   1.221   2.938   4.303
    1TCM     h1 1402   1.228   2.875   4.072
    1TCM    cl3 1403   1.017   2.796   4.152
    1TCM     c1 1404   1.534   2.944   3.472
    1TCM    cl1 1405   1.621   2.821   3.376
    1TCM    cl2 1406   1.601   3.105   3.436
    1TCM     h1 1407   1.426   2.942   3.445
    1TCM    cl3 1408   1.554   2.908   3.645
    1TCM     c1 1409   3.803   4.795   3.894
    1TCM    cl1 1410   3.765   4.918   3.772
    1TCM    cl2 1411   3.667   4.681   3.909
    1TCM     h1 1412   3.894   4.740   3.863
    1TCM    cl3 1413   3.832   4.874   4.051
    1TCM     c1 1414   2.201   1.888   3.098
    1TCM    cl1 1415   2.326   1.952   3.208
    1TCM    cl2 1416   2.240   1.934   2.931
    1TCM     h1 1417   2.199   1.777   3.106
    1TCM    cl3 1418   2.042   1.954   3.142
    1TCM     c1 1419   1.452   2.317   5.083
    1TCM    cl1 1420   1.485   2.249   4.922
    1TCM    cl2 1421   1.299   2.252   5.145
    1TCM     h1 1422   1.535   2.289   5.152
    1TCM    cl3 1423   1.442   2.494   5.072
    1TCM     c1 1424   0.237   1.896   3.037
    1TCM    cl1 1425   0.384   1.964   2.964
    1TCM    cl2 1426   0.176   2.009   3.160
    1TCM     h1 1427   0.160   1.882   2.959
    1TCM    cl3 1428   0.275   1.740   3.114
    1TCM     c1 1429   3.655   0.217   4.951
    1TCM    cl1 1430   3.512   0.154   5.037
    1TCM    cl2 1431   3.746   0.325   5.058
    1TCM     h1 1432   3.719   0.133   4.919
    1TCM    cl3 1433   3.602   0.308   4.807
    1TCM     c1 1434   1.733   2.825   2.131
    1TCM    cl1 1435   1.629   2.884   2.263
    1TCM    cl2 1436   1.652   2.692   2.046
    1TCM     h1 1437   1.753   2.908   2.060
    1TCM    cl3 1438   1.887   2.767   2.199
    1TCM     c1 1439   4.198   0.636   4.323
    1TCM    cl1 1440   4.214   0.616   4.147
    1TCM    cl2 1441   4.045   0.718   4.359
    1TCM     h1 1442   4.199   0.536   4.371
    1TCM    cl3 1443   4.334   0.733   4.384
    1TCM     c1 1444   0.231   3.827   1.520
    1TCM    cl1 1445   0.330   3.769   1.656
    1TCM    cl2 1446   0.321   3.808   1.368
    1TCM     h1 1447   0.137   3.768   1.515
    1TCM    cl3 1448   0.192   3.999   1.545
    1TCM     c1 1449   0.092   1.702   0.876
    1TCM    cl1 1450   0.212   1.571   0.878
    1TCM    cl2 1451   0.159   1.841   0.787
    1TCM     h1 1452   0.000   1.666   0.825
    1TCM    cl3 1453   0.054   1.751   1.042
    1TCM     c1 1454   3.751   2.586   2.831
    1TCM    cl1 1455   3.621   2.671   2.918
    1TCM    cl2 1456   3.744   2.627   2.658
    1TCM     h1 1457   3.849   2.618   2.872
    1TCM    cl3 1458   3.732   2.411   2.852
    1TCM     c1 1459   0.253   4.851   2.842
    1TCM    cl1 1460   0.263   4.846   3.020
    1TCM    cl2 1461   0.082   4.850   2.793
    1TCM     h1 1462   0.301   4.944   2.805
    1TCM    cl3 1463   0.335   4.710   2.774
    1TCM     c1 1464   0.180   4.641   2.498
    1TCM    cl1 1465   0.036   4.702   2.414
    1TCM    cl2 1466   0.144   4.620   2.671
    1TCM     h1 1467   0.209   4.543   2.454
    1TCM    cl3 1468   0.314   4.756   2.479
    1TCM     c1 1469   0.509   2.624   2.425
    1TCM    cl1 1470   0.664   2.593   2.344
    1TCM    cl2 1471   0.495   2.798   2.461
    1TCM     h1 1472   0.426   2.593   2.359
    1TCM    cl3 1473   0.501   2.532   2.577
    1TCM     c1 1474   0.617   4.023   2.876
    1TCM    cl1 1475   0.513   4.020   2.732
    1TCM    cl2 1476   0.654   3.856   2.925
    1TCM     h1 1477   0.711   4.077   2.852
    1TCM    cl3 1478   0.533   4.107   3.008
    1TCM     c1 1479   2.343   0.736   4.115
    1TCM    cl1 1480   2.356   0.769   4.290
    1TCM    cl2 1481   2.478   0.813   4.030
    1TCM     h1 1482   2.346   0.626   4.098
    1TCM    cl3 1483   2.189   0.801   4.055
    1TCM     c1 1484   1.755   1.893   2.196
    1TCM    cl1 1485   1.832   1.734   2.177
    1TCM    cl2 1486   1.724   1.924   2.368
    1TCM     h1 1487   1.822   1.972   2.155
    1TCM    cl3 1488   1.601   1.895   2.107
    1TCM     c1 1489   0.967   3.278   2.363
    1TCM    cl1 1490   1.054   3.180   2.483
    1TCM    cl2 1491   0.977   3.450   2.408
    1TCM     h1 1492   1.013   3.264   2.263
    1TCM    cl3 1493   0.797   3.228   2.358
    1TCM     c1 1494   4.734   3.781   3.124
    1TCM    cl1 1495   4.671   3.752   3.287
    1TCM    cl2 1496   4.653   3.672   3.009
    1TCM     h1 1497   4.715   3.886   3.095
    1TCM    cl3 1498   4.909   3.750   3.121
    1TCM     c1 1499   4.260   1.016   4.537
    1TCM    cl1 1500   4.163   1.113   4.651
    1TCM    cl2 1501   4.227   1.068   4.371
    1TCM     h1 1502   4.368   1.030   4.560
    1TCM    cl3 1503   4.218   0.844   4.555
    1TCM     c1 1504   0.166   3.101   4.641
    1TCM    cl1 1505   0.180   3.274   4.680
    1TCM    cl2 1506   0.146   3.082   4.465
    1TCM     h1 1507   0.259   3.049   4.674
    1TCM    cl3 1508   0.026   3.033   4.725
    1TCM     c1 1509   1.123   1.876   0.244
    1TCM    cl1 1510   1.176   1.718   0.307
    1TCM    cl2 1511   1.252   1.947   0.145
    1TCM     h1 1512   1.032   1.863   0.182
    1TCM    cl3 1513   1.086   1.985   0.380
    1TCM     c1 1514   1.935   2.145   1.785
    1TCM    cl1 1515   2.002   2.141   1.950
    1TCM    cl2 1516   1.871   1.984   1.743
    1TCM     h1 1517   1.853   2.220   1.780
    1TCM    cl3 1518   2.062   2.190   1.670
    1TCM     c1 1519   2.530   4.464   3.855
    1TCM    cl1 1520   2.438   4.369   3.974
    1TCM    cl2 1521   2.693   4.396   3.839
    1TCM     h1 1522   2.478   4.459   3.756
    1TCM    cl3 1523   2.540   4.633   3.909
    1TCM     c1 1524   3.207   0.549   1.738
    1TCM    cl1 1525   3.204   0.393   1.825
    1TCM    cl2 1526   3.350   0.554   1.632
    1TCM     h1 1527   3.115   0.559   1.676
    1TCM    cl3 1528   3.215   0.682   1.855
    1TCM     c1 1529   2.456   4.848   4.901
    1TCM    cl1 1530   2.589   4.831   4.784
    1TCM    cl2 1531   2.501   4.966   5.026
    1TCM     h1 1532   2.364   4.883   4.848
    1TCM    cl3 1533   2.424   4.690   4.977
    1TCM     c1 1534   2.618   1.920   3.408
    1TCM    cl1 1535   2.764   1.995   3.477
    1TCM    cl2 1536   2.488   1.922   3.528
    1TCM     h1 1537   2.587   1.977   3.318
    1TCM    cl3 1538   2.655   1.752   3.362
    1TCM     c1 1539   0.881   1.807   5.014
    1TCM    cl1 1540   0.876   1.974   5.074
    1TCM    cl2 1541   0.838   1.695   5.145
    1TCM     h1 1542   0.809   1.795   4.930
    1TCM    cl3 1543   1.046   1.770   4.957
    1TCM     c1 1544   3.150   1.144   3.125
    1TCM    cl1 1545   3.266   1.196   3.249
    1TCM    cl2 1546   3.226   1.156   2.964
    1TCM     h1 1547   3.120   1.039   3.144
    1TCM    cl3 1548   3.007   1.250   3.130
    1TCM     c1 1549   3.723   0.765   1.670
    1TCM    cl1 1550   3.615   0.906   1.666
    1TCM    cl2 1551   3.815   0.766   1.822
    1TCM     h1 1552   3.663   0.672   1.663
    1TCM    cl3 1553   3.836   0.773   1.533
    1TCM     c1 1554   0.497   0.419   0.591
    1TCM    cl1 1555   0.571   0.355   0.740
    1TCM    cl2 1556   0.396   0.294   0.516
    1TCM     h1 1557   0.434   0.507   0.616
    1TCM    cl3 1558   0.625   0.468   0.478
    1TCM     c1 1559   0.871   3.846   3.736
    1TCM    cl1 1560   0.900   3.682   3.675
    1TCM    cl2 1561   1.004   3.953   3.683
    1TCM     h1 1562   0.775   3.885   3.695
    1TCM    cl3 1563   0.864   3.844   3.914
    1TCM     c1 1564   5.224   4.239   4.420
    1TCM    cl1 1565   5.268   4.310   4.577
    1TCM    cl2 1566   5.077   4.318   4.359
    1TCM     h1 1567   5.307   4.254   4.348
    1TCM    cl3 1568   5.193   4.065   4.440
    1TCM     c1 1569   3.759   1.795   0.932
    1TCM    cl1 1570   3.780   1.684   1.069
    1TCM    cl2 1571   3.893   1.912   0.930
    1TCM     h1 1572   3.759   1.737   0.837
    1TCM    cl3 1573   3.605   1.882   0.948
    1TCM     c1 1574   3.453   4.484   3.728
    1TCM    cl1 1575   3.420   4.641   3.652
    1TCM    cl2 1576   3.624   4.476   3.777
    1TCM     h1 1577   3.389   4.472   3.818
    1TCM    cl3 1578   3.419   4.353   3.613
    1TCM     c1 1579   1.696   4.732   3.240
    1TCM    cl1 1580   1.804   4.808   3.120
    1TCM    cl2 1581   1.640   4.856   3.355
    1TCM     h1 1582   1.609   4.688   3.188
    1TCM    cl3 1583   1.785   4.606   3.328
    1TCM     c1 1584   2.605   0.527   2.624
    1TCM    cl1 1585   2.666   0.677   2.699
    1TCM    cl2 1586   2.512   0.435   2.744
    1TCM     h1 1587   2.540   0.553   2.538
    1TCM    cl3 1588   2.742   0.430   2.567
    1TCM     c1 1589   3.338   2.138   4.240
    1TCM    cl1 1590   3.338   1.981   4.156
    1TCM    cl2 1591   3.173   2.177   4.293
    1TCM     h1 1592   3.405   2.132   4.328
    1TCM    cl3 1593   3.396   2.265   4.130
    1TCM     c1 1594   2.943   2.436   0.610
    1TCM    cl1 1595   2.850   2.549   0.712
    1TCM    cl2 1596   2.955   2.501   0.445
    1TCM     h1 1597   3.044   2.423   0.653
    1TCM    cl3 1598   2.860   2.279   0.606
    1TCM     c1 1599   1.649   0.524   4.985
    1TCM    cl1 1600   1.534   0.646   4.926
    1TCM    cl2 1601   1.588   0.453   5.137
    1TCM     h1 1602   1.661   0.444   4.909
    1TCM    cl3 1603   1.807   0.600   5.015
    1TCM     c1 1604   3.803   1.328   2.440
    1TCM    cl1 1605   3.963   1.389   2.484
    1TCM    cl2 1606   3.819   1.206   2.311
    1TCM     h1 1607   3.755   1.281   2.528
    1TCM    cl3 1608   3.701   1.462   2.382
    1TCM     c1 1609   5.012   3.201   0.312
    1TCM    cl1 1610   4.863   3.296   0.300
    1TCM    cl2 1611   5.095   3.201   0.154
    1TCM     h1 1612   5.078   3.245   0.389
    1TCM    cl3 1613   4.972   3.034   0.358
    1TCM     c1 1614   0.558   1.660   4.036
    1TCM    cl1 1615   0.694   1.767   3.994
    1TCM    cl2 1616   0.508   1.692   4.204
    1TCM     h1 1617   0.473   1.679   3.968
    1TCM    cl3 1618   0.610   1.491   4.021
    1TCM     c1 1619   0.958   0.778   0.442
    1TCM    cl1 1620   0.780   0.787   0.445
    1TCM    cl2 1621   1.015   0.693   0.588
    1TCM     h1 1622   0.990   0.723   0.352
    1TCM    cl3 1623   1.026   0.942   0.440
    1TCM     c1 1624   3.535   4.924   4.905
    1TCM    cl1 1625   3.641   4.991   5.031
    1TCM    cl2 1626   3.504   4.752   4.938
    1TCM     h1 1627   3.439   4.979   4.904
    1TCM    cl3 1628   3.614   4.940   4.746
    1TCM     c1 1629   3.123   3.937   3.645
    1TCM    cl1 1630   3.152   3.828   3.508
    1TCM    cl2 1631   3.265   3.935   3.753
    1TCM     h1 1632   3.107   4.040   3.608
    1TCM    cl3 1633   2.980   3.883   3.735
    1TCM     c1 1634   2.866   4.332   3.329
    1TCM    cl1 1635   2.790   4.244   3.194
    1TCM    cl2 1636   2.743   4.371   3.451
    1TCM     h1 1637   2.946   4.270   3.374
    1TCM    cl3 1638   2.938   4.483   3.267
    1TCM     c1 1639   3.488   1.374   2.713
    1TCM    cl1 1640   3.574   1.228   2.660
    1TCM    cl2 1641   3.408   1.450   2.574
    1TCM     h1 1642   3.412   1.346   2.789
    1TCM    cl3 1643   3.604   1.489   2.784
    1TCM     c1 1644   4.563   2.082   5.156
    1TCM    cl1 1645   4.684   2.211   5.177
    1TCM    cl2 1646   4.634   1.927   5.206
    1TCM     h1 1647   4.474   2.104   5.219
    1TCM    cl3 1648   4.514   2.074   4.985
    1TCM     c1 1649   3.209   2.202   0.781
    1TCM    cl1 1650   3.080   2.254   0.891
    1TCM    cl2 1651   3.297   2.345   0.720
    1TCM     h1 1652   3.280   2.136   0.835
    1TCM    cl3 1653   3.138   2.114   0.644
    1TCM     c1 1654   4.579   4.810   1.584
    1TCM    cl1 1655   4.529   4.674   1.482
    1TCM    cl2 1656   4.609   4.752   1.750
    1TCM     h1 1657   4.672   4.855   1.543
    1TCM    cl3 1658   4.450   4.932   1.587
    1TCM     c1 1659   4.665   0.740   3.254
    1TCM    cl1 1660   4.611   0.645   3.114
    1TCM    cl2 1661   4.643   0.644   3.402
    1TCM     h1 1662   4.773   0.766   3.242
    1TCM    cl3 1663   4.570   0.890   3.265
    1TCM     c1 1664   3.568   2.199   0.436
    1TCM    cl1 1665   3.403   2.234   0.492
    1TCM    cl2 1666   3.675   2.178   0.577
    1TCM     h1 1667   3.568   2.105   0.376
    1TCM    cl3 1668   3.627   2.333   0.336
    1TCM     c1 1669   1.763   0.146   2.726
    1TCM    cl1 1670   1.686   0.301   2.686
    1TCM    cl2 1671   1.747   0.114   2.900
    1TCM     h1 1672   1.714   0.065   2.668
    1TCM    cl3 1673   1.936   0.153   2.683
    1TCM     c1 1674   1.281   4.639   5.101
    1TCM    cl1 1675   1.345   4.623   4.936
    1TCM    cl2 1676   1.228   4.807   5.127
    1TCM     h1 1677   1.194   4.570   5.114
    1TCM    cl3 1678   1.407   4.597   5.218
    1TCM     c1 1679   5.121   0.296   4.509
    1TCM    cl1 1680   5.275   0.274   4.423
    1TCM    cl2 1681   5.149   0.288   4.684
    1TCM     h1 1682   5.078   0.395   4.483
    1TCM    cl3 1683   5.007   0.168   4.461
    1TCM     c1 1684   4.334   4.855   0.263
    1TCM    cl1 1685   4.261   5.010   0.213
    1TCM    cl2 1686   4.367   4.757   0.118
    1TCM     h1 1687   4.430   4.875   0.316
    1TCM    cl3 1688   4.223   4.768   0.370
    1TCM     c1 1689   0.678   2.626   3.961
    1TCM    cl1 1690   0.845   2.615   3.902
    1TCM    cl2 1691   0.576   2.508   3.876
    1TCM     h1 1692   0.676   2.605   4.070
    1TCM    cl3 1693   0.616   2.790   3.932
    1TCM     c1 1694   4.048   1.367   1.649
    1TCM    cl1 1695   4.052   1.513   1.749
    1TCM    cl2 1696   4.139   1.237   1.730
    1TCM     h1 1697   3.942   1.334   1.635
    1TCM    cl3 1698   4.121   1.400   1.491
    1TCM     c1 1699   1.431   4.888   0.396
    1TCM    cl1 1700   1.484   4.763   0.511
    1TCM    cl2 1701   1.356   4.810   0.255
    1TCM     h1 1702   1.358   4.955   0.445
    1TCM    cl3 1703   1.572   4.983   0.343
    1TCM     c1 1704   3.302   1.066   4.049
    1TCM    cl1 1705   3.432   1.170   3.987
    1TCM    cl2 1706   3.192   1.163   4.149
    1TCM     h1 1707   3.246   1.022   3.965
    1TCM    cl3 1708   3.372   0.936   4.148
    1TCM     c1 1709   4.658   3.545   3.698
    1TCM    cl1 1710   4.535   3.673   3.690
    1TCM    cl2 1711   4.579   3.387   3.716
    1TCM     h1 1712   4.719   3.546   3.605
    1TCM    cl3 1713   4.764   3.575   3.838
    1TCM     c1 1714   1.369   0.875   0.633
    1TCM    cl1 1715   1.488   0.759   0.696
    1TCM    cl2 1716   1.249   0.789   0.534
    1TCM     h1 1717   1.318   0.925   0.717
    1TCM    cl3 1718   1.452   0.996   0.533
    1TCM     c1 1719   1.321   2.033   0.998
    1TCM    cl1 1720   1.455   2.046   1.115
    1TCM    cl2 1721   1.189   1.939   1.071
    1TCM     h1 1722   1.284   2.135   0.973
    1TCM    cl3 1723   1.378   1.951   0.851
    1TCM     c1 1724   3.481   3.059   2.445
    1TCM    cl1 1725   3.362   3.182   2.394
    1TCM    cl2 1726   3.491   3.058   2.622
    1TCM     h1 1727   3.449   2.959   2.409
    1TCM    cl3 1728   3.640   3.099   2.376
    1TCM     c1 1729   3.238   3.568   2.841
    1TCM    cl1 1730   3.403   3.631   2.816
    1TCM    cl2 1731   3.203   3.563   3.016
    1TCM     h1 1732   3.165   3.633   2.790
    1TCM    cl3 1733   3.227   3.403   2.774
    1TCM     c1 1734   1.340   1.178   0.308
    1TCM    cl1 1735   1.270   1.048   0.407
    1TCM    cl2 1736   1.515   1.187   0.337
    1TCM     h1 1737   1.322   1.157   0.200
    1TCM    cl3 1738   1.265   1.333   0.351
    1TCM     c1 1739   3.058   0.248   0.882
    1TCM    cl1 1740   3.212   0.219   0.799
    1TCM    cl2 1741   3.074   0.206   1.054
    1TCM     h1 1742   3.030   0.356   0.872
    1TCM    cl3 1743   2.931   0.148   0.808
    1TCM     c1 1744   2.161   3.568   1.183
    1TCM    cl1 1745   1.986   3.539   1.188
    1TCM    cl2 1746   2.193   3.743   1.188
    1TCM     h1 1747   2.210   3.520   1.270
    1TCM    cl3 1748   2.228   3.500   1.033
    1TCM     c1 1749   2.972   3.804   2.011
    1TCM    cl1 1750   2.799   3.770   1.985
    1TCM    cl2 1751   3.045   3.857   1.858
    1TCM     h1 1752   2.983   3.885   2.087
    1TCM    cl3 1753   3.053   3.657   2.068
    1TCM     c1 1754   4.628   0.505   4.138
    1TCM    cl1 1755   4.582   0.370   4.031
    1TCM    cl2 1756   4.714   0.629   4.045
    1TCM     h1 1757   4.536   0.549   4.183
    1TCM    cl3 1758   4.734   0.444   4.268
    1TCM     c1 1759   4.655   2.999   4.798
    1TCM    cl1 1760   4.622   3.122   4.922
    1TCM    cl2 1761   4.830   2.990   4.769
    1TCM     h1 1762   4.618   2.901   4.833
    1TCM    cl3 1763   4.572   3.044   4.647
    1TCM     c1 1764   1.088   4.670   2.393
    1TCM    cl1 1765   1.218   4.674   2.272
    1TCM    cl2 1766   0.939   4.737   2.322
    1TCM     h1 1767   1.070   4.565   2.424
    1TCM    cl3 1768   1.135   4.766   2.534
    1TCM     c1 1769   5.143   0.239   0.369
    1TCM    cl1 1770   4.973   0.234   0.422
    1TCM    cl2 1771   5.149   0.246   0.191
    1TCM     h1 1772   5.192   0.330   0.411
    1TCM    cl3 1773   5.228   0.094   0.426
    1TCM     c1 1774   4.582   0.458   3.666
    1TCM    cl1 1775   4.484   0.576   3.576
    1TCM    cl2 1776   4.520   0.445   3.832
    1TCM     h1 1777   4.575   0.359   3.616
    1TCM    cl3 1778   4.751   0.512   3.669
    1TCM     c1 1779   3.620   5.112   4.459
    1TCM    cl1 1780   3.724   5.254   4.432
    1TCM    cl2 1781   3.670   4.981   4.350
    1TCM     h1 1782   3.630   5.078   4.564
    1TCM    cl3 1783   3.451   5.155   4.427
    1TCM     c1 1784   1.446   1.913   1.506
    1TCM    cl1 1785   1.303   1.895   1.401
    1TCM    cl2 1786   1.504   1.752   1.554
    1TCM     h1 1787   1.526   1.966   1.451
    1TCM    cl3 1788   1.401   2.006   1.651
    1TCM     c1 1789   5.273   0.202   1.430
    1TCM    cl1 1790   5.340   0.115   1.290
    1TCM    cl2 1791   5.112   0.135   1.469
    1TCM     h1 1792   5.340   0.189   1.517
    1TCM    cl3 1793   5.257   0.375   1.391
    1TCM     c1 1794   3.287   1.793   2.768
    1TCM    cl1 1795   3.411   1.875   2.670
    1TCM    cl2 1796   3.346   1.774   2.934
    1TCM     h1 1797   3.194   1.854   2.769
    1TCM    cl3 1798   3.252   1.633   2.698
    1TCM     c1 1799   3.638   0.384   0.533
    1TCM    cl1 1800   3.813   0.417   0.539
    1TCM    cl2 1801   3.582   0.396   0.365
    1TCM     h1 1802   3.618   0.282   0.572
    1TCM    cl3 1803   3.552   0.503   0.633
    1TCM     c1 1804   2.912   0.602   2.636
    1TCM    cl1 1805   2.797   0.636   2.505
    1TCM    cl2 1806   2.917   0.427   2.666
    1TCM     h1 1807   3.013   0.638   2.608
    1TCM    cl3 1808   2.859   0.685   2.784
    1TCM     c1 1809   2.820   3.816   1.329
    1TCM    cl1 1810   2.792   3.784   1.156
    1TCM    cl2 1811   2.729   3.697   1.425
    1TCM     h1 1812   2.928   3.806   1.351
    1TCM    cl3 1813   2.765   3.980   1.369
    1TCM     c1 1814   2.373   2.560   4.428
    1TCM    cl1 1815   2.480   2.419   4.448
    1TCM    cl2 1816   2.361   2.601   4.255
    1TCM     h1 1817   2.272   2.536   4.467
    1TCM    cl3 1818   2.440   2.699   4.517
    1TCM     c1 1819   2.656   0.819   3.834
    1TCM    cl1 1820   2.766   0.691   3.779
    1TCM    cl2 1821   2.489   0.760   3.830
    1TCM     h1 1822   2.682   0.848   3.938
    1TCM    cl3 1823   2.671   0.960   3.727
    1TCM     c1 1824   2.588   0.486   1.642
    1TCM    cl1 1825   2.428   0.471   1.565
    1TCM    cl2 1826   2.695   0.360   1.578
    1TCM     h1 1827   2.630   0.586   1.620
    1TCM    cl3 1828   2.571   0.466   1.818
    1TCM     c1 1829   2.448   3.631   0.128
    1TCM    cl1 1830   2.538   3.495   0.057
    1TCM    cl2 1831   2.499   3.654   0.297
    1TCM     h1 1832   2.469   3.724   0.070
    1TCM    cl3 1833   2.274   3.596   0.123
    1TCM     c1 1834   0.163   3.455   4.973
    1TCM    cl1 1835   0.038   3.341   5.028
    1TCM    cl2 1836   0.133   3.499   4.803
    1TCM     h1 1837   0.159   3.547   5.036
    1TCM    cl3 1838   0.323   3.380   4.988
    1TCM     c1 1839   3.830   1.871   1.764
    1TCM    cl1 1840   3.702   1.922   1.877
    1TCM    cl2 1841   3.915   1.730   1.831
    1TCM     h1 1842   3.784   1.844   1.666
    1TCM    cl3 1843   3.945   2.005   1.740
    1TCM     c1 1844   2.263   2.835   2.769
    1TCM    cl1 1845   2.393   2.761   2.672
    1TCM    cl2 1846   2.320   2.858   2.936
    1TCM     h1 1847   2.236   2.933   2.725
    1TCM    cl3 1848   2.121   2.728   2.768
    1TCM     c1 1849   4.494   2.871   0.730
    1TCM    cl1 1850   4.388   2.963   0.620
    1TCM    cl2 1851   4.636   2.812   0.640
    1TCM     h1 1852   4.527   2.937   0.813
    1TCM    cl3 1853   4.404   2.733   0.796
    1TCM     c1 1854   5.116   4.267   1.768
    1TCM    cl1 1855   5.236   4.385   1.825
    1TCM    cl2 1856   4.966   4.284   1.862
    1TCM     h1 1857   5.094   4.286   1.660
    1TCM    cl3 1858   5.180   4.103   1.787
    1TCM     c1 1859   3.266   1.696   3.767
    1TCM    cl1 1860   3.349   1.819   3.670
    1TCM    cl2 1861   3.201   1.771   3.915
    1TCM     h1 1862   3.184   1.651   3.709
    1TCM    cl3 1863   3.382   1.569   3.812
    1TCM     c1 1864   0.923   3.833   2.437
    1TCM    cl1 1865   0.887   3.673   2.506
    1TCM    cl2 1866   0.895   3.829   2.261
    1TCM     h1 1867   0.857   3.909   2.484
    1TCM    cl3 1868   1.093   3.874   2.469
    1TCM     c1 1869   3.008   4.107   2.303
    1TCM    cl1 1870   2.889   4.238   2.324
    1TCM    cl2 1871   3.128   4.114   2.434
    1TCM     h1 1872   2.956   4.009   2.306
    1TCM    cl3 1873   3.090   4.126   2.147
    1TCM     c1 1874   1.354   3.046   2.415
    1TCM    cl1 1875   1.310   3.200   2.493
    1TCM    cl2 1876   1.434   2.941   2.534
    1TCM     h1 1877   1.262   2.997   2.378
    1TCM    cl3 1878   1.464   3.078   2.279
    1TCM     c1 1879   4.607   0.170   5.160
    1TCM    cl1 1880   4.770   0.134   5.099
    1TCM    cl2 1881   4.618   0.231   5.327
    1TCM     h1 1882   4.559   0.247   5.096
    1TCM    cl3 1883   4.509   0.022   5.159
    1TCM     c1 1884   4.166   4.929   2.458
    1TCM    cl1 1885   4.228   5.076   2.381
    1TCM    cl2 1886   4.087   4.827   2.336
    1TCM     h1 1887   4.250   4.872   2.504
    1TCM    cl3 1888   4.049   4.972   2.584
    1TCM     c1 1889   1.423   5.047   3.102
    1TCM    cl1 1890   1.520   4.990   2.965
    1TCM    cl2 1891   1.513   5.023   3.253
    1TCM     h1 1892   1.401   5.155   3.090
    1TCM    cl3 1893   1.270   4.956   3.109
    1TCM     c1 1894   3.389   4.954   3.800
    1TCM    cl1 1895   3.488   4.807   3.815
    1TCM    cl2 1896   3.330   4.970   3.633
    1TCM     h1 1897   3.302   4.947   3.869
    1TCM    cl3 1898   3.487   5.096   3.842
    1TCM     c1 1899   3.631   2.194   4.865
    1TCM    cl1 1900   3.718   2.039   4.862
    1TCM    cl2 1901   3.725   2.316   4.776
    1TCM     h1 1902   3.532   2.181   4.817
    1TCM    cl3 1903   3.610   2.246   5.033
    1TCM     c1 1904   4.862   4.249   2.506
    1TCM    cl1 1905   4.916   4.397   2.424
    1TCM    cl2 1906   4.692   4.216   2.464
    1TCM     h1 1907   4.925   4.164   2.473
    1TCM    cl3 1908   4.877   4.270   2.682
    1TCM     c1 1909   5.090   3.180   2.482
    1TCM    cl1 1910   5.125   3.321   2.380
    1TCM    cl2 1911   5.059   3.234   2.649
    1TCM     h1 1912   5.001   3.127   2.443
    1TCM    cl3 1913   5.229   3.069   2.481
    1TCM     c1 1914   1.466   2.289   0.939
    1TCM    cl1 1915   1.573   2.374   0.825
    1TCM    cl2 1916   1.509   2.335   1.106
    1TCM     h1 1917   1.361   2.317   0.919
    1TCM    cl3 1918   1.486   2.113   0.919
    1TCM     c1 1919   1.023   1.974   4.114
    1TCM    cl1 1920   1.097   2.030   3.963
    1TCM    cl2 1921   1.149   1.921   4.227
    1TCM     h1 1922   0.965   2.057   4.159
    1TCM    cl3 1923   0.914   1.838   4.079
    1TCM     c1 1924   4.133   3.550   1.328
    1TCM    cl1 1925   3.964   3.528   1.276
    1TCM    cl2 1926   4.142   3.545   1.505
    1TCM     h1 1927   4.195   3.469   1.285
    1TCM    cl3 1928   4.192   3.707   1.270
    1TCM     c1 1929   0.266   5.158   2.147
    1TCM    cl1 1930   0.168   5.239   2.270
    1TCM    cl2 1931   0.338   5.280   2.039
    1TCM     h1 1932   0.347   5.100   2.196
    1TCM    cl3 1933   0.163   5.048   2.052
    1TCM     c1 1934   1.431   2.546   1.934
    1TCM    cl1 1935   1.286   2.488   1.849
    1TCM    cl2 1936   1.561   2.576   1.816
    1TCM     h1 1937   1.408   2.640   1.988
    1TCM    cl3 1938   1.485   2.422   2.050
    1TCM     c1 1939   0.832   2.309   4.105
    1TCM    cl1 1940   0.694   2.352   4.001
    1TCM    cl2 1941   0.775   2.291   4.272
    1TCM     h1 1942   0.876   2.214   4.070
    1TCM    cl3 1943   0.954   2.438   4.097
    1TCM     c1 1944   1.114   0.891   5.177
    1TCM    cl1 1945   1.019   0.937   5.034
    1TCM    cl2 1946   1.004   0.829   5.303
    1TCM     h1 1947   1.187   0.813   5.149
    1TCM    cl3 1948   1.200   1.034   5.239
    1TCM     c1 1949   3.676   2.973   0.987
    1TCM    cl1 1950   3.745   3.132   0.947
    1TCM    cl2 1951   3.737   2.920   1.146
    1TCM     h1 1952   3.565   2.981   0.991
    1TCM    cl3 1953   3.723   2.855   0.863
    1TCM     c1 1954   3.693   4.988   3.018
    1TCM    cl1 1955   3.707   5.076   3.172
    1TCM    cl2 1956   3.692   5.105   2.884
    1TCM     h1 1957   3.779   4.919   3.007
    1TCM    cl3 1958   3.541   4.895   3.017
    1TCM     c1 1959   4.635   3.207   5.171
    1TCM    cl1 1960   4.608   3.254   5.340
    1TCM    cl2 1961   4.517   3.289   5.067
    1TCM     h1 1962   4.738   3.236   5.140
    1TCM    cl3 1963   4.616   3.031   5.154
    1TCM     c1 1964   4.470   2.826   2.966
    1TCM    cl1 1965   4.462   3.002   2.946
    1TCM    cl2 1966   4.315   2.754   2.915
    1TCM     h1 1967   4.552   2.785   2.904
    1TCM    cl3 1968   4.500   2.786   3.137
    1TCM     c1 1969   2.338   4.534   3.553
    1TCM    cl1 1970   2.198   4.568   3.449
    1TCM    cl2 1971   2.322   4.371   3.623
    1TCM     h1 1972   2.431   4.539   3.493
    1TCM    cl3 1973   2.346   4.654   3.684
    1TCM     c1 1974   3.547   2.259   0.944
    1TCM    cl1 1975   3.429   2.177   1.048
    1TCM    cl2 1976   3.711   2.229   1.005
    1TCM     h1 1977   3.539   2.220   0.840
    1TCM    cl3 1978   3.515   2.434   0.944
    1TCM     c1 1979   2.479   1.969   2.689
    1TCM    cl1 1980   2.434   1.797   2.678
    1TCM    cl2 1981   2.388   2.046   2.821
    1TCM     h1 1982   2.588   1.978   2.710
    1TCM    cl3 1983   2.441   2.050   2.536
    1TCM     c1 1984   2.926   2.913   3.455
    1TCM    cl1 1985   3.055   2.896   3.333
    1TCM    cl2 1986   2.914   3.083   3.504
    1TCM     h1 1987   2.830   2.880   3.411
    1TCM    cl3 1988   2.965   2.813   3.596
    1TCM     c1 1989   5.030   1.897   1.678
    1TCM    cl1 1990   5.135   1.939   1.541
    1TCM    cl2 1991   4.864   1.870   1.620
    1TCM     h1 1992   5.068   1.805   1.727
    1TCM    cl3 1993   5.029   2.031   1.796
    1TCM     c1 1994   1.653   1.360   3.598
    1TCM    cl1 1995   1.750   1.357   3.748
    1TCM    cl2 1996   1.717   1.238   3.485
    1TCM     h1 1997   1.548   1.336   3.622
    1TCM    cl3 1998   1.663   1.521   3.524
    1TCM     c1 1999   3.432   4.204   2.235
    1TCM    cl1 2000   3.579   4.276   2.303
    1TCM    cl2 2001   3.292   4.252   2.334
    1TCM     h1 2002   3.418   4.240   2.131
    1TCM    cl3 2003   3.446   4.027   2.236
    1TCM     c1 2004   2.107   3.616   0.474
    1TCM    cl1 2005   1.973   3.670   0.576
    1TCM    cl2 2006   2.081   3.671   0.306
    1TCM     h1 2007   2.202   3.658   0.512
    1TCM    cl3 2008   2.116   3.438   0.477
    1TCM     c1 2009   4.628   2.137   3.232
    1TCM    cl1 2010   4.719   2.261   3.144
    1TCM    cl2 2011   4.614   2.185   3.403
    1TCM     h1 2012   4.526   2.128   3.188
    1TCM    cl3 2013   4.713   1.982   3.221
    1TCM     c1 2014   2.427   3.889   1.394
    1TCM    cl1 2015   2.469   4.018   1.509
    1TCM    cl2 2016   2.479   3.935   1.231
    1TCM     h1 2017   2.478   3.795   1.424
    1TCM    cl3 2018   2.251   3.863   1.396
    1TCM     c1 2019   1.062   4.942   4.737
    1TCM    cl1 2020   0.974   4.788   4.735
    1TCM    cl2 2021   1.204   4.929   4.843
    1TCM     h1 2022   1.095   4.967   4.634
    1TCM    cl3 2023   0.955   5.071   4.798
    1TCM     c1 2024   3.668   3.208   3.690
    1TCM    cl1 2025   3.500   3.261   3.672
    1TCM    cl2 2026   3.736   3.274   3.840
    1TCM     h1 2027   3.672   3.097   3.693
    1TCM    cl3 2028   3.763   3.266   3.551
    1TCM     c1 2029   3.755   3.865   1.273
    1TCM    cl1 2030   3.931   3.852   1.251
    1TCM    cl2 2031   3.684   3.948   1.133
    1TCM     h1 2032   3.711   3.763   1.282
    1TCM    cl3 2033   3.721   3.958   1.421
    1TCM     c1 2034   2.542   1.289   3.972
    1TCM    cl1 2035   2.477   1.166   3.861
    1TCM    cl2 2036   2.415   1.408   4.009
    1TCM     h1 2037   2.576   1.240   4.065
    1TCM    cl3 2038   2.679   1.371   3.894
    1TCM     c1 2039   2.110   3.639   4.865
    1TCM    cl1 2040   2.093   3.557   5.022
    1TCM    cl2 2041   2.114   3.517   4.735
    1TCM     h1 2042   2.024   3.707   4.850
    1TCM    cl3 2043   2.261   3.733   4.864
    1TCM     c1 2044   4.324   3.842   3.209
    1TCM    cl1 2045   4.460   3.928   3.133
    1TCM    cl2 2046   4.367   3.797   3.375
    1TCM     h1 2047   4.234   3.908   3.210
    1TCM    cl3 2048   4.287   3.695   3.115
    1TCM     c1 2049   2.489   5.207   4.702
    1TCM    cl1 2050   2.581   5.340   4.775
    1TCM    cl2 2051   2.520   5.202   4.527
    1TCM     h1 2052   2.520   5.111   4.747
    1TCM    cl3 2053   2.315   5.232   4.730
    1TCM     c1 2054   3.091   1.595   4.989
    1TCM    cl1 2055   3.055   1.591   5.163
    1TCM    cl2 2056   2.954   1.528   4.898
    1TCM     h1 2057   3.107   1.701   4.957
    1TCM    cl3 2058   3.237   1.500   4.956
    1TCM     c1 2059   0.669   0.590   4.154
    1TCM    cl1 2060   0.823   0.503   4.151
    1TCM    cl2 2061   0.573   0.546   4.011
    1TCM     h1 2062   0.613   0.563   4.246
    1TCM    cl3 2063   0.700   0.765   4.153
    1TCM     c1 2064   3.581   0.899   2.033
    1TCM    cl1 2065   3.529   1.048   2.115
    1TCM    cl2 2066   3.682   0.940   1.893
    1TCM     h1 2067   3.639   0.836   2.104
    1TCM    cl3 2068   3.437   0.809   1.978
    1TCM     c1 2069   2.841   0.127   2.581
    1TCM    cl1 2070   2.965   0.000   2.564
    1TCM    cl2 2071   2.700   0.086   2.480
    1TCM     h1 2072   2.810   0.134   2.687
    1TCM    cl3 2073   2.908   0.283   2.528
    1TCM     c1 2074   2.687   4.547   2.493
    1TCM    cl1 2075   2.565   4.676   2.504
    1TCM    cl2 2076   2.828   4.590   2.593
    1TCM     h1 2077   2.643   4.452   2.531
    1TCM    cl3 2078   2.738   4.527   2.324
    1TCM     c1 2079   1.926   1.397   4.083
    1TCM    cl1 2080   1.973   1.521   4.202
    1TCM    cl2 2081   1.755   1.420   4.039
    1TCM     h1 2082   1.989   1.406   3.993
    1TCM    cl3 2083   1.947   1.236   4.155
    1TCM     c1 2084   2.422   4.319   3.203
    1TCM    cl1 2085   2.426   4.252   3.039
    1TCM    cl2 2086   2.421   4.496   3.194
    1TCM     h1 2087   2.330   4.284   3.255
    1TCM    cl3 2088   2.566   4.264   3.293
    1TCM     c1 2089   4.232   1.855   4.781
    1TCM    cl1 2090   4.199   1.904   4.614
    1TCM    cl2 2091   4.298   1.993   4.872
    1TCM     h1 2092   4.138   1.820   4.829
    1TCM    cl3 2093   4.351   1.722   4.782
    1TCM     c1 2094   0.290   0.547   0.365
    1TCM    cl1 2095   0.457   0.570   0.307
    1TCM    cl2 2096   0.271   0.625   0.524
    1TCM     h1 2097   0.220   0.592   0.293
    1TCM    cl3 2098   0.257   0.373   0.380
    1TCM     c1 2099   3.912   3.881   5.152
    1TCM    cl1 2100   3.778   3.969   5.074
    1TCM    cl2 2101   3.881   3.869   5.326
    1TCM     h1 2102   3.919   3.779   5.108
    1TCM    cl3 2103   4.064   3.968   5.124
    1TCM     c1 2104   1.998   2.414   2.756
    1TCM    cl1 2105   2.028   2.278   2.645
    1TCM    cl2 2106   2.024   2.567   2.670
    1TCM     h1 2107   1.894   2.409   2.793
    1TCM    cl3 2108   2.110   2.403   2.894
    1TCM     c1 2109   2.176   4.206   1.571
    1TCM    cl1 2110   2.178   4.043   1.500
    1TCM    cl2 2111   2.239   4.200   1.737
    1TCM     h1 2112   2.239   4.274   1.510
    1TCM    cl3 2113   2.009   4.268   1.573
    1TCM     c1 2114   4.065   3.616   1.897
    1TCM    cl1 2115   4.100   3.548   2.058
    1TCM    cl2 2116   4.068   3.485   1.776
    1TCM     h1 2117   3.965   3.664   1.897
    1TCM    cl3 2118   4.189   3.737   1.855
    1TCM     c1 2119   2.559   4.618   0.643
    1TCM    cl1 2120   2.575   4.785   0.700
    1TCM    cl2 2121   2.560   4.616   0.465
    1TCM     h1 2122   2.644   4.557   0.681
    1TCM    cl3 2123   2.406   4.549   0.702
    1TCM     c1 2124   2.798   2.397   4.700
    1TCM    cl1 2125   2.948   2.311   4.661
    1TCM    cl2 2126   2.787   2.421   4.876
    1TCM     h1 2127   2.797   2.496   4.649
    1TCM    cl3 2128   2.659   2.301   4.645
    1TCM     c1 2129   1.575   3.359   2.697
    1TCM    cl1 2130   1.506   3.231   2.594
    1TCM    cl2 2131   1.596   3.296   2.862
    1TCM     h1 2132   1.673   3.390   2.657
    1TCM    cl3 2133   1.465   3.499   2.700
    1TCM     c1 2134   0.698   4.172   4.954
    1TCM    cl1 2135   0.771   4.299   5.054
    1TCM    cl2 2136   0.615   4.246   4.815
    1TCM     h1 2137   0.777   4.103   4.917
    1TCM    cl3 2138   0.581   4.079   5.050
    1TCM     c1 2139   0.093   2.135   1.501
    1TCM    cl1 2140   0.111   2.212   1.342
    1TCM    cl2 2141   0.084   2.261   1.626
    1TCM     h1 2142   0.000   2.075   1.503
    1TCM    cl3 2143   0.233   2.030   1.532
    1TCM     c1 2144   4.486   0.932   4.159
    1TCM    cl1 2145   4.537   0.917   3.989
    1TCM    cl2 2146   4.511   1.100   4.213
    1TCM     h1 2147   4.379   0.906   4.168
    1TCM    cl3 2148   4.583   0.823   4.260
    1TCM     c1 2149   3.984   1.134   0.473
    1TCM    cl1 2150   4.029   1.261   0.357
    1TCM    cl2 2151   3.992   0.975   0.392
    1TCM     h1 2152   4.055   1.135   0.558
    1TCM    cl3 2153   3.819   1.162   0.533
    1TCM     c1 2154   1.925   1.802   3.928
    1TCM    cl1 2155   1.810   1.690   4.005
    1TCM    cl2 2156   1.863   1.851   3.769
    1TCM     h1 2157   1.938   1.892   3.992
    1TCM    cl3 2158   2.082   1.721   3.908
    1TCM     c1 2159   0.102   1.836   2.025
    1TCM    cl1 2160   0.000   1.690   2.031
    1TCM    cl2 2161   0.185   1.857   2.181
    1TCM     h1 2162   0.177   1.826   1.944
    1TCM    cl3 2163   0.000   1.978   1.993
    1TCM     c1 2164   1.709   0.608   3.421
    1TCM    cl1 2165   1.584   0.602   3.295
    1TCM    cl2 2166   1.633   0.585   3.580
    1TCM     h1 2167   1.783   0.527   3.404
    1TCM    cl3 2168   1.791   0.766   3.417
    1TCM     c1 2169   2.293   4.181   1.205
    1TCM    cl1 2170   2.399   4.280   1.308
    1TCM    cl2 2171   2.335   4.207   1.034
    1TCM     h1 2172   2.306   4.074   1.230
    1TCM    cl3 2173   2.124   4.229   1.232
    1TCM     c1 2174   3.473   1.761   4.319
    1TCM    cl1 2175   3.576   1.783   4.176
    1TCM    cl2 2176   3.520   1.877   4.445
    1TCM     h1 2177   3.367   1.778   4.291
    1TCM    cl3 2178   3.492   1.595   4.381
    1TCM     c1 2179   2.248   3.770   4.194
    1TCM    cl1 2180   2.311   3.868   4.060
    1TCM    cl2 2181   2.317   3.828   4.348
    1TCM     h1 2182   2.137   3.779   4.198
    1TCM    cl3 2183   2.293   3.600   4.170
    1TCM     c1 2184   3.157   0.981   4.949
    1TCM    cl1 2185   3.216   1.135   4.881
    1TCM    cl2 2186   3.194   0.975   5.123
    1TCM     h1 2187   3.047   0.974   4.934
    1TCM    cl3 2188   3.237   0.845   4.866
    1TCM     c1 2189   3.109   2.820   2.408
    1TCM    cl1 2190   3.067   2.958   2.304
    1TCM    cl2 2191   3.134   2.877   2.575
    1TCM     h1 2192   3.026   2.746   2.407
    1TCM    cl3 2193   3.258   2.744   2.349
    1TCM     c1 2194   4.711   4.230   0.892
    1TCM    cl1 2195   4.749   4.298   0.733
    1TCM    cl2 2196   4.807   4.312   1.017
    1TCM     h1 2197   4.603   4.244   0.914
    1TCM    cl3 2198   4.748   4.056   0.893
    1TCM     c1 2199   2.170   2.879   4.404
    1TCM    cl1 2200   2.149   2.879   4.581
    1TCM    cl2 2201   2.106   2.727   4.337
    1TCM     h1 2202   2.115   2.964   4.360
    1TCM    cl3 2203   2.343   2.893   4.365
    1TCM     c1 2204   2.617   4.173   4.453
    1TCM    cl1 2205   2.553   4.051   4.341
    1TCM    cl2 2206   2.699   4.092   4.589
    1TCM     h1 2207   2.690   4.238   4.400
    1TCM    cl3 2208   2.483   4.272   4.515
    1TCM     c1 2209   4.440   5.181   2.611
    1TCM    cl1 2210   4.443   5.078   2.756
    1TCM    cl2 2211   4.271   5.208   2.561
    1TCM     h1 2212   4.488   5.279   2.634
    1TCM    cl3 2213   4.529   5.100   2.480
    1TCM     c1 2214   1.829   3.647   2.186
    1TCM    cl1 2215   1.680   3.739   2.156
    1TCM    cl2 2216   1.917   3.625   2.033
    1TCM     h1 2217   1.893   3.702   2.258
    1TCM    cl3 2218   1.787   3.487   2.254
    1TCM     c1 2219   3.478   0.819   1.057
    1TCM    cl1 2220   3.514   0.848   0.885
    1TCM    cl2 2221   3.490   0.645   1.091
    1TCM     h1 2222   3.551   0.874   1.120
    1TCM    cl3 2223   3.314   0.876   1.094
    1TCM     c1 2224   0.340   3.739   3.038
    1TCM    cl1 2225   0.350   3.834   2.888
    1TCM    cl2 2226   0.180   3.763   3.112
    1TCM     h1 2227   0.355   3.632   3.016
    1TCM    cl3 2228   0.467   3.795   3.151
    1TCM     c1 2229   2.954   2.718   4.864
    1TCM    cl1 2230   2.954   2.771   5.034
    1TCM    cl2 2231   2.789   2.669   4.817
    1TCM     h1 2232   2.988   2.801   4.799
    1TCM    cl3 2233   3.064   2.580   4.846
    1TCM     c1 2234   2.264   0.675   0.701
    1TCM    cl1 2235   2.396   0.782   0.650
    1TCM    cl2 2236   2.323   0.564   0.827
    1TCM     h1 2237   2.181   0.736   0.742
    1TCM    cl3 2238   2.206   0.581   0.562
    1TCM     c1 2239   2.925   0.274   2.230
    1TCM    cl1 2240   3.096   0.294   2.188
    1TCM    cl2 2241   2.867   0.421   2.313
    1TCM     h1 2242   2.865   0.258   2.138
    1TCM    cl3 2243   2.906   0.134   2.338
    1TCM     c1 2244   1.814   3.567   4.655
    1TCM    cl1 2245   1.798   3.670   4.799
    1TCM    cl2 2246   1.878   3.408   4.702
    1TCM     h1 2247   1.714   3.554   4.607
    1TCM    cl3 2248   1.925   3.644   4.540
    1TCM     c1 2249   0.733   3.077   0.796
    1TCM    cl1 2250   0.766   3.240   0.733
    1TCM    cl2 2251   0.790   3.066   0.965
    1TCM     h1 2252   0.624   3.057   0.793
    1TCM    cl3 2253   0.818   2.956   0.697
    1TCM     c1 2254   2.991   0.212   3.453
    1TCM    cl1 2255   3.156   0.201   3.520
    1TCM    cl2 2256   2.980   0.112   3.306
    1TCM     h1 2257   2.919   0.176   3.528
    1TCM    cl3 2258   2.955   0.381   3.412
    1TCM     c1 2259   2.122   3.015   1.142
    1TCM    cl1 2260   2.039   2.945   1.002
    1TCM    cl2 2261   2.227   3.148   1.089
    1TCM     h1 2262   2.047   3.053   1.214
    1TCM    cl3 2263   2.221   2.890   1.221
    1TCM     c1 2264   3.134   5.180   4.031
    1TCM    cl1 2265   3.112   5.018   3.962
    1TCM    cl2 2266   3.168   5.166   4.205
    1TCM     h1 2267   3.220   5.230   3.981
    1TCM    cl3 2268   2.987   5.276   4.007
    1TCM     c1 2269   0.265   0.384   4.202
    1TCM    cl1 2270   0.095   0.435   4.193
    1TCM    cl2 2271   0.340   0.452   4.348
    1TCM     h1 2272   0.271   0.273   4.206
    1TCM    cl3 2273   0.352   0.442   4.058
    1TCM     c1 2274   2.456   2.635   3.976
    1TCM    cl1 2275   2.308   2.709   4.041
    1TCM    cl2 2276   2.440   2.615   3.800
    1TCM     h1 2277   2.543   2.700   3.998
    1TCM    cl3 2278   2.480   2.475   4.051
    1TCM     c1 2279   0.778   1.478   0.195
    1TCM    cl1 2280   0.900   1.433   0.073
    1TCM    cl2 2281   0.697   1.331   0.254
    1TCM     h1 2282   0.828   1.529   0.280
    1TCM    cl3 2283   0.658   1.587   0.122
    1TCM     c1 2284   4.658   2.977   1.945
    1TCM    cl1 2285   4.595   3.129   2.014
    1TCM    cl2 2286   4.809   2.933   2.027
    1TCM     h1 2287   4.583   2.897   1.959
    1TCM    cl3 2288   4.689   3.000   1.771
    1TCM     c1 2289   3.134   3.243   0.595
    1TCM    cl1 2290   3.072   3.135   0.723
    1TCM    cl2 2291   3.187   3.396   0.668
    1TCM     h1 2292   3.219   3.194   0.544
    1TCM    cl3 2293   3.004   3.275   0.477
    1TCM     c1 2294   2.601   4.885   1.576
    1TCM    cl1 2295   2.554   4.754   1.464
    1TCM    cl2 2296   2.487   4.891   1.712
    1TCM     h1 2297   2.704   4.865   1.614
    1TCM    cl3 2298   2.599   5.040   1.489
    1TCM     c1 2299   2.699   4.020   4.891
    1TCM    cl1 2300   2.722   4.197   4.889
    1TCM    cl2 2301   2.775   3.949   4.748
    1TCM     h1 2302   2.745   3.978   4.983
    1TCM    cl3 2303   2.525   3.984   4.890
    1TCM     c1 2304   3.979   3.968   2.728
    1TCM    cl1 2305   4.019   3.796   2.743
    1TCM    cl2 2306   3.819   3.986   2.652
    1TCM     h1 2307   3.978   4.015   2.828
    1TCM    cl3 2308   4.102   4.049   2.627
    1TCM     c1 2309   2.338   1.541   2.497
    1TCM    cl1 2310   2.169   1.589   2.465
    1TCM    cl2 2311   2.446   1.678   2.459
    1TCM     h1 2312   2.349   1.514   2.604
    1TCM    cl3 2313   2.380   1.402   2.395
    1TCM     c1 2314   4.912   2.356   0.672
    1TCM    cl1 2315   4.777   2.368   0.558
    1TCM    cl2 2316   4.849   2.359   0.839
    1TCM     h1 2317   4.967   2.261   0.655
    1TCM    cl3 2318   5.023   2.493   0.648
    1TCM     c1 2319   4.217   0.590   3.234
    1TCM    cl1 2320   4.322   0.497   3.344
    1TCM    cl2 2321   4.143   0.480   3.115
    1TCM     h1 2322   4.138   0.641   3.292
    1TCM    cl3 2323   4.315   0.712   3.148
    1TCM     c1 2324   4.847   2.358   0.151
    1TCM    cl1 2325   4.905   2.457   0.287
    1TCM    cl2 2326   4.709   2.260   0.204
    1TCM     h1 2327   4.816   2.424   0.068
    1TCM    cl3 2328   4.978   2.251   0.097
    1TCM     c1 2329   3.413   1.213   1.057
    1TCM    cl1 2330   3.275   1.204   1.168
    1TCM    cl2 2331   3.382   1.111   0.915
    1TCM     h1 2332   3.428   1.318   1.024
    1TCM    cl3 2333   3.560   1.155   1.140
    1TCM     c1 2334   2.747   4.409   4.736
    1TCM    cl1 2335   2.771   4.577   4.683
    1TCM    cl2 2336   2.790   4.298   4.604
    1TCM     h1 2337   2.811   4.389   4.825
    1TCM    cl3 2338   2.576   4.385   4.781
    1TCM     c1 2339   1.548   5.266   0.622
    1TCM    cl1 2340   1.631   5.339   0.762
    1TCM    cl2 2341   1.610   5.339   0.472
    1TCM     h1 2342   1.566   5.157   0.621
    1TCM    cl3 2343   1.373   5.297   0.635
    1TCM     c1 2344   1.419   3.307   4.507
    1TCM    cl1 2345   1.559   3.407   4.552
    1TCM    cl2 2346   1.466   3.194   4.378
    1TCM     h1 2347   1.384   3.250   4.595
    1TCM    cl3 2348   1.288   3.412   4.448
    1TCM     c1 2349   0.697   3.255   4.909
    1TCM    cl1 2350   0.728   3.091   4.847
    1TCM    cl2 2351   0.564   3.329   4.817
    1TCM     h1 2352   0.669   3.249   5.016
    1TCM    cl3 2353   0.844   3.354   4.891
    1TCM     c1 2354   1.408   1.346   0.691
    1TCM    cl1 2355   1.234   1.315   0.711
    1TCM    cl2 2356   1.451   1.332   0.519
    1TCM     h1 2357   1.431   1.448   0.727
    1TCM    cl3 2358   1.500   1.227   0.785
    1TCM     c1 2359   0.343   5.190   3.269
    1TCM    cl1 2360   0.234   5.060   3.216
    1TCM    cl2 2361   0.314   5.336   3.172
    1TCM     h1 2362   0.325   5.212   3.376
    1TCM    cl3 2363   0.512   5.138   3.247
    1TCM     c1 2364   2.806   3.986   0.350
    1TCM    cl1 2365   2.889   3.940   0.500
    1TCM    cl2 2366   2.790   3.844   0.244
    1TCM     h1 2367   2.704   4.025   0.375
    1TCM    cl3 2368   2.899   4.112   0.266
    1TCM     c1 2369   5.065   1.862   0.884
    1TCM    cl1 2370   5.086   2.000   0.775
    1TCM    cl2 2371   4.901   1.797   0.867
    1TCM     h1 2372   5.139   1.783   0.858
    1TCM    cl3 2373   5.091   1.914   1.052
    1TCM     c1 2374   3.241   4.779   4.119
    1TCM    cl1 2375   3.346   4.675   4.217
    1TCM    cl2 2376   3.231   4.713   3.954
    1TCM     h1 2377   3.140   4.782   4.164
    1TCM    cl3 2378   3.309   4.943   4.113
    1TCM     c1 2379   0.386   3.259   3.418
    1TCM    cl1 2380   0.352   3.318   3.582
    1TCM    cl2 2381   0.290   3.112   3.387
    1TCM     h1 2382   0.358   3.337   3.344
    1TCM    cl3 2383   0.559   3.221   3.403
    1TCM     c1 2384   2.922   0.533   1.941
    1TCM    cl1 2385   2.790   0.627   2.015
    1TCM    cl2 2386   2.854   0.397   1.850
    1TCM     h1 2387   2.980   0.598   1.873
    1TCM    cl3 2388   3.029   0.471   2.069
    1TCM     c1 2389   4.855   5.010   4.337
    1TCM    cl1 2390   4.878   4.908   4.481
    1TCM    cl2 2391   4.812   5.175   4.387
    1TCM     h1 2392   4.949   5.012   4.278
    1TCM    cl3 2393   4.724   4.942   4.237
    1TCM     c1 2394   4.037   0.992   2.044
    1TCM    cl1 2395   4.179   0.893   2.000
    1TCM    cl2 2396   3.997   0.966   2.215
    1TCM     h1 2397   4.061   1.099   2.027
    1TCM    cl3 2398   3.899   0.946   1.943
    1TCM     c1 2399   2.316   4.775   2.432
    1TCM    cl1 2400   2.383   4.634   2.346
    1TCM    cl2 2401   2.330   4.749   2.608
    1TCM     h1 2402   2.373   4.866   2.404
    1TCM    cl3 2403   2.145   4.796   2.388
    1TCM     c1 2404   2.284   2.587   0.929
    1TCM    cl1 2405   2.446   2.543   0.988
    1TCM    cl2 2406   2.281   2.576   0.751
    1TCM     h1 2407   2.209   2.517   0.972
    1TCM    cl3 2408   2.246   2.753   0.979
    1TCM     c1 2409   2.206   4.741   0.452
    1TCM    cl1 2410   2.377   4.736   0.502
    1TCM    cl2 2411   2.187   4.652   0.299
    1TCM     h1 2412   2.143   4.694   0.530
    1TCM    cl3 2413   2.156   4.910   0.429
    1TCM     c1 2414   3.624   1.105   2.373
    1TCM    cl1 2415   3.631   1.276   2.322
    1TCM    cl2 2416   3.682   1.002   2.240
    1TCM     h1 2417   3.689   1.091   2.462
    1TCM    cl3 2418   3.457   1.062   2.413
    1TCM     c1 2419   3.732   4.032   0.829
    1TCM    cl1 2420   3.905   4.074   0.840
    1TCM    cl2 2421   3.636   4.152   0.919
    1TCM     h1 2422   3.701   4.031   0.723
    1TCM    cl3 2423   3.706   3.871   0.900
    1TCM     c1 2424   1.710   4.341   2.154
    1TCM    cl1 2425   1.629   4.253   2.022
    1TCM    cl2 2426   1.816   4.230   2.243
    1TCM     h1 2427   1.771   4.424   2.111
    1TCM    cl3 2428   1.588   4.408   2.264
    1TCM     c1 2429   5.005   2.782   3.007
    1TCM    cl1 2430   5.114   2.922   3.013
    1TCM    cl2 2431   4.849   2.831   2.937
    1TCM     h1 2432   5.051   2.703   2.943
    1TCM    cl3 2433   4.980   2.718   3.171
    1TCM     c1 2434   1.591   1.314   2.209
    1TCM    cl1 2435   1.666   1.233   2.069
    1TCM    cl2 2436   1.655   1.244   2.359
    1TCM     h1 2437   1.614   1.422   2.206
    1TCM    cl3 2438   1.415   1.290   2.203
    1TCM     c1 2439   1.073   4.321   0.273
    1TCM    cl1 2440   1.231   4.240   0.277
    1TCM    cl2 2441   0.996   4.308   0.433
    1TCM     h1 2442   1.087   4.428   0.247
    1TCM    cl3 2443   0.970   4.244   0.150
    1TCM     c1 2444   3.119   2.614   0.939
    1TCM    cl1 2445   3.017   2.486   1.009
    1TCM    cl2 2446   3.253   2.650   1.051
    1TCM     h1 2447   3.160   2.579   0.842
    1TCM    cl3 2448   3.022   2.760   0.914
    1TCM     c1 2449   0.447   1.887   2.596
    1TCM    cl1 2450   0.304   1.788   2.561
    1TCM    cl2 2451   0.577   1.847   2.481
    1TCM     h1 2452   0.422   1.994   2.587
    1TCM    cl3 2453   0.503   1.853   2.762
    1TCM     c1 2454   2.627   0.766   4.984
    1TCM    cl1 2455   2.722   0.903   4.923
    1TCM    cl2 2456   2.456   0.813   4.997
    1TCM     h1 2457   2.636   0.680   4.913
    1TCM    cl3 2458   2.687   0.717   5.144
    1TCM     c1 2459   0.397   4.347   4.219
    1TCM    cl1 2460   0.417   4.324   4.394
    1TCM    cl2 2461   0.447   4.199   4.134
    1TCM     h1 2462   0.291   4.368   4.196
    1TCM    cl3 2463   0.498   4.483   4.166
    1TCM     c1 2464   5.029   4.037   1.528
    1TCM    cl1 2465   5.011   3.904   1.644
    1TCM    cl2 2466   4.959   3.988   1.372
    1TCM     h1 2467   4.975   4.127   1.566
    1TCM    cl3 2468   5.201   4.076   1.506
    1TCM     c1 2469   2.617   2.325   0.451
    1TCM    cl1 2470   2.647   2.447   0.324
    1TCM    cl2 2471   2.659   2.394   0.610
    1TCM     h1 2472   2.510   2.296   0.450
    1TCM    cl3 2473   2.717   2.181   0.420
    1TCM     c1 2474   3.367   2.473   2.174
    1TCM    cl1 2475   3.479   2.580   2.261
    1TCM    cl2 2476   3.223   2.566   2.126
    1TCM     h1 2477   3.417   2.433   2.084
    1TCM    cl3 2478   3.318   2.339   2.280
    1TCM     c1 2479   4.080   1.270   5.211
    1TCM    cl1 2480   4.087   1.140   5.090
    1TCM    cl2 2481   4.220   1.259   5.319
    1TCM     h1 2482   4.080   1.369   5.160
    1TCM    cl3 2483   3.930   1.254   5.306
    1TCM     c1 2484   1.096   2.043   4.536
    1TCM    cl1 2485   1.176   1.971   4.677
    1TCM    cl2 2486   0.978   1.928   4.469
    1TCM     h1 2487   1.044   2.136   4.566
    1TCM    cl3 2488   1.217   2.082   4.411
    1TCM     c1 2489   0.409   0.347   2.175
    1TCM    cl1 2490   0.439   0.517   2.129
    1TCM    cl2 2491   0.370   0.253   2.029
    1TCM     h1 2492   0.500   0.306   2.223
    1TCM    cl3 2493   0.272   0.340   2.288
    1TCM     c1 2494   3.815   0.441   1.108
    1TCM    cl1 2495   3.724   0.292   1.075
    1TCM    cl2 2496   3.830   0.535   0.957
    1TCM     h1 2497   3.761   0.502   1.183
    1TCM    cl3 2498   3.977   0.400   1.168
    1TCM     c1 2499   3.161   2.283   3.619
    1TCM    cl1 2500   3.296   2.186   3.682
    1TCM    cl2 2501   3.013   2.184   3.616
    1TCM     h1 2502   3.145   2.371   3.684
    1TCM    cl3 2503   3.199   2.337   3.454
    1TCM     c1 2504   3.758   2.870   3.560
    1TCM    cl1 2505   3.768   2.707   3.489
    1TCM    cl2 2506   3.818   2.989   3.443
    1TCM     h1 2507   3.653   2.893   3.585
    1TCM    cl3 2508   3.857   2.876   3.707
    1TCM     c1 2509   3.233   4.474   1.817
    1TCM    cl1 2510   3.169   4.369   1.946
    1TCM    cl2 2511   3.266   4.376   1.672
    1TCM     h1 2512   3.159   4.552   1.793
    1TCM    cl3 2513   3.384   4.550   1.872
    1TCM     c1 2514   0.535   1.324   4.201
    1TCM    cl1 2515   0.361   1.310   4.236
    1TCM    cl2 2516   0.623   1.196   4.288
    1TCM     h1 2517   0.552   1.313   4.092
    1TCM    cl3 2518   0.594   1.483   4.254
    1TCM     c1 2519   0.120   1.687   1.550
    1TCM    cl1 2520   0.064   1.585   1.684
    1TCM    cl2 2521   0.243   1.599   1.456
    1TCM     h1 2522   0.035   1.712   1.484
    1TCM    cl3 2523   0.191   1.836   1.615
    1TCM     c1 2524   1.705   2.525   3.890
    1TCM    cl1 2525   1.698   2.377   3.791
    1TCM    cl2 2526   1.755   2.483   4.055
    1TCM     h1 2527   1.778   2.595   3.846
    1TCM    cl3 2528   1.544   2.601   3.894
    1TCM     c1 2529   0.946   3.653   0.069
    1TCM    cl1 2530   0.782   3.626   0.006
    1TCM    cl2 2531   0.961   3.579   0.229
    1TCM     h1 2532   1.020   3.608   0.000
    1TCM    cl3 2533   0.976   3.828   0.082
    1TCM     c1 2534   3.684   1.366   1.534
    1TCM    cl1 2535   3.584   1.224   1.572
    1TCM    cl2 2536   3.828   1.315   1.443
    1TCM     h1 2537   3.625   1.437   1.472
    1TCM    cl3 2538   3.734   1.446   1.684
    1TCM     c1 2539   3.481   1.720   4.798
    1TCM    cl1 2540   3.420   1.698   4.964
    1TCM    cl2 2541   3.651   1.770   4.804
    1TCM     h1 2542   3.473   1.624   4.742
    1TCM    cl3 2543   3.385   1.845   4.716
    1TCM     c1 2544   0.715   3.974   4.301
    1TCM    cl1 2545   0.548   3.926   4.268
    1TCM    cl2 2546   0.778   3.880   4.439
    1TCM     h1 2547   0.778   3.955   4.212
    1TCM    cl3 2548   0.721   4.147   4.342
    1TCM     c1 2549   3.603   3.222   5.183
    1TCM    cl1 2550   3.614   3.253   5.008
    1TCM    cl2 2551   3.710   3.335   5.270
    1TCM     h1 2552   3.498   3.237   5.216
    1TCM    cl3 2553   3.653   3.055   5.217
    1TCM     c1 2554   1.736   2.556   1.089
    1TCM    cl1 2555   1.702   2.583   0.917
    1TCM    cl2 2556   1.717   2.384   1.127
    1TCM     h1 2557   1.840   2.588   1.112
    1TCM    cl3 2558   1.622   2.651   1.188
    1TCM     c1 2559   4.406   5.091   5.217
    1TCM    cl1 2560   4.311   4.941   5.216
    1TCM    cl2 2561   4.323   5.215   5.121
    1TCM     h1 2562   4.418   5.127   5.321
    1TCM    cl3 2563   4.567   5.060   5.147
    1TCM     c1 2564   4.421   1.127   0.307
    1TCM    cl1 2565   4.301   1.112   0.176
    1TCM    cl2 2566   4.478   0.965   0.354
    1TCM     h1 2567   4.507   1.188   0.271
    1TCM    cl3 2568   4.346   1.206   0.447
    1TCM     c1 2569   3.107   0.837   3.513
    1TCM    cl1 2570   2.974   0.886   3.406
    1TCM    cl2 2571   3.238   0.765   3.417
    1TCM     h1 2572   3.146   0.926   3.567
    1TCM    cl3 2573   3.048   0.718   3.631
    1TCM     c1 2574   4.364   1.375   4.906
    1TCM    cl1 2575   4.436   1.483   5.028
    1TCM    cl2 2576   4.266   1.251   4.988
    1TCM     h1 2577   4.299   1.434   4.838
    1TCM    cl3 2578   4.493   1.296   4.813
    1TCM     c1 2579   4.768   2.158   3.823
    1TCM    cl1 2580   4.865   2.028   3.896
    1TCM    cl2 2581   4.624   2.089   3.745
    1TCM     h1 2582   4.736   2.230   3.901
    1TCM    cl3 2583   4.866   2.244   3.701
    1TCM     c1 2584   0.096   4.906   3.731
    1TCM    cl1 2585   0.244   4.823   3.785
    1TCM    cl2 2586   0.084   4.897   3.554
    1TCM     h1 2587   0.008   4.858   3.777
    1TCM    cl3 2588   0.103   5.077   3.781
    1TCM     c1 2589   3.374   0.752   3.801
    1TCM    cl1 2590   3.399   0.727   3.976
    1TCM    cl2 2591   3.509   0.846   3.734
    1TCM     h1 2592   3.369   0.653   3.751
    1TCM    cl3 2593   3.221   0.839   3.775
    1TCM     c1 2594   3.863   3.761   1.572
    1TCM    cl1 2595   3.714   3.793   1.664
    1TCM    cl2 2596   3.911   3.591   1.595
    1TCM     h1 2597   3.844   3.780   1.464
    1TCM    cl3 2598   3.993   3.868   1.630
    1TCM     c1 2599   0.555   0.174   1.373
    1TCM    cl1 2600   0.417   0.280   1.409
    1TCM    cl2 2601   0.527   0.091   1.218
    1TCM     h1 2602   0.648   0.234   1.366
    1TCM    cl3 2603   0.572   0.053   1.502
    1TCM     c1 2604   2.165   3.968   3.682
    1TCM    cl1 2605   2.144   4.141   3.719
    1TCM    cl2 2606   2.189   3.878   3.833
    1TCM     h1 2607   2.075   3.930   3.630
    1TCM    cl3 2608   2.308   3.947   3.577
    1TCM     c1 2609   4.516   3.955   1.349
    1TCM    cl1 2610   4.650   3.965   1.465
    1TCM    cl2 2611   4.581   3.934   1.184
    1TCM     h1 2612   4.451   3.868   1.374
    1TCM    cl3 2613   4.420   4.104   1.356
    1TCM     c1 2614   3.164   4.379   4.582
    1TCM    cl1 2615   3.014   4.283   4.570
    1TCM    cl2 2616   3.280   4.295   4.686
    1TCM     h1 2617   3.207   4.392   4.480
    1TCM    cl3 2618   3.126   4.538   4.651
    1TCM     c1 2619   2.072   1.874   4.796
    1TCM    cl1 2620   2.119   1.816   4.634
    1TCM    cl2 2621   2.115   1.751   4.917
    1TCM     h1 2622   2.126   1.968   4.818
    1TCM    cl3 2623   1.897   1.903   4.800
    1TCM     c1 2624   1.461   3.644   1.890
    1TCM    cl1 2625   1.574   3.520   1.829
    1TCM    cl2 2626   1.487   3.666   2.065
    1TCM     h1 2627   1.480   3.740   1.838
    1TCM    cl3 2628   1.294   3.592   1.861
    1TCM     c1 2629   1.851   0.176   1.553
    1TCM    cl1 2630   1.804   0.043   1.663
    1TCM    cl2 2631   1.829   0.123   1.385
    1TCM     h1 2632   1.788   0.264   1.573
    1TCM    cl3 2633   2.022   0.217   1.580
    1TCM     c1 2634   4.225   4.410   3.746
    1TCM    cl1 2635   4.239   4.392   3.569
    1TCM    cl2 2636   4.352   4.521   3.803
    1TCM     h1 2637   4.126   4.451   3.771
    1TCM    cl3 2638   4.246   4.252   3.823
    1TCM     c1 2639   0.737   0.995   3.736
    1TCM    cl1 2640   0.774   0.822   3.721
    1TCM    cl2 2641   0.856   1.072   3.844
    1TCM     h1 2642   0.741   1.043   3.636
    1TCM    cl3 2643   0.574   1.015   3.805
    1TCM     c1 2644   1.707   4.452   0.722
    1TCM    cl1 2645   1.702   4.605   0.813
    1TCM    cl2 2646   1.713   4.487   0.548
    1TCM     h1 2647   1.797   4.395   0.751
    1TCM    cl3 2648   1.561   4.357   0.758
    1TCM     c1 2649   3.269   0.407   0.139
    1TCM    cl1 2650   3.285   0.537   0.019
    1TCM    cl2 2651   3.158   0.282   0.077
    1TCM     h1 2652   3.368   0.362   0.158
    1TCM    cl3 2653   3.203   0.474   0.290
    1TCM     c1 2654   3.836   0.911   3.304
    1TCM    cl1 2655   3.665   0.955   3.283
    1TCM    cl2 2656   3.936   1.014   3.199
    1TCM     h1 2657   3.865   0.927   3.410
    1TCM    cl3 2658   3.860   0.741   3.260
    1TCM     c1 2659   0.148   4.626   3.993
    1TCM    cl1 2660   0.028   4.640   3.863
    1TCM    cl2 2661   0.311   4.652   3.926
    1TCM     h1 2662   0.128   4.702   4.070
    1TCM    cl3 2663   0.139   4.464   4.065
    1TCM     c1 2664   4.416   1.734   5.174
    1TCM    cl1 2665   4.450   1.877   5.075
    1TCM    cl2 2666   4.377   1.784   5.340
    1TCM     h1 2667   4.331   1.678   5.131
    1TCM    cl3 2668   4.560   1.629   5.177
    1TCM     c1 2669   0.342   0.650   2.773
    1TCM    cl1 2670   0.349   0.824   2.809
    1TCM    cl2 2671   0.265   0.564   2.908
    1TCM     h1 2672   0.284   0.633   2.680
    1TCM    cl3 2673   0.507   0.587   2.751
    1TCM     c1 2674   0.163   2.282   2.134
    1TCM    cl1 2675   0.307   2.359   2.203
    1TCM    cl2 2676   0.149   2.325   1.962
    1TCM     h1 2677   0.172   2.171   2.144
    1TCM    cl3 2678   0.018   2.337   2.220
    1TCM     c1 2679   3.718   2.169   1.674
    1TCM    cl1 2680   3.790   2.090   1.532
    1TCM    cl2 2681   3.648   2.325   1.626
    1TCM     h1 2682   3.639   2.104   1.716
    1TCM    cl3 2683   3.844   2.196   1.797
    1TCM     c1 2684   2.640   0.889   4.405
    1TCM    cl1 2685   2.685   1.039   4.321
    1TCM    cl2 2686   2.525   0.927   4.536
    1TCM     h1 2687   2.592   0.819   4.333
    1TCM    cl3 2688   2.785   0.813   4.474
    1TCM     c1 2689   4.674   2.544   4.938
    1TCM    cl1 2690   4.530   2.644   4.966
    1TCM    cl2 2691   4.649   2.445   4.792
    1TCM     h1 2692   4.762   2.609   4.923
    1TCM    cl3 2693   4.700   2.437   5.077
    1TCM     c1 2694   3.844   0.776   2.856
    1TCM    cl1 2695   3.759   0.662   2.963
    1TCM    cl2 2696   3.805   0.943   2.905
    1TCM     h1 2697   3.953   0.760   2.864
    1TCM    cl3 2698   3.792   0.750   2.688
    1TCM     c1 2699   3.319   2.099   3.329
    1TCM    cl1 2700   3.385   1.965   3.425
    1TCM    cl2 2701   3.295   2.045   3.161
    1TCM     h1 2702   3.222   2.131   3.372
    1TCM    cl3 2703   3.432   2.236   3.331
    1TCM     c1 2704   3.810   1.682   1.446
    1TCM    cl1 2705   3.917   1.597   1.332
    1TCM    cl2 2706   3.841   1.624   1.611
    1TCM     h1 2707   3.830   1.791   1.441
    1TCM    cl3 2708   3.641   1.651   1.403
    1TCM     c1 2709   0.580   3.592   1.696
    1TCM    cl1 2710   0.412   3.579   1.639
    1TCM    cl2 2711   0.624   3.443   1.784
    1TCM     h1 2712   0.648   3.605   1.609
    1TCM    cl3 2713   0.595   3.732   1.805
    1TCM     c1 2714   2.502   3.774   4.597
    1TCM    cl1 2715   2.345   3.718   4.660
    1TCM    cl2 2716   2.485   3.941   4.537
    1TCM     h1 2717   2.577   3.772   4.679
    1TCM    cl3 2718   2.554   3.668   4.465
    1TCM     c1 2719   1.928   1.610   1.992
    1TCM    cl1 2720   1.755   1.574   1.972
    1TCM    cl2 2721   2.020   1.538   1.858
    1TCM     h1 2722   1.943   1.720   1.992
    1TCM    cl3 2723   1.985   1.543   2.147
    1TCM     c1 2724   4.589   2.530   0.327
    1TCM    cl1 2725   4.577   2.622   0.176
    1TCM    cl2 2726   4.470   2.398   0.326
    1TCM     h1 2727   4.691   2.488   0.337
    1TCM    cl3 2728   4.556   2.638   0.465
    1TCM     c1 2729   3.107   4.609   3.602
    1TCM    cl1 2730   3.243   4.607   3.488
    1TCM    cl2 2731   2.975   4.509   3.539
    1TCM     h1 2732   3.141   4.569   3.700
    1TCM    cl3 2733   3.050   4.777   3.624
    1TCM     c1 2734   4.983   3.895   5.179
    1TCM    cl1 2735   5.079   3.795   5.068
    1TCM    cl2 2736   5.058   3.893   5.340
    1TCM     h1 2737   4.979   3.999   5.141
    1TCM    cl3 2738   4.818   3.829   5.190
    1TCM     c1 2739   1.172   2.775   3.340
    1TCM    cl1 2740   1.344   2.771   3.383
    1TCM    cl2 2741   1.152   2.855   3.182
    1TCM     h1 2742   1.133   2.671   3.334
    1TCM    cl3 2743   1.082   2.865   3.464
    1TCM     c1 2744   2.545   2.781   1.337
    1TCM    cl1 2745   2.398   2.848   1.412
    1TCM    cl2 2746   2.551   2.830   1.166
    1TCM     h1 2747   2.634   2.820   1.390
    1TCM    cl3 2748   2.541   2.604   1.348
    1TCM     c1 2749   0.149   3.560   3.552
    1TCM    cl1 2750   0.256   3.505   3.683
    1TCM    cl2 2751   0.108   3.731   3.577
    1TCM     h1 2752   0.200   3.549   3.454
    1TCM    cl3 2753   0.000   3.463   3.552
    1TCM     c1 2754   2.473   4.824   3.310
    1TCM    cl1 2755   2.556   4.976   3.346
    1TCM    cl2 2756   2.487   4.788   3.136
    1TCM     h1 2757   2.519   4.741   3.368
    1TCM    cl3 2758   2.301   4.838   3.354
    1TCM     c1 2759   5.009   2.707   4.177
    1TCM    cl1 2760   4.898   2.845   4.182
    1TCM    cl2 2761   5.041   2.651   4.343
    1TCM     h1 2762   4.963   2.625   4.119
    1TCM    cl3 2763   5.162   2.756   4.101
    1TCM     c1 2764   2.610   2.252   3.564
    1TCM    cl1 2765   2.770   2.201   3.623
    1TCM    cl2 2766   2.484   2.151   3.639
    1TCM     h1 2767   2.593   2.358   3.590
    1TCM    cl3 2768   2.604   2.233   3.387
    1TCM     c1 2769   1.943   0.852   4.093
    1TCM    cl1 2770   1.956   0.685   4.032
    1TCM    cl2 2771   1.784   0.875   4.169
    1TCM     h1 2772   2.023   0.871   4.168
    1TCM    cl3 2773   1.962   0.966   3.957
    1TCM     c1 2774   0.936   0.363   0.873
    1TCM    cl1 2775   1.001   0.528   0.884
    1TCM    cl2 2776   0.770   0.368   0.810
    1TCM     h1 2777   1.000   0.302   0.805
    1TCM    cl3 2778   0.936   0.288   1.035
    1TCM     c1 2779   4.155   1.432   3.665
    1TCM    cl1 2780   4.186   1.576   3.565
    1TCM    cl2 2781   4.122   1.482   3.832
    1TCM     h1 2782   4.068   1.377   3.625
    1TCM    cl3 2783   4.298   1.327   3.662
    1TCM     c1 2784   3.233   4.916   3.358
    1TCM    cl1 2785   3.323   5.056   3.297
    1TCM    cl2 2786   3.102   4.972   3.465
    1TCM     h1 2787   3.190   4.860   3.273
    1TCM    cl3 2788   3.342   4.811   3.450
    1TCM     c1 2789   2.190   2.522   3.103
    1TCM    cl1 2790   2.053   2.610   3.030
    1TCM    cl2 2791   2.212   2.576   3.271
    1TCM     h1 2792   2.169   2.413   3.101
    1TCM    cl3 2793   2.338   2.556   3.010
    1TCM     c1 2794   1.466   0.694   5.240
    1TCM    cl1 2795   1.346   0.779   5.340
    1TCM    cl2 2796   1.568   0.812   5.156
    1TCM     h1 2797   1.529   0.630   5.305
    1TCM    cl3 2798   1.382   0.592   5.121
    1TCM     c1 2799   2.254   4.408   4.345
    1TCM    cl1 2800   2.119   4.357   4.242
    1TCM    cl2 2801   2.226   4.354   4.512
    1TCM     h1 2802   2.348   4.363   4.307
    1TCM    cl3 2803   2.268   4.585   4.342
    1TCM     c1 2804   0.774   3.784   5.052
    1TCM    cl1 2805   0.646   3.681   4.985
    1TCM    cl2 2806   0.933   3.717   5.008
    1TCM     h1 2807   0.765   3.887   5.011
    1TCM    cl3 2808   0.759   3.789   5.229
    1TCM     c1 2809   5.100   3.056   1.869
    1TCM    cl1 2810   5.175   2.938   1.979
    1TCM    cl2 2811   5.226   3.154   1.791
    1TCM     h1 2812   5.042   3.001   1.791
    1TCM    cl3 2813   4.990   3.161   1.961
    1TCM     c1 2814   3.358   1.195   3.596
    1TCM    cl1 2815   3.372   1.329   3.479
    1TCM    cl2 2816   3.187   1.156   3.621
    1TCM     h1 2817   3.411   1.106   3.557
    1TCM    cl3 2818   3.431   1.244   3.750
    1TCM     c1 2819   1.554   0.083   1.232
    1TCM    cl1 2820   1.406  -0.000   1.284
    1TCM    cl2 2821   1.565   0.081   1.055
    1TCM     h1 2822   1.552   0.188   1.268
    1TCM    cl3 2823   1.696   0.000   1.301
    1TCM     c1 2824   2.767   2.946   3.886
    1TCM    cl1 2825   2.727   2.775   3.858
    1TCM    cl2 2826   2.929   2.958   3.957
    1TCM     h1 2827   2.764   3.001   3.790
    1TCM    cl3 2828   2.648   3.016   3.998
    1TCM     c1 2829   5.092   3.366   1.257
    1TCM    cl1 2830   5.198   3.455   1.145
    1TCM    cl2 2831   5.054   3.469   1.397
    1TCM     h1 2832   4.998   3.338   1.206
    1TCM    cl3 2833   5.176   3.219   1.313
    1TCM     c1 2834   1.886   0.268   0.193
    1TCM    cl1 2835   1.847   0.426   0.122
    1TCM    cl2 2836   1.868   0.276   0.369
    1TCM     h1 2837   1.817   0.191   0.152
    1TCM    cl3 2838   2.053   0.224   0.152
    1TCM     c1 2839   1.466   1.871   3.030
    1TCM    cl1 2840   1.559   1.943   2.897
    1TCM    cl2 2841   1.566   1.867   3.177
    1TCM     h1 2842   1.375   1.932   3.049
    1TCM    cl3 2843   1.418   1.706   2.987
    1TCM     c1 2844   2.726   3.895   2.478
    1TCM    cl1 2845   2.579   3.894   2.578
    1TCM    cl2 2846   2.688   3.958   2.317
    1TCM     h1 2847   2.803   3.959   2.526
    1TCM    cl3 2848   2.788   3.728   2.464
    1TCM     c1 2849   1.514   0.623   2.940
    1TCM    cl1 2850   1.465   0.713   2.795
    1TCM    cl2 2851   1.463   0.453   2.925
    1TCM     h1 2852   1.625   0.627   2.951
    1TCM    cl3 2853   1.438   0.695   3.084
    1TCM     c1 2854   5.130   5.031   2.751
    1TCM    cl1 2855   4.973   5.028   2.668
    1TCM    cl2 2856   5.239   4.911   2.676
    1TCM     h1 2857   5.175   5.132   2.742
    1TCM    cl3 2858   5.107   4.991   2.922
    1TCM     c1 2859   2.617   3.865   3.210
    1TCM    cl1 2860   2.580   3.951   3.059
    1TCM    cl2 2861   2.532   3.708   3.211
    1TCM     h1 2862   2.726   3.847   3.217
    1TCM    cl3 2863   2.563   3.962   3.349
    1TCM     c1 2864   5.060   5.027   0.245
    1TCM    cl1 2865   4.931   5.070   0.359
    1TCM    cl2 2866   5.021   5.090   0.084
    1TCM     h1 2867   5.156   5.071   0.280
    1TCM    cl3 2868   5.076   4.850   0.238
    1TCM     c1 2869   1.536   4.047   5.170
    1TCM    cl1 2870   1.411   3.991   5.283
    1TCM    cl2 2871   1.688   4.075   5.258
    1TCM     h1 2872   1.553   3.969   5.092
    1TCM    cl3 2873   1.483   4.198   5.093
    1TCM     c1 2874   0.410   1.952   3.475
    1TCM    cl1 2875   0.304   1.831   3.399
    1TCM    cl2 2876   0.573   1.939   3.405
    1TCM     h1 2877   0.370   2.053   3.456
    1TCM    cl3 2878   0.418   1.922   3.650
    1TCM     c1 2879   4.605   0.453   4.779
    1TCM    cl1 2880   4.568   0.614   4.846
    1TCM    cl2 2881   4.457   0.381   4.713
    1TCM     h1 2882   4.681   0.463   4.698
    1TCM    cl3 2883   4.670   0.349   4.908
    1TCM     c1 2884   4.280   2.414   2.531
    1TCM    cl1 2885   4.324   2.354   2.692
    1TCM    cl2 2886   4.428   2.452   2.440
    1TCM     h1 2887   4.223   2.335   2.477
    1TCM    cl3 2888   4.181   2.560   2.547
    1TCM     c1 2889   3.530   4.671   1.649
    1TCM    cl1 2890   3.407   4.749   1.751
    1TCM    cl2 2891   3.526   4.743   1.486
    1TCM     h1 2892   3.631   4.687   1.694
    1TCM    cl3 2893   3.497   4.497   1.637
    1TCM     c1 2894   5.208   5.199   0.766
    1TCM    cl1 2895   5.221   5.200   0.588
    1TCM    cl2 2896   5.309   5.067   0.831
    1TCM     h1 2897   5.244   5.296   0.806
    1TCM    cl3 2898   5.039   5.173   0.813
    1TCM     c1 2899   3.986   5.145   0.266
    1TCM    cl1 2900   3.849   5.161   0.153
    1TCM    cl2 2901   3.927   5.165   0.433
    1TCM     h1 2902   4.031   5.045   0.254
    1TCM    cl3 2903   4.107   5.271   0.230
    1TCM     c1 2904   0.624   5.113   2.435
    1TCM    cl1 2905   0.689   5.150   2.596
    1TCM    cl2 2906   0.755   5.055   2.330
    1TCM     h1 2907   0.546   5.035   2.444
    1TCM    cl3 2908   0.552   5.260   2.365
    1TCM     c1 2909   2.853   5.151   4.384
    1TCM    cl1 2910   2.863   5.092   4.552
    1TCM    cl2 2911   2.902   5.021   4.273
    1TCM     h1 2912   2.749   5.182   4.362
    1TCM    cl3 2913   2.962   5.290   4.364
    1TCM     c1 2914   4.397   4.208   1.833
    1TCM    cl1 2915   4.540   4.293   1.769
    1TCM    cl2 2916   4.381   4.243   2.007
    1TCM     h1 2917   4.306   4.243   1.780
    1TCM    cl3 2918   4.417   4.033   1.810
    1TCM     c1 2919   3.318   3.678   4.856
    1TCM    cl1 2920   3.361   3.512   4.808
    1TCM    cl2 2921   3.339   3.696   5.032
    1TCM     h1 2922   3.384   3.750   4.803
    1TCM    cl3 2923   3.148   3.711   4.813
    1TCM     c1 2924   2.771   0.521   4.329
    1TCM    cl1 2925   2.877   0.563   4.465
    1TCM    cl2 2926   2.814   0.620   4.188
    1TCM     h1 2927   2.783   0.413   4.304
    1TCM    cl3 2928   2.602   0.552   4.374
    1TCM     c1 2929   3.369   3.343   1.815
    1TCM    cl1 2930   3.231   3.237   1.783
    1TCM    cl2 2931   3.412   3.335   1.988
    1TCM     h1 2932   3.456   3.311   1.754
    1TCM    cl3 2933   3.326   3.511   1.774
    1TCM     c1 2934   0.117   3.042   3.683
    1TCM    cl1 2935   0.076   3.004   3.514
    1TCM    cl2 2936   0.283   2.989   3.717
    1TCM     h1 2937   0.108   3.151   3.699
    1TCM    cl3 2938   0.005   2.956   3.792
    1TCM     c1 2939   1.514   3.860   3.115
    1TCM    cl1 2940   1.597   3.703   3.130
    1TCM    cl2 2941   1.365   3.857   3.212
    1TCM     h1 2942   1.581   3.940   3.152
    1TCM    cl3 2943   1.474   3.890   2.945
    1TCM     c1 2944   2.819   4.247   1.750
    1TCM    cl1 2945   2.967   4.178   1.680
    1TCM    cl2 2946   2.851   4.303   1.916
    1TCM     h1 2947   2.785   4.333   1.688
    1TCM    cl3 2948   2.691   4.124   1.753
    1TCM     c1 2949   5.143   1.676   2.964
    1TCM    cl1 2950   5.011   1.578   2.896
    1TCM    cl2 2951   5.271   1.696   2.842
    1TCM     h1 2952   5.104   1.775   2.993
    1TCM    cl3 2953   5.210   1.594   3.107
    1TCM     c1 2954   4.440   3.476   3.032
    1TCM    cl1 2955   4.444   3.620   2.928
    1TCM    cl2 2956   4.440   3.526   3.203
    1TCM     h1 2957   4.348   3.418   3.011
    1TCM    cl3 2958   4.582   3.375   3.000
    1TCM     c1 2959   2.795   4.920   2.681
    1TCM    cl1 2960   2.836   4.872   2.515
    1TCM    cl2 2961   2.694   4.794   2.757
    1TCM     h1 2962   2.888   4.932   2.740
    1TCM    cl3 2963   2.705   5.073   2.679
    1TCM     c1 2964   3.045   3.207   2.471
    1TCM    cl1 2965   3.027   3.357   2.565
    1TCM    cl2 2966   3.105   3.247   2.308
    1TCM     h1 2967   3.118   3.141   2.522
    1TCM    cl3 2968   2.888   3.126   2.458
    1TCM     c1 2969   1.928   3.512   4.159
    1TCM    cl1 2970   1.969   3.672   4.092
    1TCM    cl2 2971   2.050   3.394   4.106
    1TCM     h1 2972   1.927   3.517   4.269
    1TCM    cl3 2973   1.768   3.462   4.099
    1TCM     c1 2974   4.929   1.863   0.525
    1TCM    cl1 2975   5.097   1.804   0.535
    1TCM    cl2 2976   4.918   1.988   0.400
    1TCM     h1 2977   4.862   1.778   0.500
    1TCM    cl3 2978   4.881   1.931   0.682
    1TCM     c1 2979   2.071   3.121   2.135
    1TCM    cl1 2980   1.926   3.215   2.095
    1TCM    cl2 2981   2.106   3.137   2.309
    1TCM     h1 2982   2.053   3.014   2.111
    1TCM    cl3 2983   2.209   3.181   2.041
    1TCM     c1 2984   1.991   0.962   4.963
    1TCM    cl1 2985   1.901   0.822   5.026
    1TCM    cl2 2986   1.951   0.986   4.791
    1TCM     h1 2987   1.963   1.053   5.020
    1TCM    cl3 2988   2.166   0.933   4.979
    1TCM     c1 2989   0.282   5.137   4.016
    1TCM    cl1 2990   0.410   5.194   3.906
    1TCM    cl2 2991   0.304   5.212   4.176
    1TCM     h1 2992   0.183   5.167   3.975
    1TCM    cl3 2993   0.290   4.960   4.031
    1TCM     c1 2994   1.679   4.482   1.718
    1TCM    cl1 2995   1.744   4.632   1.647
    1TCM    cl2 2996   1.533   4.433   1.629
    1TCM     h1 2997   1.755   4.402   1.711
    1TCM    cl3 2998   1.637   4.510   1.888
    1TCM     c1 2999   4.833   1.021   4.292
    1TCM    cl1 3000   4.857   0.859   4.224
    1TCM    cl2 3001   4.863   1.144   4.167
    1TCM     h1 3002   4.728   1.031   4.329
    1TCM    cl3 3003   4.946   1.046   4.427
    1TCM     c1 3004   2.364   3.256   0.317
    1TCM    cl1 3005   2.408   3.228   0.147
    1TCM    cl2 3006   2.188   3.242   0.336
    1TCM     h1 3007   2.414   3.180   0.381
    1TCM    cl3 3008   2.417   3.418   0.367
    1TCM     c1 3009   2.639   4.251   1.448
    1TCM    cl1 3010   2.635   4.227   1.272
    1TCM    cl2 3011   2.684   4.419   1.485
    1TCM     h1 3012   2.539   4.229   1.491
    1TCM    cl3 3013   2.759   4.140   1.520
    1TCM     c1 3014   1.616   0.901   3.996
    1TCM    cl1 3015   1.599   0.977   4.156
    1TCM    cl2 3016   1.682   1.020   3.881
    1TCM     h1 3017   1.685   0.815   4.004
    1TCM    cl3 3018   1.457   0.846   3.939
    1TCM     c1 3019   1.537   1.133   2.882
    1TCM    cl1 3020   1.626   0.980   2.870
    1TCM    cl2 3021   1.598   1.227   3.020
    1TCM     h1 3022   1.550   1.192   2.789
    1TCM    cl3 3023   1.364   1.099   2.906
    1TCM     c1 3024   1.992   3.202   3.476
    1TCM    cl1 3025   2.114   3.331   3.468
    1TCM    cl2 3026   2.039   3.083   3.600
    1TCM     h1 3027   1.893   3.246   3.503
    1TCM    cl3 3028   1.980   3.121   3.319
    1TCM     c1 3029   3.822   4.272   3.021
    1TCM    cl1 3030   3.937   4.348   3.135
    1TCM    cl2 3031   3.781   4.387   2.892
    1TCM     h1 3032   3.869   4.182   2.977
    1TCM    cl3 3033   3.675   4.225   3.109
    1TCM     c1 3034   2.714   5.105   0.486
    1TCM    cl1 3035   2.734   5.171   0.650
    1TCM    cl2 3036   2.681   5.237   0.372
    1TCM     h1 3037   2.807   5.052   0.456
    1TCM    cl3 3038   2.578   4.990   0.485
    1TCM     c1 3039   1.640   3.797   4.106
    1TCM    cl1 3040   1.741   3.910   4.013
    1TCM    cl2 3041   1.520   3.888   4.200
    1TCM     h1 3042   1.588   3.728   4.036
    1TCM    cl3 3043   1.743   3.703   4.217
    1TCM     c1 3044   2.389   2.266   1.323
    1TCM    cl1 3045   2.355   2.431   1.379
    1TCM    cl2 3046   2.269   2.219   1.199
    1TCM     h1 3047   2.491   2.262   1.278
    1TCM    cl3 3048   2.380   2.153   1.460
    1TCM     c1 3049   2.066   1.278   2.099
    1TCM    cl1 3050   2.200   1.381   2.154
    1TCM    cl2 3051   2.122   1.109   2.086
    1TCM     h1 3052   1.983   1.284   2.172
    1TCM    cl3 3053   2.010   1.333   1.939
    1TCM     c1 3054   2.380   2.852   0.397
    1TCM    cl1 3055   2.260   2.919   0.284
    1TCM    cl2 3056   2.321   2.870   0.564
    1TCM     h1 3057   2.396   2.745   0.375
    1TCM    cl3 3058   2.534   2.940   0.379
    1TCM     c1 3059   3.547   2.544   4.373
    1TCM    cl1 3060   3.665   2.657   4.444
    1TCM    cl2 3061   3.441   2.481   4.501
    1TCM     h1 3062   3.487   2.596   4.297
    1TCM    cl3 3063   3.635   2.409   4.296
    1TCM     c1 3064   0.738   0.412   1.963
    1TCM    cl1 3065   0.760   0.401   2.139
    1TCM    cl2 3066   0.749   0.582   1.913
    1TCM     h1 3067   0.817   0.353   1.912
    1TCM    cl3 3068   0.578   0.348   1.920
    1TCM     c1 3069   4.298   4.873   0.813
    1TCM    cl1 3070   4.149   4.818   0.891
    1TCM    cl2 3071   4.260   5.003   0.698
    1TCM     h1 3072   4.368   4.912   0.890
    1TCM    cl3 3073   4.374   4.738   0.726
    1TCM     c1 3074   0.297   4.377   1.104
    1TCM    cl1 3075   0.424   4.414   0.984
    1TCM    cl2 3076   0.353   4.424   1.266
    1TCM     h1 3077   0.205   4.433   1.079
    1TCM    cl3 3078   0.263   4.202   1.102
    1TCM     c1 3079   2.236   2.364   3.799
    1TCM    cl1 3080   2.191   2.216   3.712
    1TCM    cl2 3081   2.198   2.345   3.972
    1TCM     h1 3082   2.345   2.382   3.787
    1TCM    cl3 3083   2.145   2.502   3.733
    1TCM     c1 3084   0.555   4.099   1.237
    1TCM    cl1 3085   0.576   3.928   1.196
    1TCM    cl2 3086   0.711   4.165   1.294
    1TCM     h1 3087   0.522   4.155   1.147
    1TCM    cl3 3088   0.433   4.116   1.365
    1TCM     c1 3089   1.337   3.950   0.440
    1TCM    cl1 3090   1.260   3.792   0.467
    1TCM    cl2 3091   1.320   3.995   0.269
    1TCM     h1 3092   1.287   4.026   0.504
    1TCM    cl3 3093   1.509   3.939   0.483
    1TCM     c1 3094   3.207   2.120   2.569
    1TCM    cl1 3095   3.344   2.189   2.659
    1TCM    cl2 3096   3.079   2.072   2.684
    1TCM     h1 3097   3.167   2.197   2.499
    1TCM    cl3 3098   3.261   1.978   2.477
    1TCM     c1 3099   1.925   2.768   2.519
    1TCM    cl1 3100   1.790   2.694   2.430
    1TCM    cl2 3101   1.910   2.730   2.692
    1TCM     h1 3102   2.021   2.728   2.481
    1TCM    cl3 3103   1.921   2.944   2.496
    1TCM     c1 3104   3.400   5.126   2.109
    1TCM    cl1 3105   3.547   5.119   2.209
    1TCM    cl2 3106   3.444   5.101   1.938
    1TCM     h1 3107   3.330   5.047   2.141
    1TCM    cl3 3108   3.323   5.285   2.128
    1TCM     c1 3109   0.965   2.596   4.384
    1TCM    cl1 3110   0.916   2.433   4.434
    1TCM    cl2 3111   1.030   2.591   4.218
    1TCM     h1 3112   0.878   2.664   4.387
    1TCM    cl3 3113   1.092   2.656   4.494
    1TCM     c1 3114   4.634   3.895   4.943
    1TCM    cl1 3115   4.801   3.837   4.964
    1TCM    cl2 3116   4.584   3.870   4.774
    1TCM     h1 3117   4.566   3.840   5.010
    1TCM    cl3 3118   4.627   4.069   4.982
    1TCM     c1 3119   4.940   1.897   4.156
    1TCM    cl1 3120   4.779   1.951   4.208
    1TCM    cl2 3121   4.931   1.834   3.990
    1TCM     h1 3122   5.011   1.983   4.159
    1TCM    cl3 3123   4.998   1.770   4.265
    1TCM     c1 3124   4.079   2.296   2.832
    1TCM    cl1 3125   4.058   2.471   2.805
    1TCM    cl2 3126   3.971   2.243   2.963
    1TCM     h1 3127   4.054   2.241   2.739
    1TCM    cl3 3128   4.247   2.263   2.878
    1TCM     c1 3129   1.463   2.816   5.176
    1TCM    cl1 3130   1.308   2.901   5.153
    1TCM    cl2 3131   1.526   2.850   5.339
    1TCM     h1 3132   1.448   2.707   5.164
    1TCM    cl3 3133   1.580   2.873   5.055
    1TCM     c1 3134   3.672   2.141   3.154
    1TCM    cl1 3135   3.617   2.310   3.150
    1TCM    cl2 3136   3.540   2.034   3.104
    1TCM     h1 3137   3.758   2.128   3.085
    1TCM    cl3 3138   3.723   2.099   3.319
    1TCM     c1 3139   2.765   4.884   1.064
    1TCM    cl1 3140   2.797   4.717   1.117
    1TCM    cl2 3141   2.652   4.881   0.927
    1TCM     h1 3142   2.720   4.941   1.148
    1TCM    cl3 3143   2.918   4.960   1.015
    1TCM     c1 3144   1.701   3.935   0.826
    1TCM    cl1 3145   1.607   4.028   0.944
    1TCM    cl2 3146   1.602   3.802   0.762
    1TCM     h1 3147   1.732   4.001   0.742
    1TCM    cl3 3148   1.845   3.868   0.905
    1TCM     c1 3149   5.077   3.203   5.142
    1TCM    cl1 3150   5.220   3.308   5.128
    1TCM    cl2 3151   5.010   3.172   4.980
    1TCM     h1 3152   5.105   3.107   5.189
    1TCM    cl3 3153   4.953   3.284   5.242
    1TCM     c1 3154   2.941   5.038   3.083
    1TCM    cl1 3155   2.869   5.027   3.246
    1TCM    cl2 3156   2.811   5.057   2.963
    1TCM     h1 3157   3.008   5.126   3.079
    1TCM    cl3 3158   3.033   4.891   3.049
    1TCM     c1 3159   4.797   3.856   3.632
    1TCM    cl1 3160   4.870   4.014   3.597
    1TCM    cl2 3161   4.635   3.880   3.702
    1TCM     h1 3162   4.789   3.797   3.539
    1TCM    cl3 3163   4.899   3.768   3.749
    1TCM     c1 3164   1.646   0.894   3.177
    1TCM    cl1 3165   1.503   0.933   3.079
    1TCM    cl2 3166   1.743   0.770   3.095
    1TCM     h1 3167   1.708   0.986   3.191
    1TCM    cl3 3168   1.595   0.833   3.336
    1TCM     c1 3169   3.323   2.740   4.586
    1TCM    cl1 3170   3.231   2.616   4.498
    1TCM    cl2 3171   3.225   2.803   4.720
    1TCM     h1 3172   3.416   2.695   4.626
    1TCM    cl3 3173   3.365   2.873   4.475
    1TCM     c1 3174   2.418   4.266   0.596
    1TCM    cl1 3175   2.514   4.154   0.497
    1TCM    cl2 3176   2.261   4.193   0.633
    1TCM     h1 3177   2.473   4.288   0.690
    1TCM    cl3 3178   2.393   4.418   0.506
    1TCM     c1 3179   3.231   1.604   0.280
    1TCM    cl1 3180   3.350   1.720   0.345
    1TCM    cl2 3181   3.098   1.585   0.396
    1TCM     h1 3182   3.191   1.641   0.184
    1TCM    cl3 3183   3.310   1.446   0.255
    1TCM     c1 3184   2.334   1.736   4.046
    1TCM    cl1 3185   2.430   1.785   4.188
    1TCM    cl2 3186   2.439   1.656   3.928
    1TCM     h1 3187   2.254   1.666   4.078
    1TCM    cl3 3188   2.260   1.880   3.972
    1TCM     c1 3189   1.335   1.031   2.690
    1TCM    cl1 3190   1.460   0.918   2.749
    1TCM    cl2 3191   1.184   1.003   2.780
    1TCM     h1 3192   1.369   1.135   2.707
    1TCM    cl3 3193   1.307   1.004   2.517
    1TCM     c1 3194   2.851   4.326   5.139
    1TCM    cl1 3195   2.688   4.395   5.150
    1TCM    cl2 3196   2.946   4.416   5.020
    1TCM     h1 3197   2.900   4.332   5.239
    1TCM    cl3 3198   2.840   4.155   5.089
    1TCM     c1 3199   2.273   4.539   1.560
    1TCM    cl1 3200   2.146   4.455   1.652
    1TCM    cl2 3201   2.286   4.466   1.398
    1TCM     h1 3202   2.246   4.646   1.550
    1TCM    cl3 3203   2.428   4.524   1.644
    1TCM     c1 3204   0.993   2.512   5.123
    1TCM    cl1 3205   0.963   2.660   5.030
    1TCM    cl2 3206   0.855   2.401   5.105
    1TCM     h1 3207   1.085   2.462   5.085
    1TCM    cl3 3208   1.015   2.553   5.295
    1TCM     c1 3209   1.717   1.204   1.857
    1TCM    cl1 3210   1.578   1.311   1.824
    1TCM    cl2 3211   1.788   1.150   1.703
    1TCM     h1 3212   1.793   1.260   1.915
    1TCM    cl3 3213   1.662   1.063   1.950
    1TCM     c1 3214   0.525   3.611   3.661
    1TCM    cl1 3215   0.545   3.784   3.695
    1TCM    cl2 3216   0.679   3.543   3.604
    1TCM     h1 3217   0.494   3.558   3.754
    1TCM    cl3 3218   0.401   3.589   3.536
    1TCM     c1 3219   0.265   0.173   3.803
    1TCM    cl1 3220   0.327   0.057   3.923
    1TCM    cl2 3221   0.221   0.086   3.654
    1TCM     h1 3222   0.176   0.224   3.843
    1TCM    cl3 3223   0.391   0.293   3.766
    1TCM     c1 3224   4.264   5.206   3.308
    1TCM    cl1 3225   4.385   5.334   3.326
    1TCM    cl2 3226   4.308   5.068   3.411
    1TCM     h1 3227   4.164   5.244   3.338
    1TCM    cl3 3228   4.258   5.153   3.138
    1TCM     c1 3229   3.276   4.007   1.549
    1TCM    cl1 3230   3.211   4.169   1.516
    1TCM    cl2 3231   3.333   3.999   1.717
    1TCM     h1 3232   3.196   3.932   1.533
    1TCM    cl3 3233   3.412   3.974   1.439
    1TCM     c1 3234   4.623   4.282   3.904
    1TCM    cl1 3235   4.547   4.356   3.762
    1TCM    cl2 3236   4.587   4.380   4.048
    1TCM     h1 3237   4.584   4.180   3.918
    1TCM    cl3 3238   4.799   4.276   3.880
    1TCM     c1 3239   0.989   3.853   0.344
    1TCM    cl1 3240   1.002   3.878   0.519
    1TCM    cl2 3241   1.010   4.009   0.260
    1TCM     h1 3242   1.067   3.782   0.310
    1TCM    cl3 3243   0.829   3.786   0.305
    1TCM     c1 3244   5.100   2.345   5.100
    1TCM    cl1 3245   5.185   2.230   5.205
    1TCM    cl2 3246   5.111   2.291   4.931
    1TCM     h1 3247   4.993   2.350   5.130
    1TCM    cl3 3248   5.174   2.506   5.116
    1TCM     c1 3249   1.057   5.154   2.479
    1TCM    cl1 3250   1.012   5.260   2.614
    1TCM    cl2 3251   0.977   5.211   2.330
    1TCM     h1 3252   1.167   5.157   2.465
    1TCM    cl3 3253   1.006   4.988   2.514
    1TCM     c1 3254   1.006   1.243   4.226
    1TCM    cl1 3255   0.896   1.163   4.112
    1TCM    cl2 3256   1.023   1.143   4.372
    1TCM     h1 3257   1.106   1.255   4.178
    1TCM    cl3 3258   0.941   1.402   4.270
    1TCM     c1 3259   3.902   2.713   4.225
    1TCM    cl1 3260   4.065   2.660   4.176
    1TCM    cl2 3261   3.780   2.614   4.141
    1TCM     h1 3262   3.891   2.700   4.335
    1TCM    cl3 3263   3.880   2.884   4.182
    1TCM     c1 3264   2.299   3.498   5.202
    1TCM    cl1 3265   2.316   3.482   5.026
    1TCM    cl2 3266   2.281   3.670   5.245
    1TCM     h1 3267   2.209   3.442   5.236
    1TCM    cl3 3268   2.443   3.432   5.282
    1TCM     c1 3269   1.379   0.580   0.934
    1TCM    cl1 3270   1.432   0.497   0.786
    1TCM    cl2 3271   1.381   0.465   1.070
    1TCM     h1 3272   1.447   0.664   0.956
    1TCM    cl3 3273   1.214   0.642   0.911
    1TCM     c1 3274   2.104   2.033   2.575
    1TCM    cl1 3275   2.196   2.157   2.664
    1TCM    cl2 3276   2.182   2.002   2.418
    1TCM     h1 3277   2.102   1.939   2.634
    1TCM    cl3 3278   1.938   2.090   2.548
    1TCM     c1 3279   3.191   1.711   3.416
    1TCM    cl1 3280   3.050   1.794   3.484
    1TCM    cl2 3281   3.188   1.724   3.239
    1TCM     h1 3282   3.284   1.757   3.455
    1TCM    cl3 3283   3.186   1.539   3.462
    1TCM     c1 3284   2.831   4.773   0.363
    1TCM    cl1 3285   2.994   4.720   0.318
    1TCM    cl2 3286   2.782   4.910   0.260
    1TCM     h1 3287   2.759   4.689   0.350
    1TCM    cl3 3288   2.830   4.825   0.534
    1TCM     c1 3289   3.723   3.507   3.435
    1TCM    cl1 3290   3.639   3.623   3.330
    1TCM    cl2 3291   3.613   3.453   3.564
    1TCM     h1 3292   3.756   3.420   3.375
    1TCM    cl3 3293   3.865   3.585   3.508
    1TCM     c1 3294   2.959   4.001   1.012
    1TCM    cl1 3295   2.821   4.040   0.906
    1TCM    cl2 3296   2.996   3.828   0.999
    1TCM     h1 3297   3.047   4.061   0.982
    1TCM    cl3 3298   2.917   4.040   1.181
    1TCM     c1 3299   4.477   4.337   1.176
    1TCM    cl1 3300   4.447   4.384   1.345
    1TCM    cl2 3301   4.605   4.214   1.171
    1TCM     h1 3302   4.384   4.296   1.132
    1TCM    cl3 3303   4.528   4.481   1.084
    1TCM     c1 3304   4.609   3.056   0.304
    1TCM    cl1 3305   4.494   2.965   0.405
    1TCM    cl2 3306   4.545   3.069   0.138
    1TCM     h1 3307   4.623   3.158   0.346
    1TCM    cl3 3308   4.765   2.971   0.300
    1TCM     c1 3309   2.853   1.063   2.234
    1TCM    cl1 3310   2.868   1.190   2.110
    1TCM    cl2 3311   2.706   1.092   2.330
    1TCM     h1 3312   2.847   0.964   2.186
    1TCM    cl3 3313   2.995   1.068   2.342
    1TCM     c1 3314   3.438   4.613   2.996
    1TCM    cl1 3315   3.538   4.620   3.143
    1TCM    cl2 3316   3.443   4.448   2.930
    1TCM     h1 3317   3.333   4.639   3.021
    1TCM    cl3 3318   3.501   4.727   2.875
    1TCM     c1 3319   3.731   3.511   3.955
    1TCM    cl1 3320   3.872   3.499   4.062
    1TCM    cl2 3321   3.781   3.484   3.787
    1TCM     h1 3322   3.655   3.435   3.984
    1TCM    cl3 3323   3.660   3.674   3.970
    1TCM     c1 3324   4.183   0.308   0.213
    1TCM    cl1 3325   4.268   0.383   0.350
    1TCM    cl2 3326   4.259   0.361   0.061
    1TCM     h1 3327   4.190   0.198   0.221
    1TCM    cl3 3328   4.013   0.358   0.215
    1TCM     c1 3329   3.256   3.167   3.468
    1TCM    cl1 3330   3.180   3.303   3.554
    1TCM    cl2 3331   3.274   3.209   3.296
    1TCM     h1 3332   3.355   3.147   3.512
    1TCM    cl3 3333   3.152   3.023   3.484
    1TCM     c1 3334   2.515   0.566   3.926
    1TCM    cl1 3335   2.507   0.402   3.994
    1TCM    cl2 3336   2.351   0.624   3.891
    1TCM     h1 3337   2.564   0.634   3.999
    1TCM    cl3 3338   2.610   0.563   3.776
    1TCM     c1 3339   2.409   3.499   1.516
    1TCM    cl1 3340   2.564   3.454   1.441
    1TCM    cl2 3341   2.439   3.558   1.681
    1TCM     h1 3342   2.361   3.579   1.457
    1TCM    cl3 3343   2.302   3.357   1.522
    1TCM     c1 3344   5.084   1.382   2.445
    1TCM    cl1 3345   5.161   1.505   2.342
    1TCM    cl2 3346   5.202   1.257   2.487
    1TCM     h1 3347   5.047   1.431   2.538
    1TCM    cl3 3348   4.948   1.309   2.358
    1TCM     c1 3349   4.195   3.120   4.000
    1TCM    cl1 3350   4.038   3.062   4.060
    1TCM    cl2 3351   4.318   2.993   4.020
    1TCM     h1 3352   4.186   3.146   3.892
    1TCM    cl3 3353   4.244   3.264   4.092
    1TCM     c1 3354   1.615   3.556   3.461
    1TCM    cl1 3355   1.715   3.644   3.344
    1TCM    cl2 3356   1.628   3.381   3.431
    1TCM     h1 3357   1.651   3.578   3.564
    1TCM    cl3 3358   1.446   3.606   3.445
    1TCM     c1 3359   2.560   3.248   2.625
    1TCM    cl1 3360   2.454   3.198   2.759
    1TCM    cl2 3361   2.727   3.264   2.684
    1TCM     h1 3362   2.557   3.171   2.545
    1TCM    cl3 3363   2.505   3.404   2.560
    1TCM     c1 3364   1.972   2.852   0.125
    1TCM    cl1 3365   1.878   2.754   0.240
    1TCM    cl2 3366   1.864   2.921   0.002
    1TCM     h1 3367   2.024   2.934   0.180
    1TCM    cl3 3368   2.094   2.749   0.046
    1TCM     c1 3369   4.832   0.836   2.875
    1TCM    cl1 3370   4.833   0.658   2.881
    1TCM    cl2 3371   4.715   0.891   2.753
    1TCM     h1 3372   4.803   0.876   2.975
    1TCM    cl3 3373   4.994   0.895   2.833
    1TCM     c1 3374   4.891   2.048   1.279
    1TCM    cl1 3375   4.764   2.018   1.158
    1TCM    cl2 3376   4.846   2.190   1.377
    1TCM     h1 3377   4.901   1.960   1.345
    1TCM    cl3 3378   5.045   2.079   1.197
    1TCM     c1 3379   3.195   4.053   0.418
    1TCM    cl1 3380   3.260   3.897   0.363
    1TCM    cl2 3381   3.261   4.184   0.318
    1TCM     h1 3382   3.084   4.052   0.410
    1TCM    cl3 3383   3.241   4.080   0.588
    1TCM     c1 3384   2.754   4.038   3.605
    1TCM    cl1 3385   2.845   4.070   3.755
    1TCM    cl2 3386   2.868   3.999   3.474
    1TCM     h1 3387   2.685   3.953   3.621
    1TCM    cl3 3388   2.660   4.183   3.561
    1TCM     c1 3389   2.091   4.519   2.218
    1TCM    cl1 3390   2.195   4.381   2.261
    1TCM    cl2 3391   1.992   4.565   2.358
    1TCM     h1 3392   2.154   4.604   2.186
    1TCM    cl3 3393   1.984   4.471   2.084
    1TCM     c1 3394   1.629   1.777   0.683
    1TCM    cl1 3395   1.485   1.759   0.784
    1TCM    cl2 3396   1.753   1.867   0.772
    1TCM     h1 3397   1.669   1.676   0.656
    1TCM    cl3 3398   1.587   1.865   0.534
    1TCM     c1 3399   0.265   2.834   4.389
    1TCM    cl1 3400   0.363   2.946   4.291
    1TCM    cl2 3401   0.297   2.667   4.336
    1TCM     h1 3402   0.292   2.845   4.496
    1TCM    cl3 3403   0.093   2.871   4.367
    1TCM     c1 3404   0.518   1.583   4.706
    1TCM    cl1 3405   0.577   1.742   4.759
    1TCM    cl2 3406   0.591   1.456   4.806
    1TCM     h1 3407   0.407   1.580   4.716
    1TCM    cl3 3408   0.563   1.558   4.536
    1TCM     c1 3409   4.953   2.927   0.666
    1TCM    cl1 3410   4.910   3.066   0.769
    1TCM    cl2 3411   4.869   2.782   0.725
    1TCM     h1 3412   4.922   2.948   0.561
    1TCM    cl3 3413   5.128   2.901   0.672
    1TCM     c1 3414   2.188   4.280   4.821
    1TCM    cl1 3415   2.353   4.249   4.765
    1TCM    cl2 3416   2.193   4.351   4.985
    1TCM     h1 3417   2.138   4.351   4.752
    1TCM    cl3 3418   2.096   4.128   4.826
    1TCM     c1 3419   3.071   3.476   3.275
    1TCM    cl1 3420   2.903   3.519   3.232
    1TCM    cl2 3421   3.178   3.612   3.234
    1TCM     h1 3422   3.077   3.455   3.384
    1TCM    cl3 3423   3.120   3.332   3.184
    1TCM     c1 3424   2.973   4.365   0.384
    1TCM    cl1 3425   2.944   4.212   0.468
    1TCM    cl2 3426   3.097   4.342   0.258
    1TCM     h1 3427   2.878   4.400   0.336
    1TCM    cl3 3428   3.029   4.487   0.500
    1TCM     c1 3429   3.431   4.480   0.478
    1TCM    cl1 3430   3.504   4.390   0.344
    1TCM    cl2 3431   3.511   4.436   0.630
    1TCM     h1 3432   3.443   4.589   0.460
    1TCM    cl3 3433   3.258   4.441   0.488
    1TCM     c1 3434   2.414   3.771   1.082
    1TCM    cl1 3435   2.581   3.829   1.057
    1TCM    cl2 3436   2.401   3.694   1.241
    1TCM     h1 3437   2.344   3.857   1.076
    1TCM    cl3 3438   2.374   3.653   0.955
    1TCM     c1 3439   4.091   3.940   3.769
    1TCM    cl1 3440   4.189   3.904   3.625
    1TCM    cl2 3441   4.198   3.982   3.905
    1TCM     h1 3442   4.023   4.024   3.747
    1TCM    cl3 3443   3.995   3.796   3.812
    1TCM     c1 3444   5.221   4.782   4.202
    1TCM    cl1 3445   5.067   4.744   4.122
    1TCM    cl2 3446   5.189   4.841   4.367
    1TCM     h1 3447   5.284   4.691   4.207
    1TCM    cl3 3448   5.306   4.908   4.110
    1TCM     c1 3449   4.216   0.353   3.566
    1TCM    cl1 3450   4.242   0.228   3.690
    1TCM    cl2 3451   4.064   0.439   3.600
    1TCM     h1 3452   4.301   0.425   3.569
    1TCM    cl3 3453   4.207   0.278   3.406
    1TCM     c1 3454   2.441   2.670   3.442
    1TCM    cl1 3455   2.394   2.799   3.328
    1TCM    cl2 3456   2.391   2.715   3.606
    1TCM     h1 3457   2.392   2.575   3.413
    1TCM    cl3 3458   2.618   2.649   3.438
    1TCM     c1 3459   4.994   4.671   2.748
    1TCM    cl1 3460   5.018   4.844   2.781
    1TCM    cl2 3461   4.963   4.585   2.901
    1TCM     h1 3462   4.907   4.658   2.680
    1TCM    cl3 3463   5.140   4.605   2.672
    1TCM     c1 3464   2.395   0.831   2.062
    1TCM    cl1 3465   2.277   0.733   1.972
    1TCM    cl2 3466   2.393   0.785   2.234
    1TCM     h1 3467   2.497   0.814   2.020
    1TCM    cl3 3468   2.353   1.003   2.047
    1TCM     c1 3469   0.155   2.368   3.110
    1TCM    cl1 3470   0.068   2.351   2.956
    1TCM    cl2 3471   0.210   2.208   3.165
    1TCM     h1 3472   0.243   2.435   3.096
    1TCM    cl3 3473   0.046   2.439   3.232
    1TCM     c1 3474   1.100   4.064   1.119
    1TCM    cl1 3475   1.091   4.052   0.941
    1TCM    cl2 3476   1.215   3.944   1.181
    1TCM     h1 3477   1.133   4.166   1.147
    1TCM    cl3 3478   0.939   4.033   1.188
    1TCM     c1 3479   2.612   3.069   0.724
    1TCM    cl1 3480   2.742   3.026   0.611
    1TCM    cl2 3481   2.553   3.232   0.687
    1TCM     h1 3482   2.529   2.996   0.715
    1TCM    cl3 3483   2.675   3.066   0.891
    1TCM     c1 3484   0.694   0.659   0.867
    1TCM    cl1 3485   0.780   0.566   0.742
    1TCM    cl2 3486   0.651   0.551   1.002
    1TCM     h1 3487   0.760   0.740   0.905
    1TCM    cl3 3488   0.547   0.730   0.798
    1TCM     c1 3489   5.054   2.133   3.258
    1TCM    cl1 3490   5.018   2.255   3.381
    1TCM    cl2 3491   5.053   2.209   3.097
    1TCM     h1 3492   5.154   2.089   3.277
    1TCM    cl3 3493   4.931   2.005   3.263
    1TCM     c1 3494   2.494   1.029   3.493
    1TCM    cl1 3495   2.624   1.064   3.377
    1TCM    cl2 3496   2.538   1.094   3.652
    1TCM     h1 3497   2.400   1.076   3.458
    1TCM    cl3 3498   2.471   0.853   3.506
    1TCM     c1 3499   5.088   1.033   2.252
    1TCM    cl1 3500   5.186   1.173   2.204
    1TCM    cl2 3501   5.167   0.883   2.197
    1TCM     h1 3502   5.078   1.030   2.363
    1TCM    cl3 3503   4.927   1.045   2.178
    1TCM     c1 3504   3.976   0.504   4.515
    1TCM    cl1 3505   3.832   0.437   4.594
    1TCM    cl2 3506   4.003   0.671   4.572
    1TCM     h1 3507   4.064   0.442   4.540
    1TCM    cl3 3508   3.952   0.505   4.339
    1TCM     c1 3509   5.112   0.885   5.066
    1TCM    cl1 3510   5.207   0.803   4.940
    1TCM    cl2 3511   5.190   0.861   5.224
    1TCM     h1 3512   5.107   0.993   5.043
    1TCM    cl3 3513   4.948   0.817   5.070
    1TCM     c1 3514   2.882   0.553   1.511
    1TCM    cl1 3515   3.017   0.644   1.438
    1TCM    cl2 3516   2.858   0.608   1.679
    1TCM     h1 3517   2.790   0.571   1.453
    1TCM    cl3 3518   2.921   0.380   1.510
    1TCM     c1 3519   2.111   1.361   3.802
    1TCM    cl1 3520   2.187   1.422   3.950
    1TCM    cl2 3521   1.965   1.268   3.844
    1TCM     h1 3522   2.082   1.447   3.737
    1TCM    cl3 3523   2.225   1.256   3.715
    1TCM     c1 3524   3.423   1.415   2.157
    1TCM    cl1 3525   3.391   1.500   2.004
    1TCM    cl2 3526   3.583   1.462   2.219
    1TCM     h1 3527   3.345   1.443   2.231
    1TCM    cl3 3528   3.419   1.240   2.129
    1TCM     c1 3529   3.878   2.150   4.328
    1TCM    cl1 3530   4.005   2.084   4.223
    1TCM    cl2 3531   3.940   2.165   4.494
    1TCM     h1 3532   3.847   2.249   4.290
    1TCM    cl3 3533   3.738   2.040   4.327
    1TCM     c1 3534   1.574   2.226   4.420
    1TCM    cl1 3535   1.397   2.211   4.424
    1TCM    cl2 3536   1.618   2.395   4.389
    1TCM     h1 3537   1.616   2.194   4.518
    1TCM    cl3 3538   1.639   2.123   4.291
    1TCM     c1 3539   1.072   0.453   2.046
    1TCM    cl1 3540   1.003   0.457   2.211
    1TCM    cl2 3541   1.062   0.287   1.983
    1TCM     h1 3542   1.014   0.521   1.981
    1TCM    cl3 3543   1.242   0.504   2.052
   5.54000   5.54000   5.54000
