;
;   File mop_octamer_system_openff_hmr.top  was generated
;   By user: tlf3 (1000)
;   On host:647TRCJM3 
;   At date:Wed. March  3 14:16:18 2026 
;
;   This is a standalone topology file
;
;   Created by:
;   ParmEd:       hmr_topology, VERSION4.3.0 
;   Executable:   hmr_topology
;   Library dir:  /home/tlf3/miniforge3/envs/terphenyl/share/gromacs/top
;   Command line:
;     hmr_topology -t mop_octamer_system_openff.top -o mop_octamer_system_openff_hmr.top --hmr_ratio 3
;

[ defaults ]
; nbfunc        comb-rule       gen-pairs       fudgeLJ fudgeQQ
1               2               yes             0.5          0.833333    

[ atomtypes ]
; name    at.num    mass    charge ptype  sigma      epsilon
em_helix_mop_octamer_0        6  12.010780  0.00000000  A     0.34806469     0.36350306
em_helix_mop_octamer_1        8  15.999430  0.00000000  A     0.30398122     0.87950233
em_helix_mop_octamer_2        6  12.010780  0.00000000  A     0.34806469     0.36350306
em_helix_mop_octamer_3        6  12.010780  0.00000000  A     0.34806469     0.36350306
em_helix_mop_octamer_4        6  12.010780  0.00000000  A     0.34806469     0.36350306
em_helix_mop_octamer_5        6  12.010780  0.00000000  A     0.34806469     0.36350306
em_helix_mop_octamer_6        6  12.010780  0.00000000  A     0.34806469     0.36350306
em_helix_mop_octamer_7        6  12.010780  0.00000000  A     0.34806469     0.36350306
em_helix_mop_octamer_8        6  12.010780  0.00000000  A     0.34806469     0.36350306
em_helix_mop_octamer_9        6  12.010780  0.00000000  A     0.34806469     0.36350306
em_helix_mop_octamer_10        8  15.999430  0.00000000  A     0.30251065     0.70485815
em_helix_mop_octamer_11        6  12.010780  0.00000000  A     0.33996695      0.4577296
em_helix_mop_octamer_12        6  12.010780  0.00000000  A     0.34806469     0.36350306
em_helix_mop_octamer_13        6  12.010780  0.00000000  A     0.34806469     0.36350306
em_helix_mop_octamer_14        6  12.010780  0.00000000  A     0.34806469     0.36350306
em_helix_mop_octamer_15        6  12.010780  0.00000000  A     0.34806469     0.36350306
em_helix_mop_octamer_16        6  12.010780  0.00000000  A     0.34806469     0.36350306
em_helix_mop_octamer_17        6  12.010780  0.00000000  A     0.34806469     0.36350306
em_helix_mop_octamer_18        6  12.010780  0.00000000  A     0.34806469     0.36350306
em_helix_mop_octamer_19        6  12.010780  0.00000000  A     0.34806469     0.36350306
em_helix_mop_octamer_20        6  12.010780  0.00000000  A     0.33996695      0.4577296
em_helix_mop_octamer_21        7  14.006720  0.00000000  A      0.3206876      0.7016213
em_helix_mop_octamer_22        6  12.010780  0.00000000  A     0.33996695      0.4577296
em_helix_mop_octamer_23        6  12.010780  0.00000000  A     0.34806469     0.36350306
em_helix_mop_octamer_24        6  12.010780  0.00000000  A     0.34806469     0.36350306
em_helix_mop_octamer_25        1   1.007947  0.00000000  A     0.25725815     0.06531786
em_helix_mop_octamer_26        1   1.007947  0.00000000  A     0.25725815     0.06531786
em_helix_mop_octamer_27        1   1.007947  0.00000000  A     0.25725815     0.06531786
em_helix_mop_octamer_28        1   1.007947  0.00000000  A     0.25832257    0.068656285
em_helix_mop_octamer_29        1   1.007947  0.00000000  A     0.25832257    0.068656285
em_helix_mop_octamer_30        1   1.007947  0.00000000  A     0.25832257    0.068656285
em_helix_mop_octamer_31        1   1.007947  0.00000000  A     0.25725815     0.06531786
em_helix_mop_octamer_32        1   1.007947  0.00000000  A     0.25725815     0.06531786
em_helix_mop_octamer_33        1   1.007947  0.00000000  A     0.25725815     0.06531786
em_helix_mop_octamer_34        1   1.007947  0.00000000  A     0.25725815     0.06531786
em_helix_mop_octamer_35        1   1.007947  0.00000000  A     0.25725815     0.06531786
em_helix_mop_octamer_36        1   1.007947  0.00000000  A     0.25725815     0.06531786
em_helix_mop_octamer_37        1   1.007947  0.00000000  A     0.25832257    0.068656285
em_helix_mop_octamer_38        1   1.007947  0.00000000  A     0.11034277    0.058955969
em_helix_mop_octamer_39        1   1.007947  0.00000000  A     0.26445434    0.066021356
em_helix_mop_octamer_40        1   1.007947  0.00000000  A     0.26445434    0.066021356
em_helix_mop_octamer_41        1   1.007947  0.00000000  A     0.26445434    0.066021356
em_helix_mop_octamer_42        1   1.007947  0.00000000  A     0.25725815     0.06531786
em_helix_mop_octamer_43        1   1.007947  0.00000000  A     0.25725815     0.06531786
em_helix_mop_octamer_44        6  12.010780  0.00000000  A     0.34806469     0.36350306
em_helix_mop_octamer_45        8  15.999430  0.00000000  A     0.30398122     0.87950233
em_helix_mop_octamer_46        6  12.010780  0.00000000  A     0.34806469     0.36350306
em_helix_mop_octamer_47        6  12.010780  0.00000000  A     0.34806469     0.36350306
em_helix_mop_octamer_48        6  12.010780  0.00000000  A     0.34806469     0.36350306
em_helix_mop_octamer_49        6  12.010780  0.00000000  A     0.34806469     0.36350306
em_helix_mop_octamer_50        6  12.010780  0.00000000  A     0.34806469     0.36350306
em_helix_mop_octamer_51        6  12.010780  0.00000000  A     0.34806469     0.36350306
em_helix_mop_octamer_52        6  12.010780  0.00000000  A     0.34806469     0.36350306
em_helix_mop_octamer_53        6  12.010780  0.00000000  A     0.34806469     0.36350306
em_helix_mop_octamer_54        8  15.999430  0.00000000  A     0.30251065     0.70485815
em_helix_mop_octamer_55        6  12.010780  0.00000000  A     0.33996695      0.4577296
em_helix_mop_octamer_56        6  12.010780  0.00000000  A     0.34806469     0.36350306
em_helix_mop_octamer_57        6  12.010780  0.00000000  A     0.34806469     0.36350306
em_helix_mop_octamer_58        6  12.010780  0.00000000  A     0.34806469     0.36350306
em_helix_mop_octamer_59        6  12.010780  0.00000000  A     0.34806469     0.36350306
em_helix_mop_octamer_60        6  12.010780  0.00000000  A     0.34806469     0.36350306
em_helix_mop_octamer_61        6  12.010780  0.00000000  A     0.34806469     0.36350306
em_helix_mop_octamer_62        6  12.010780  0.00000000  A     0.34806469     0.36350306
em_helix_mop_octamer_63        6  12.010780  0.00000000  A     0.34806469     0.36350306
em_helix_mop_octamer_64        6  12.010780  0.00000000  A     0.33996695      0.4577296
em_helix_mop_octamer_65        7  14.006720  0.00000000  A      0.3206876      0.7016213
em_helix_mop_octamer_66        6  12.010780  0.00000000  A     0.33996695      0.4577296
em_helix_mop_octamer_67        6  12.010780  0.00000000  A     0.34806469     0.36350306
em_helix_mop_octamer_68        6  12.010780  0.00000000  A     0.34806469     0.36350306
em_helix_mop_octamer_69        1   1.007947  0.00000000  A     0.25725815     0.06531786
em_helix_mop_octamer_70        1   1.007947  0.00000000  A     0.25725815     0.06531786
em_helix_mop_octamer_71        1   1.007947  0.00000000  A     0.25725815     0.06531786
em_helix_mop_octamer_72        1   1.007947  0.00000000  A     0.25832257    0.068656285
em_helix_mop_octamer_73        1   1.007947  0.00000000  A     0.25832257    0.068656285
em_helix_mop_octamer_74        1   1.007947  0.00000000  A     0.25832257    0.068656285
em_helix_mop_octamer_75        1   1.007947  0.00000000  A     0.25725815     0.06531786
em_helix_mop_octamer_76        1   1.007947  0.00000000  A     0.25725815     0.06531786
em_helix_mop_octamer_77        1   1.007947  0.00000000  A     0.25725815     0.06531786
em_helix_mop_octamer_78        1   1.007947  0.00000000  A     0.25725815     0.06531786
em_helix_mop_octamer_79        1   1.007947  0.00000000  A     0.25725815     0.06531786
em_helix_mop_octamer_80        1   1.007947  0.00000000  A     0.25725815     0.06531786
em_helix_mop_octamer_81        1   1.007947  0.00000000  A     0.25832257    0.068656285
em_helix_mop_octamer_82        1   1.007947  0.00000000  A     0.11034277    0.058955969
em_helix_mop_octamer_83        1   1.007947  0.00000000  A     0.26445434    0.066021356
em_helix_mop_octamer_84        1   1.007947  0.00000000  A     0.26445434    0.066021356
em_helix_mop_octamer_85        1   1.007947  0.00000000  A     0.26445434    0.066021356
em_helix_mop_octamer_86        1   1.007947  0.00000000  A     0.25725815     0.06531786
em_helix_mop_octamer_87        1   1.007947  0.00000000  A     0.25725815     0.06531786
em_helix_mop_octamer_88        6  12.010780  0.00000000  A     0.34806469     0.36350306
em_helix_mop_octamer_89        8  15.999430  0.00000000  A     0.30398122     0.87950233
em_helix_mop_octamer_90        6  12.010780  0.00000000  A     0.34806469     0.36350306
em_helix_mop_octamer_91        6  12.010780  0.00000000  A     0.34806469     0.36350306
em_helix_mop_octamer_92        6  12.010780  0.00000000  A     0.34806469     0.36350306
em_helix_mop_octamer_93        6  12.010780  0.00000000  A     0.34806469     0.36350306
em_helix_mop_octamer_94        6  12.010780  0.00000000  A     0.34806469     0.36350306
em_helix_mop_octamer_95        6  12.010780  0.00000000  A     0.34806469     0.36350306
em_helix_mop_octamer_96        6  12.010780  0.00000000  A     0.34806469     0.36350306
em_helix_mop_octamer_97        6  12.010780  0.00000000  A     0.34806469     0.36350306
em_helix_mop_octamer_98        8  15.999430  0.00000000  A     0.30251065     0.70485815
em_helix_mop_octamer_99        6  12.010780  0.00000000  A     0.33996695      0.4577296
em_helix_mop_octamer_100        6  12.010780  0.00000000  A     0.34806469     0.36350306
em_helix_mop_octamer_101        6  12.010780  0.00000000  A     0.34806469     0.36350306
em_helix_mop_octamer_102        6  12.010780  0.00000000  A     0.34806469     0.36350306
em_helix_mop_octamer_103        6  12.010780  0.00000000  A     0.34806469     0.36350306
em_helix_mop_octamer_104        6  12.010780  0.00000000  A     0.34806469     0.36350306
em_helix_mop_octamer_105        6  12.010780  0.00000000  A     0.34806469     0.36350306
em_helix_mop_octamer_106        6  12.010780  0.00000000  A     0.34806469     0.36350306
em_helix_mop_octamer_107        6  12.010780  0.00000000  A     0.34806469     0.36350306
em_helix_mop_octamer_108        6  12.010780  0.00000000  A     0.33996695      0.4577296
em_helix_mop_octamer_109        7  14.006720  0.00000000  A      0.3206876      0.7016213
em_helix_mop_octamer_110        6  12.010780  0.00000000  A     0.33996695      0.4577296
em_helix_mop_octamer_111        6  12.010780  0.00000000  A     0.34806469     0.36350306
em_helix_mop_octamer_112        6  12.010780  0.00000000  A     0.34806469     0.36350306
em_helix_mop_octamer_113        1   1.007947  0.00000000  A     0.25725815     0.06531786
em_helix_mop_octamer_114        1   1.007947  0.00000000  A     0.25725815     0.06531786
em_helix_mop_octamer_115        1   1.007947  0.00000000  A     0.25725815     0.06531786
em_helix_mop_octamer_116        1   1.007947  0.00000000  A     0.25832257    0.068656285
em_helix_mop_octamer_117        1   1.007947  0.00000000  A     0.25832257    0.068656285
em_helix_mop_octamer_118        1   1.007947  0.00000000  A     0.25832257    0.068656285
em_helix_mop_octamer_119        1   1.007947  0.00000000  A     0.25725815     0.06531786
em_helix_mop_octamer_120        1   1.007947  0.00000000  A     0.25725815     0.06531786
em_helix_mop_octamer_121        1   1.007947  0.00000000  A     0.25725815     0.06531786
em_helix_mop_octamer_122        1   1.007947  0.00000000  A     0.25725815     0.06531786
em_helix_mop_octamer_123        1   1.007947  0.00000000  A     0.25725815     0.06531786
em_helix_mop_octamer_124        1   1.007947  0.00000000  A     0.25725815     0.06531786
em_helix_mop_octamer_125        1   1.007947  0.00000000  A     0.25832257    0.068656285
em_helix_mop_octamer_126        1   1.007947  0.00000000  A     0.11034277    0.058955969
em_helix_mop_octamer_127        1   1.007947  0.00000000  A     0.26445434    0.066021356
em_helix_mop_octamer_128        1   1.007947  0.00000000  A     0.26445434    0.066021356
em_helix_mop_octamer_129        1   1.007947  0.00000000  A     0.26445434    0.066021356
em_helix_mop_octamer_130        1   1.007947  0.00000000  A     0.25725815     0.06531786
em_helix_mop_octamer_131        1   1.007947  0.00000000  A     0.25725815     0.06531786
em_helix_mop_octamer_132        6  12.010780  0.00000000  A     0.34806469     0.36350306
em_helix_mop_octamer_133        8  15.999430  0.00000000  A     0.30398122     0.87950233
em_helix_mop_octamer_134        6  12.010780  0.00000000  A     0.34806469     0.36350306
em_helix_mop_octamer_135        6  12.010780  0.00000000  A     0.34806469     0.36350306
em_helix_mop_octamer_136        6  12.010780  0.00000000  A     0.34806469     0.36350306
em_helix_mop_octamer_137        6  12.010780  0.00000000  A     0.34806469     0.36350306
em_helix_mop_octamer_138        6  12.010780  0.00000000  A     0.34806469     0.36350306
em_helix_mop_octamer_139        6  12.010780  0.00000000  A     0.34806469     0.36350306
em_helix_mop_octamer_140        6  12.010780  0.00000000  A     0.34806469     0.36350306
em_helix_mop_octamer_141        6  12.010780  0.00000000  A     0.34806469     0.36350306
em_helix_mop_octamer_142        8  15.999430  0.00000000  A     0.30251065     0.70485815
em_helix_mop_octamer_143        6  12.010780  0.00000000  A     0.33996695      0.4577296
em_helix_mop_octamer_144        6  12.010780  0.00000000  A     0.34806469     0.36350306
em_helix_mop_octamer_145        6  12.010780  0.00000000  A     0.34806469     0.36350306
em_helix_mop_octamer_146        6  12.010780  0.00000000  A     0.34806469     0.36350306
em_helix_mop_octamer_147        6  12.010780  0.00000000  A     0.34806469     0.36350306
em_helix_mop_octamer_148        6  12.010780  0.00000000  A     0.34806469     0.36350306
em_helix_mop_octamer_149        6  12.010780  0.00000000  A     0.34806469     0.36350306
em_helix_mop_octamer_150        6  12.010780  0.00000000  A     0.34806469     0.36350306
em_helix_mop_octamer_151        6  12.010780  0.00000000  A     0.34806469     0.36350306
em_helix_mop_octamer_152        6  12.010780  0.00000000  A     0.33996695      0.4577296
em_helix_mop_octamer_153        7  14.006720  0.00000000  A      0.3206876      0.7016213
em_helix_mop_octamer_154        6  12.010780  0.00000000  A     0.33996695      0.4577296
em_helix_mop_octamer_155        6  12.010780  0.00000000  A     0.34806469     0.36350306
em_helix_mop_octamer_156        6  12.010780  0.00000000  A     0.34806469     0.36350306
em_helix_mop_octamer_157        1   1.007947  0.00000000  A     0.25725815     0.06531786
em_helix_mop_octamer_158        1   1.007947  0.00000000  A     0.25725815     0.06531786
em_helix_mop_octamer_159        1   1.007947  0.00000000  A     0.25725815     0.06531786
em_helix_mop_octamer_160        1   1.007947  0.00000000  A     0.25832257    0.068656285
em_helix_mop_octamer_161        1   1.007947  0.00000000  A     0.25832257    0.068656285
em_helix_mop_octamer_162        1   1.007947  0.00000000  A     0.25832257    0.068656285
em_helix_mop_octamer_163        1   1.007947  0.00000000  A     0.25725815     0.06531786
em_helix_mop_octamer_164        1   1.007947  0.00000000  A     0.25725815     0.06531786
em_helix_mop_octamer_165        1   1.007947  0.00000000  A     0.25725815     0.06531786
em_helix_mop_octamer_166        1   1.007947  0.00000000  A     0.25725815     0.06531786
em_helix_mop_octamer_167        1   1.007947  0.00000000  A     0.25725815     0.06531786
em_helix_mop_octamer_168        1   1.007947  0.00000000  A     0.25725815     0.06531786
em_helix_mop_octamer_169        1   1.007947  0.00000000  A     0.25832257    0.068656285
em_helix_mop_octamer_170        1   1.007947  0.00000000  A     0.11034277    0.058955969
em_helix_mop_octamer_171        1   1.007947  0.00000000  A     0.26445434    0.066021356
em_helix_mop_octamer_172        1   1.007947  0.00000000  A     0.26445434    0.066021356
em_helix_mop_octamer_173        1   1.007947  0.00000000  A     0.26445434    0.066021356
em_helix_mop_octamer_174        1   1.007947  0.00000000  A     0.25725815     0.06531786
em_helix_mop_octamer_175        1   1.007947  0.00000000  A     0.25725815     0.06531786
em_helix_mop_octamer_176        6  12.010780  0.00000000  A     0.34806469     0.36350306
em_helix_mop_octamer_177        8  15.999430  0.00000000  A     0.30398122     0.87950233
em_helix_mop_octamer_178        6  12.010780  0.00000000  A     0.34806469     0.36350306
em_helix_mop_octamer_179        6  12.010780  0.00000000  A     0.34806469     0.36350306
em_helix_mop_octamer_180        6  12.010780  0.00000000  A     0.34806469     0.36350306
em_helix_mop_octamer_181        6  12.010780  0.00000000  A     0.34806469     0.36350306
em_helix_mop_octamer_182        6  12.010780  0.00000000  A     0.34806469     0.36350306
em_helix_mop_octamer_183        6  12.010780  0.00000000  A     0.34806469     0.36350306
em_helix_mop_octamer_184        6  12.010780  0.00000000  A     0.34806469     0.36350306
em_helix_mop_octamer_185        6  12.010780  0.00000000  A     0.34806469     0.36350306
em_helix_mop_octamer_186        8  15.999430  0.00000000  A     0.30251065     0.70485815
em_helix_mop_octamer_187        6  12.010780  0.00000000  A     0.33996695      0.4577296
em_helix_mop_octamer_188        6  12.010780  0.00000000  A     0.34806469     0.36350306
em_helix_mop_octamer_189        6  12.010780  0.00000000  A     0.34806469     0.36350306
em_helix_mop_octamer_190        6  12.010780  0.00000000  A     0.34806469     0.36350306
em_helix_mop_octamer_191        6  12.010780  0.00000000  A     0.34806469     0.36350306
em_helix_mop_octamer_192        6  12.010780  0.00000000  A     0.34806469     0.36350306
em_helix_mop_octamer_193        6  12.010780  0.00000000  A     0.34806469     0.36350306
em_helix_mop_octamer_194        6  12.010780  0.00000000  A     0.34806469     0.36350306
em_helix_mop_octamer_195        6  12.010780  0.00000000  A     0.34806469     0.36350306
em_helix_mop_octamer_196        6  12.010780  0.00000000  A     0.33996695      0.4577296
em_helix_mop_octamer_197        7  14.006720  0.00000000  A      0.3206876      0.7016213
em_helix_mop_octamer_198        6  12.010780  0.00000000  A     0.33996695      0.4577296
em_helix_mop_octamer_199        6  12.010780  0.00000000  A     0.34806469     0.36350306
em_helix_mop_octamer_200        6  12.010780  0.00000000  A     0.34806469     0.36350306
em_helix_mop_octamer_201        1   1.007947  0.00000000  A     0.25725815     0.06531786
em_helix_mop_octamer_202        1   1.007947  0.00000000  A     0.25725815     0.06531786
em_helix_mop_octamer_203        1   1.007947  0.00000000  A     0.25725815     0.06531786
em_helix_mop_octamer_204        1   1.007947  0.00000000  A     0.25832257    0.068656285
em_helix_mop_octamer_205        1   1.007947  0.00000000  A     0.25832257    0.068656285
em_helix_mop_octamer_206        1   1.007947  0.00000000  A     0.25832257    0.068656285
em_helix_mop_octamer_207        1   1.007947  0.00000000  A     0.25725815     0.06531786
em_helix_mop_octamer_208        1   1.007947  0.00000000  A     0.25725815     0.06531786
em_helix_mop_octamer_209        1   1.007947  0.00000000  A     0.25725815     0.06531786
em_helix_mop_octamer_210        1   1.007947  0.00000000  A     0.25725815     0.06531786
em_helix_mop_octamer_211        1   1.007947  0.00000000  A     0.25725815     0.06531786
em_helix_mop_octamer_212        1   1.007947  0.00000000  A     0.25725815     0.06531786
em_helix_mop_octamer_213        1   1.007947  0.00000000  A     0.25832257    0.068656285
em_helix_mop_octamer_214        1   1.007947  0.00000000  A     0.11034277    0.058955969
em_helix_mop_octamer_215        1   1.007947  0.00000000  A     0.26445434    0.066021356
em_helix_mop_octamer_216        1   1.007947  0.00000000  A     0.26445434    0.066021356
em_helix_mop_octamer_217        1   1.007947  0.00000000  A     0.26445434    0.066021356
em_helix_mop_octamer_218        1   1.007947  0.00000000  A     0.25725815     0.06531786
em_helix_mop_octamer_219        1   1.007947  0.00000000  A     0.25725815     0.06531786
em_helix_mop_octamer_220        6  12.010780  0.00000000  A     0.34806469     0.36350306
em_helix_mop_octamer_221        8  15.999430  0.00000000  A     0.30398122     0.87950233
em_helix_mop_octamer_222        6  12.010780  0.00000000  A     0.34806469     0.36350306
em_helix_mop_octamer_223        6  12.010780  0.00000000  A     0.34806469     0.36350306
em_helix_mop_octamer_224        6  12.010780  0.00000000  A     0.34806469     0.36350306
em_helix_mop_octamer_225        6  12.010780  0.00000000  A     0.34806469     0.36350306
em_helix_mop_octamer_226        6  12.010780  0.00000000  A     0.34806469     0.36350306
em_helix_mop_octamer_227        6  12.010780  0.00000000  A     0.34806469     0.36350306
em_helix_mop_octamer_228        6  12.010780  0.00000000  A     0.34806469     0.36350306
em_helix_mop_octamer_229        6  12.010780  0.00000000  A     0.34806469     0.36350306
em_helix_mop_octamer_230        8  15.999430  0.00000000  A     0.30251065     0.70485815
em_helix_mop_octamer_231        6  12.010780  0.00000000  A     0.33996695      0.4577296
em_helix_mop_octamer_232        6  12.010780  0.00000000  A     0.34806469     0.36350306
em_helix_mop_octamer_233        6  12.010780  0.00000000  A     0.34806469     0.36350306
em_helix_mop_octamer_234        6  12.010780  0.00000000  A     0.34806469     0.36350306
em_helix_mop_octamer_235        6  12.010780  0.00000000  A     0.34806469     0.36350306
em_helix_mop_octamer_236        6  12.010780  0.00000000  A     0.34806469     0.36350306
em_helix_mop_octamer_237        6  12.010780  0.00000000  A     0.34806469     0.36350306
em_helix_mop_octamer_238        6  12.010780  0.00000000  A     0.34806469     0.36350306
em_helix_mop_octamer_239        6  12.010780  0.00000000  A     0.34806469     0.36350306
em_helix_mop_octamer_240        6  12.010780  0.00000000  A     0.33996695      0.4577296
em_helix_mop_octamer_241        7  14.006720  0.00000000  A      0.3206876      0.7016213
em_helix_mop_octamer_242        6  12.010780  0.00000000  A     0.33996695      0.4577296
em_helix_mop_octamer_243        6  12.010780  0.00000000  A     0.34806469     0.36350306
em_helix_mop_octamer_244        6  12.010780  0.00000000  A     0.34806469     0.36350306
em_helix_mop_octamer_245        1   1.007947  0.00000000  A     0.25725815     0.06531786
em_helix_mop_octamer_246        1   1.007947  0.00000000  A     0.25725815     0.06531786
em_helix_mop_octamer_247        1   1.007947  0.00000000  A     0.25725815     0.06531786
em_helix_mop_octamer_248        1   1.007947  0.00000000  A     0.25832257    0.068656285
em_helix_mop_octamer_249        1   1.007947  0.00000000  A     0.25832257    0.068656285
em_helix_mop_octamer_250        1   1.007947  0.00000000  A     0.25832257    0.068656285
em_helix_mop_octamer_251        1   1.007947  0.00000000  A     0.25725815     0.06531786
em_helix_mop_octamer_252        1   1.007947  0.00000000  A     0.25725815     0.06531786
em_helix_mop_octamer_253        1   1.007947  0.00000000  A     0.25725815     0.06531786
em_helix_mop_octamer_254        1   1.007947  0.00000000  A     0.25725815     0.06531786
em_helix_mop_octamer_255        1   1.007947  0.00000000  A     0.25725815     0.06531786
em_helix_mop_octamer_256        1   1.007947  0.00000000  A     0.25725815     0.06531786
em_helix_mop_octamer_257        1   1.007947  0.00000000  A     0.25832257    0.068656285
em_helix_mop_octamer_258        1   1.007947  0.00000000  A     0.11034277    0.058955969
em_helix_mop_octamer_259        1   1.007947  0.00000000  A     0.26445434    0.066021356
em_helix_mop_octamer_260        1   1.007947  0.00000000  A     0.26445434    0.066021356
em_helix_mop_octamer_261        1   1.007947  0.00000000  A     0.26445434    0.066021356
em_helix_mop_octamer_262        1   1.007947  0.00000000  A     0.25725815     0.06531786
em_helix_mop_octamer_263        1   1.007947  0.00000000  A     0.25725815     0.06531786
em_helix_mop_octamer_264        6  12.010780  0.00000000  A     0.34806469     0.36350306
em_helix_mop_octamer_265        8  15.999430  0.00000000  A     0.30398122     0.87950233
em_helix_mop_octamer_266        6  12.010780  0.00000000  A     0.34806469     0.36350306
em_helix_mop_octamer_267        6  12.010780  0.00000000  A     0.34806469     0.36350306
em_helix_mop_octamer_268        6  12.010780  0.00000000  A     0.34806469     0.36350306
em_helix_mop_octamer_269        6  12.010780  0.00000000  A     0.34806469     0.36350306
em_helix_mop_octamer_270        6  12.010780  0.00000000  A     0.34806469     0.36350306
em_helix_mop_octamer_271        6  12.010780  0.00000000  A     0.34806469     0.36350306
em_helix_mop_octamer_272        6  12.010780  0.00000000  A     0.34806469     0.36350306
em_helix_mop_octamer_273        6  12.010780  0.00000000  A     0.34806469     0.36350306
em_helix_mop_octamer_274        8  15.999430  0.00000000  A     0.30251065     0.70485815
em_helix_mop_octamer_275        6  12.010780  0.00000000  A     0.33996695      0.4577296
em_helix_mop_octamer_276        6  12.010780  0.00000000  A     0.34806469     0.36350306
em_helix_mop_octamer_277        6  12.010780  0.00000000  A     0.34806469     0.36350306
em_helix_mop_octamer_278        6  12.010780  0.00000000  A     0.34806469     0.36350306
em_helix_mop_octamer_279        6  12.010780  0.00000000  A     0.34806469     0.36350306
em_helix_mop_octamer_280        6  12.010780  0.00000000  A     0.34806469     0.36350306
em_helix_mop_octamer_281        6  12.010780  0.00000000  A     0.34806469     0.36350306
em_helix_mop_octamer_282        6  12.010780  0.00000000  A     0.34806469     0.36350306
em_helix_mop_octamer_283        6  12.010780  0.00000000  A     0.34806469     0.36350306
em_helix_mop_octamer_284        6  12.010780  0.00000000  A     0.33996695      0.4577296
em_helix_mop_octamer_285        7  14.006720  0.00000000  A      0.3206876      0.7016213
em_helix_mop_octamer_286        6  12.010780  0.00000000  A     0.33996695      0.4577296
em_helix_mop_octamer_287        6  12.010780  0.00000000  A     0.34806469     0.36350306
em_helix_mop_octamer_288        6  12.010780  0.00000000  A     0.34806469     0.36350306
em_helix_mop_octamer_289        1   1.007947  0.00000000  A     0.25725815     0.06531786
em_helix_mop_octamer_290        1   1.007947  0.00000000  A     0.25725815     0.06531786
em_helix_mop_octamer_291        1   1.007947  0.00000000  A     0.25725815     0.06531786
em_helix_mop_octamer_292        1   1.007947  0.00000000  A     0.25832257    0.068656285
em_helix_mop_octamer_293        1   1.007947  0.00000000  A     0.25832257    0.068656285
em_helix_mop_octamer_294        1   1.007947  0.00000000  A     0.25832257    0.068656285
em_helix_mop_octamer_295        1   1.007947  0.00000000  A     0.25725815     0.06531786
em_helix_mop_octamer_296        1   1.007947  0.00000000  A     0.25725815     0.06531786
em_helix_mop_octamer_297        1   1.007947  0.00000000  A     0.25725815     0.06531786
em_helix_mop_octamer_298        1   1.007947  0.00000000  A     0.25725815     0.06531786
em_helix_mop_octamer_299        1   1.007947  0.00000000  A     0.25725815     0.06531786
em_helix_mop_octamer_300        1   1.007947  0.00000000  A     0.25725815     0.06531786
em_helix_mop_octamer_301        1   1.007947  0.00000000  A     0.25832257    0.068656285
em_helix_mop_octamer_302        1   1.007947  0.00000000  A     0.11034277    0.058955969
em_helix_mop_octamer_303        1   1.007947  0.00000000  A     0.26445434    0.066021356
em_helix_mop_octamer_304        1   1.007947  0.00000000  A     0.26445434    0.066021356
em_helix_mop_octamer_305        1   1.007947  0.00000000  A     0.26445434    0.066021356
em_helix_mop_octamer_306        1   1.007947  0.00000000  A     0.25725815     0.06531786
em_helix_mop_octamer_307        1   1.007947  0.00000000  A     0.25725815     0.06531786
em_helix_mop_octamer_308        6  12.010780  0.00000000  A     0.34806469     0.36350306
em_helix_mop_octamer_309        8  15.999430  0.00000000  A     0.30398122     0.87950233
em_helix_mop_octamer_310        6  12.010780  0.00000000  A     0.34806469     0.36350306
em_helix_mop_octamer_311        6  12.010780  0.00000000  A     0.34806469     0.36350306
em_helix_mop_octamer_312        6  12.010780  0.00000000  A     0.34806469     0.36350306
em_helix_mop_octamer_313        6  12.010780  0.00000000  A     0.34806469     0.36350306
em_helix_mop_octamer_314        6  12.010780  0.00000000  A     0.34806469     0.36350306
em_helix_mop_octamer_315        6  12.010780  0.00000000  A     0.34806469     0.36350306
em_helix_mop_octamer_316        6  12.010780  0.00000000  A     0.34806469     0.36350306
em_helix_mop_octamer_317        6  12.010780  0.00000000  A     0.34806469     0.36350306
em_helix_mop_octamer_318        8  15.999430  0.00000000  A     0.30251065     0.70485815
em_helix_mop_octamer_319        6  12.010780  0.00000000  A     0.33996695      0.4577296
em_helix_mop_octamer_320        6  12.010780  0.00000000  A     0.34806469     0.36350306
em_helix_mop_octamer_321        6  12.010780  0.00000000  A     0.34806469     0.36350306
em_helix_mop_octamer_322        6  12.010780  0.00000000  A     0.34806469     0.36350306
em_helix_mop_octamer_323        6  12.010780  0.00000000  A     0.34806469     0.36350306
em_helix_mop_octamer_324        6  12.010780  0.00000000  A     0.34806469     0.36350306
em_helix_mop_octamer_325        6  12.010780  0.00000000  A     0.34806469     0.36350306
em_helix_mop_octamer_326        6  12.010780  0.00000000  A     0.34806469     0.36350306
em_helix_mop_octamer_327        6  12.010780  0.00000000  A     0.34806469     0.36350306
em_helix_mop_octamer_328        6  12.010780  0.00000000  A     0.33996695      0.4577296
em_helix_mop_octamer_329        7  14.006720  0.00000000  A      0.3206876      0.7016213
em_helix_mop_octamer_330        6  12.010780  0.00000000  A     0.33996695      0.4577296
em_helix_mop_octamer_331        6  12.010780  0.00000000  A     0.34806469     0.36350306
em_helix_mop_octamer_332        6  12.010780  0.00000000  A     0.34806469     0.36350306
em_helix_mop_octamer_333        1   1.007947  0.00000000  A     0.25725815     0.06531786
em_helix_mop_octamer_334        1   1.007947  0.00000000  A     0.25725815     0.06531786
em_helix_mop_octamer_335        1   1.007947  0.00000000  A     0.25725815     0.06531786
em_helix_mop_octamer_336        1   1.007947  0.00000000  A     0.25832257    0.068656285
em_helix_mop_octamer_337        1   1.007947  0.00000000  A     0.25832257    0.068656285
em_helix_mop_octamer_338        1   1.007947  0.00000000  A     0.25832257    0.068656285
em_helix_mop_octamer_339        1   1.007947  0.00000000  A     0.25725815     0.06531786
em_helix_mop_octamer_340        1   1.007947  0.00000000  A     0.25725815     0.06531786
em_helix_mop_octamer_341        1   1.007947  0.00000000  A     0.25725815     0.06531786
em_helix_mop_octamer_342        1   1.007947  0.00000000  A     0.25725815     0.06531786
em_helix_mop_octamer_343        1   1.007947  0.00000000  A     0.25725815     0.06531786
em_helix_mop_octamer_344        1   1.007947  0.00000000  A     0.25725815     0.06531786
em_helix_mop_octamer_345        1   1.007947  0.00000000  A     0.25832257    0.068656285
em_helix_mop_octamer_346        1   1.007947  0.00000000  A     0.11034277    0.058955969
em_helix_mop_octamer_347        1   1.007947  0.00000000  A     0.26445434    0.066021356
em_helix_mop_octamer_348        1   1.007947  0.00000000  A     0.26445434    0.066021356
em_helix_mop_octamer_349        1   1.007947  0.00000000  A     0.26445434    0.066021356
em_helix_mop_octamer_350        1   1.007947  0.00000000  A     0.25725815     0.06531786
em_helix_mop_octamer_351        1   1.007947  0.00000000  A     0.25725815     0.06531786
em_helix_mop_octamer_352        6  12.010780  0.00000000  A     0.33996695      0.4577296
em_helix_mop_octamer_353        8  15.999430  0.00000000  A     0.30251065     0.70485815
em_helix_mop_octamer_354        1   1.007947  0.00000000  A     0.25832257    0.068656285
em_helix_mop_octamer_355        1   1.007947  0.00000000  A     0.25832257    0.068656285
em_helix_mop_octamer_356        1   1.007947  0.00000000  A     0.25832257    0.068656285
em_helix_mop_octamer_357        6  12.010780  0.00000000  A     0.33996695      0.4577296
em_helix_mop_octamer_358        6  12.010780  0.00000000  A     0.33996695      0.4577296
em_helix_mop_octamer_359        6  12.010780  0.00000000  A     0.33996695      0.4577296
em_helix_mop_octamer_360        6  12.010780  0.00000000  A     0.33996695      0.4577296
em_helix_mop_octamer_361        8  15.999430  0.00000000  A     0.30251065     0.70485815
em_helix_mop_octamer_362        6  12.010780  0.00000000  A     0.34806469     0.36350306
em_helix_mop_octamer_363        8  15.999430  0.00000000  A     0.30398122     0.87950233
em_helix_mop_octamer_364        1   1.007947  0.00000000  A     0.26445434    0.066021356
em_helix_mop_octamer_365        1   1.007947  0.00000000  A     0.26445434    0.066021356
em_helix_mop_octamer_366        1   1.007947  0.00000000  A     0.26445434    0.066021356
em_helix_mop_octamer_367        1   1.007947  0.00000000  A     0.26445434    0.066021356
em_helix_mop_octamer_368        1   1.007947  0.00000000  A     0.26445434    0.066021356
em_helix_mop_octamer_369        1   1.007947  0.00000000  A     0.26445434    0.066021356
em_helix_mop_octamer_370        1   1.007947  0.00000000  A     0.26445434    0.066021356
em_helix_mop_octamer_371        1   1.007947  0.00000000  A     0.26445434    0.066021356
em_helix_mop_octamer_372        1   1.007947  0.00000000  A     0.26445434    0.066021356
TCM_0          6  12.010780  0.00000000  A     0.33996695      0.4577296
TCM_1         17  35.453200  0.00000000  A     0.34709414        1.10876
TCM_2         17  35.453200  0.00000000  A     0.34709414        1.10876
TCM_3          1   1.007947  0.00000000  A     0.21149936      0.0656888
TCM_4         17  35.453200  0.00000000  A     0.34709414        1.10876


[ moleculetype ]
; Name            nrexcl
system1          3

[ atoms ]
;   nr       type  resnr residue  atom   cgnr    charge       mass  typeB    chargeB      massB
; residue    1 MOP rtp MOP q 0.1
    1 em_helix_mop_octamer_0      1    MOP     C1      1 0.64800000  12.010780   ; qtot 0.648000
    2 em_helix_mop_octamer_1      1    MOP     O1      2 -0.55382001  15.999430   ; qtot 0.094180
    3 em_helix_mop_octamer_2      1    MOP     C2      3 -0.14504001  12.010780   ; qtot -0.050860
    4 em_helix_mop_octamer_3      1    MOP     C3      4 -0.07022000   9.994886   ; qtot -0.121080
    5 em_helix_mop_octamer_4      1    MOP     C4      5 -0.13034999   9.994886   ; qtot -0.251430
    6 em_helix_mop_octamer_5      1    MOP     C5      6 -0.00116000  12.010780   ; qtot -0.252590
    7 em_helix_mop_octamer_6      1    MOP     C6      7 -0.07477000  12.010780   ; qtot -0.327360
    8 em_helix_mop_octamer_7      1    MOP     C7      8 0.00929000  12.010780   ; qtot -0.318070
    9 em_helix_mop_octamer_8      1    MOP     C8      9 -0.14681999   9.994886   ; qtot -0.464890
   10 em_helix_mop_octamer_9      1    MOP     C9     10 0.12591000  12.010780   ; qtot -0.338980
   11 em_helix_mop_octamer_10      1    MOP     O2     11 -0.32493001  15.999430   ; qtot -0.663910
   12 em_helix_mop_octamer_11      1    MOP    C10     12 0.11163000   5.963098   ; qtot -0.552280
   13 em_helix_mop_octamer_12      1    MOP    C11     13 -0.20321000   9.994886   ; qtot -0.755490
   14 em_helix_mop_octamer_13      1    MOP    C12     14 -0.08179000   9.994886   ; qtot -0.837280
   15 em_helix_mop_octamer_14      1    MOP    C13     15 -0.04642000  12.010780   ; qtot -0.883700
   16 em_helix_mop_octamer_15      1    MOP    C14     16 -0.10614000   9.994886   ; qtot -0.989840
   17 em_helix_mop_octamer_16      1    MOP    C15     17 -0.13146999   9.994886   ; qtot -1.121310
   18 em_helix_mop_octamer_17      1    MOP    C16     18 -0.11691000   9.994886   ; qtot -1.238220
   19 em_helix_mop_octamer_18      1    MOP    C17     19 -0.11379000  12.010780   ; qtot -1.352010
   20 em_helix_mop_octamer_19      1    MOP    C18     20 -0.09078000   9.994886   ; qtot -1.442790
   21 em_helix_mop_octamer_20      1    MOP    C19     21 0.14963000   9.994886   ; qtot -1.293160
   22 em_helix_mop_octamer_21      1    MOP     N1     22 -0.56610000  11.990826   ; qtot -1.859260
   23 em_helix_mop_octamer_22      1    MOP    C20     23 -0.10537000   5.963098   ; qtot -1.964630
   24 em_helix_mop_octamer_23      1    MOP    C21     24 -0.13034999   9.994886   ; qtot -2.094980
   25 em_helix_mop_octamer_24      1    MOP    C22     25 -0.07022000   9.994886   ; qtot -2.165200
   26 em_helix_mop_octamer_25      1    MOP     H1     26 0.15730999   3.023841   ; qtot -2.007890
   27 em_helix_mop_octamer_26      1    MOP     H2     27 0.14600000   3.023841   ; qtot -1.861890
   28 em_helix_mop_octamer_27      1    MOP     H3     28 0.15536000   3.023841   ; qtot -1.706530
   29 em_helix_mop_octamer_28      1    MOP     H4     29 0.04576000   3.023841   ; qtot -1.660770
   30 em_helix_mop_octamer_29      1    MOP     H5     30 0.04576000   3.023841   ; qtot -1.615010
   31 em_helix_mop_octamer_30      1    MOP     H6     31 0.04576000   3.023841   ; qtot -1.569250
   32 em_helix_mop_octamer_31      1    MOP     H7     32 0.14007001   3.023841   ; qtot -1.429180
   33 em_helix_mop_octamer_32      1    MOP     H8     33 0.14081000   3.023841   ; qtot -1.288370
   34 em_helix_mop_octamer_33      1    MOP     H9     34 0.13681000   3.023841   ; qtot -1.151560
   35 em_helix_mop_octamer_34      1    MOP    H10     35 0.13651000   3.023841   ; qtot -1.015050
   36 em_helix_mop_octamer_35      1    MOP    H11     36 0.12939000   3.023841   ; qtot -0.885660
   37 em_helix_mop_octamer_36      1    MOP    H12     37 0.14571001   3.023841   ; qtot -0.739950
   38 em_helix_mop_octamer_37      1    MOP    H13     38 0.08816000   3.023841   ; qtot -0.651790
   39 em_helix_mop_octamer_38      1    MOP    H14     39 0.30449000   3.023841   ; qtot -0.347300
   40 em_helix_mop_octamer_39      1    MOP    H15     40 0.04436000   3.023841   ; qtot -0.302940
   41 em_helix_mop_octamer_40      1    MOP    H16     41 0.04436000   3.023841   ; qtot -0.258580
   42 em_helix_mop_octamer_41      1    MOP    H17     42 0.04436000   3.023841   ; qtot -0.214220
   43 em_helix_mop_octamer_42      1    MOP    H18     43 0.14600000   3.023841   ; qtot -0.068220
   44 em_helix_mop_octamer_43      1    MOP    H19     44 0.15730999   3.023841   ; qtot 0.089090
; residue    2 MOP rtp MOP q 0.0
   45 em_helix_mop_octamer_44      2    MOP    C23     45 0.67743999  12.010780   ; qtot 0.766530
   46 em_helix_mop_octamer_45      2    MOP     O3     46 -0.60377002  15.999430   ; qtot 0.162760
   47 em_helix_mop_octamer_46      2    MOP    C24     47 -0.13809000  12.010780   ; qtot 0.024670
   48 em_helix_mop_octamer_47      2    MOP    C25     48 -0.09101000   9.994886   ; qtot -0.066340
   49 em_helix_mop_octamer_48      2    MOP    C26     49 -0.12537000   9.994886   ; qtot -0.191710
   50 em_helix_mop_octamer_49      2    MOP    C27     50 -0.00835000  12.010780   ; qtot -0.200060
   51 em_helix_mop_octamer_50      2    MOP    C28     51 -0.07279000  12.010780   ; qtot -0.272850
   52 em_helix_mop_octamer_51      2    MOP    C29     52 0.00731000  12.010780   ; qtot -0.265540
   53 em_helix_mop_octamer_52      2    MOP    C30     53 -0.19834000   9.994886   ; qtot -0.463880
   54 em_helix_mop_octamer_53      2    MOP    C31     54 0.12523000  12.010780   ; qtot -0.338650
   55 em_helix_mop_octamer_54      2    MOP     O4     55 -0.32923001  15.999430   ; qtot -0.667880
   56 em_helix_mop_octamer_55      2    MOP    C32     56 0.11094000   5.963098   ; qtot -0.556940
   57 em_helix_mop_octamer_56      2    MOP    C33     57 -0.15649000   9.994886   ; qtot -0.713430
   58 em_helix_mop_octamer_57      2    MOP    C34     58 -0.08333000   9.994886   ; qtot -0.796760
   59 em_helix_mop_octamer_58      2    MOP    C35     59 -0.04358000  12.010780   ; qtot -0.840340
   60 em_helix_mop_octamer_59      2    MOP    C36     60 -0.10991000   9.994886   ; qtot -0.950250
   61 em_helix_mop_octamer_60      2    MOP    C37     61 -0.12711000   9.994886   ; qtot -1.077360
   62 em_helix_mop_octamer_61      2    MOP    C38     62 -0.10687000   9.994886   ; qtot -1.184230
   63 em_helix_mop_octamer_62      2    MOP    C39     63 -0.10193000  12.010780   ; qtot -1.286160
   64 em_helix_mop_octamer_63      2    MOP    C40     64 -0.11258000   9.994886   ; qtot -1.398740
   65 em_helix_mop_octamer_64      2    MOP    C41     65 0.15123001   9.994886   ; qtot -1.247510
   66 em_helix_mop_octamer_65      2    MOP     N2     66 -0.56971002  11.990826   ; qtot -1.817220
   67 em_helix_mop_octamer_66      2    MOP    C42     67 -0.11059000   5.963098   ; qtot -1.927810
   68 em_helix_mop_octamer_67      2    MOP    C43     68 -0.12537000   9.994886   ; qtot -2.053180
   69 em_helix_mop_octamer_68      2    MOP    C44     69 -0.09101000   9.994886   ; qtot -2.144190
   70 em_helix_mop_octamer_69      2    MOP    H20     70 0.14619000   3.023841   ; qtot -1.998000
   71 em_helix_mop_octamer_70      2    MOP    H21     71 0.13817000   3.023841   ; qtot -1.859830
   72 em_helix_mop_octamer_71      2    MOP    H22     72 0.14544000   3.023841   ; qtot -1.714390
   73 em_helix_mop_octamer_72      2    MOP    H23     73 0.04631000   3.023841   ; qtot -1.668080
   74 em_helix_mop_octamer_73      2    MOP    H24     74 0.04631000   3.023841   ; qtot -1.621770
   75 em_helix_mop_octamer_74      2    MOP    H25     75 0.04631000   3.023841   ; qtot -1.575460
   76 em_helix_mop_octamer_75      2    MOP    H26     76 0.15466000   3.023841   ; qtot -1.420800
   77 em_helix_mop_octamer_76      2    MOP    H27     77 0.14971000   3.023841   ; qtot -1.271090
   78 em_helix_mop_octamer_77      2    MOP    H28     78 0.13570000   3.023841   ; qtot -1.135390
   79 em_helix_mop_octamer_78      2    MOP    H29     79 0.14460000   3.023841   ; qtot -0.990790
   80 em_helix_mop_octamer_79      2    MOP    H30     80 0.14230999   3.023841   ; qtot -0.848480
   81 em_helix_mop_octamer_80      2    MOP    H31     81 0.13077000   3.023841   ; qtot -0.717710
   82 em_helix_mop_octamer_81      2    MOP    H32     82 0.08985000   3.023841   ; qtot -0.627860
   83 em_helix_mop_octamer_82      2    MOP    H33     83 0.31044999   3.023841   ; qtot -0.317410
   84 em_helix_mop_octamer_83      2    MOP    H34     84 0.04424000   3.023841   ; qtot -0.273170
   85 em_helix_mop_octamer_84      2    MOP    H35     85 0.04424000   3.023841   ; qtot -0.228930
   86 em_helix_mop_octamer_85      2    MOP    H36     86 0.04424000   3.023841   ; qtot -0.184690
   87 em_helix_mop_octamer_86      2    MOP    H37     87 0.13817000   3.023841   ; qtot -0.046520
   88 em_helix_mop_octamer_87      2    MOP    H38     88 0.14619000   3.023841   ; qtot 0.099670
; residue    3 MOP rtp MOP q -0.0
   89 em_helix_mop_octamer_88      3    MOP    C45     89 0.67523003  12.010780   ; qtot 0.774900
   90 em_helix_mop_octamer_89      3    MOP     O5     90 -0.60650003  15.999430   ; qtot 0.168400
   91 em_helix_mop_octamer_90      3    MOP    C46     91 -0.13896000  12.010780   ; qtot 0.029440
   92 em_helix_mop_octamer_91      3    MOP    C47     92 -0.09514000   9.994886   ; qtot -0.065700
   93 em_helix_mop_octamer_92      3    MOP    C48     93 -0.12937000   9.994886   ; qtot -0.195070
   94 em_helix_mop_octamer_93      3    MOP    C49     94 -0.00844000  12.010780   ; qtot -0.203510
   95 em_helix_mop_octamer_94      3    MOP    C50     95 -0.08035000  12.010780   ; qtot -0.283860
   96 em_helix_mop_octamer_95      3    MOP    C51     96 0.00864000  12.010780   ; qtot -0.275220
   97 em_helix_mop_octamer_96      3    MOP    C52     97 -0.14737999   9.994886   ; qtot -0.422600
   98 em_helix_mop_octamer_97      3    MOP    C53     98 0.12921000  12.010780   ; qtot -0.293390
   99 em_helix_mop_octamer_98      3    MOP     O6     99 -0.32554999  15.999430   ; qtot -0.618940
  100 em_helix_mop_octamer_99      3    MOP    C54    100 0.11170000   5.963098   ; qtot -0.507240
  101 em_helix_mop_octamer_100      3    MOP    C55    101 -0.20113000   9.994886   ; qtot -0.708370
  102 em_helix_mop_octamer_101      3    MOP    C56    102 -0.08291000   9.994886   ; qtot -0.791280
  103 em_helix_mop_octamer_102      3    MOP    C57    103 -0.04220000  12.010780   ; qtot -0.833480
  104 em_helix_mop_octamer_103      3    MOP    C58    104 -0.10626000   9.994886   ; qtot -0.939740
  105 em_helix_mop_octamer_104      3    MOP    C59    105 -0.13056999   9.994886   ; qtot -1.070310
  106 em_helix_mop_octamer_105      3    MOP    C60    106 -0.11082000   9.994886   ; qtot -1.181130
  107 em_helix_mop_octamer_106      3    MOP    C61    107 -0.10194000  12.010780   ; qtot -1.283070
  108 em_helix_mop_octamer_107      3    MOP    C62    108 -0.10997000   9.994886   ; qtot -1.393040
  109 em_helix_mop_octamer_108      3    MOP    C63    109 0.15220000   9.994886   ; qtot -1.240840
  110 em_helix_mop_octamer_109      3    MOP     N3    110 -0.57037002  11.990826   ; qtot -1.811210
  111 em_helix_mop_octamer_110      3    MOP    C64    111 -0.11313000   5.963098   ; qtot -1.924340
  112 em_helix_mop_octamer_111      3    MOP    C65    112 -0.12937000   9.994886   ; qtot -2.053710
  113 em_helix_mop_octamer_112      3    MOP    C66    113 -0.09514000   9.994886   ; qtot -2.148850
  114 em_helix_mop_octamer_113      3    MOP    H39    114 0.14752001   3.023841   ; qtot -2.001330
  115 em_helix_mop_octamer_114      3    MOP    H40    115 0.14138000   3.023841   ; qtot -1.859950
  116 em_helix_mop_octamer_115      3    MOP    H41    116 0.15546000   3.023841   ; qtot -1.704490
  117 em_helix_mop_octamer_116      3    MOP    H42    117 0.04709000   3.023841   ; qtot -1.657400
  118 em_helix_mop_octamer_117      3    MOP    H43    118 0.04709000   3.023841   ; qtot -1.610310
  119 em_helix_mop_octamer_118      3    MOP    H44    119 0.04709000   3.023841   ; qtot -1.563220
  120 em_helix_mop_octamer_119      3    MOP    H45    120 0.14342000   3.023841   ; qtot -1.419800
  121 em_helix_mop_octamer_120      3    MOP    H46    121 0.14235000   3.023841   ; qtot -1.277450
  122 em_helix_mop_octamer_121      3    MOP    H47    122 0.13897000   3.023841   ; qtot -1.138480
  123 em_helix_mop_octamer_122      3    MOP    H48    123 0.13696000   3.023841   ; qtot -1.001520
  124 em_helix_mop_octamer_123      3    MOP    H49    124 0.14401001   3.023841   ; qtot -0.857510
  125 em_helix_mop_octamer_124      3    MOP    H50    125 0.13424000   3.023841   ; qtot -0.723270
  126 em_helix_mop_octamer_125      3    MOP    H51    126 0.08584000   3.023841   ; qtot -0.637430
  127 em_helix_mop_octamer_126      3    MOP    H52    127 0.31356999   3.023841   ; qtot -0.323860
  128 em_helix_mop_octamer_127      3    MOP    H53    128 0.04350000   3.023841   ; qtot -0.280360
  129 em_helix_mop_octamer_128      3    MOP    H54    129 0.04350000   3.023841   ; qtot -0.236860
  130 em_helix_mop_octamer_129      3    MOP    H55    130 0.04350000   3.023841   ; qtot -0.193360
  131 em_helix_mop_octamer_130      3    MOP    H56    131 0.14138000   3.023841   ; qtot -0.051980
  132 em_helix_mop_octamer_131      3    MOP    H57    132 0.14752001   3.023841   ; qtot 0.095540
; residue    4 MOP rtp MOP q 0.0
  133 em_helix_mop_octamer_132      4    MOP    C67    133 0.67739999  12.010780   ; qtot 0.772940
  134 em_helix_mop_octamer_133      4    MOP     O7    134 -0.60947001  15.999430   ; qtot 0.163470
  135 em_helix_mop_octamer_134      4    MOP    C68    135 -0.14379001  12.010780   ; qtot 0.019680
  136 em_helix_mop_octamer_135      4    MOP    C69    136 -0.09469000   9.994886   ; qtot -0.075010
  137 em_helix_mop_octamer_136      4    MOP    C70    137 -0.12606999   9.994886   ; qtot -0.201080
  138 em_helix_mop_octamer_137      4    MOP    C71    138 -0.00376000  12.010780   ; qtot -0.204840
  139 em_helix_mop_octamer_138      4    MOP    C72    139 -0.08010000  12.010780   ; qtot -0.284940
  140 em_helix_mop_octamer_139      4    MOP    C73    140 0.00699000  12.010780   ; qtot -0.277950
  141 em_helix_mop_octamer_140      4    MOP    C74    141 -0.14551000   9.994886   ; qtot -0.423460
  142 em_helix_mop_octamer_141      4    MOP    C75    142 0.12845001  12.010780   ; qtot -0.295010
  143 em_helix_mop_octamer_142      4    MOP     O8    143 -0.32488999  15.999430   ; qtot -0.619900
  144 em_helix_mop_octamer_143      4    MOP    C76    144 0.11182000   5.963098   ; qtot -0.508080
  145 em_helix_mop_octamer_144      4    MOP    C77    145 -0.20049000   9.994886   ; qtot -0.708570
  146 em_helix_mop_octamer_145      4    MOP    C78    146 -0.07993000   9.994886   ; qtot -0.788500
  147 em_helix_mop_octamer_146      4    MOP    C79    147 -0.04275000  12.010780   ; qtot -0.831250
  148 em_helix_mop_octamer_147      4    MOP    C80    148 -0.10859000   9.994886   ; qtot -0.939840
  149 em_helix_mop_octamer_148      4    MOP    C81    149 -0.13290000   9.994886   ; qtot -1.072740
  150 em_helix_mop_octamer_149      4    MOP    C82    150 -0.10846000   9.994886   ; qtot -1.181200
  151 em_helix_mop_octamer_150      4    MOP    C83    151 -0.09751000  12.010780   ; qtot -1.278710
  152 em_helix_mop_octamer_151      4    MOP    C84    152 -0.10865000   9.994886   ; qtot -1.387360
  153 em_helix_mop_octamer_152      4    MOP    C85    153 0.15205000   9.994886   ; qtot -1.235310
  154 em_helix_mop_octamer_153      4    MOP     N4    154 -0.56980997  11.990826   ; qtot -1.805120
  155 em_helix_mop_octamer_154      4    MOP    C86    155 -0.11316000   5.963098   ; qtot -1.918280
  156 em_helix_mop_octamer_155      4    MOP    C87    156 -0.12606999   9.994886   ; qtot -2.044350
  157 em_helix_mop_octamer_156      4    MOP    C88    157 -0.09469000   9.994886   ; qtot -2.139040
  158 em_helix_mop_octamer_157      4    MOP    H58    158 0.14443000   3.023841   ; qtot -1.994610
  159 em_helix_mop_octamer_158      4    MOP    H59    159 0.14229000   3.023841   ; qtot -1.852320
  160 em_helix_mop_octamer_159      4    MOP    H60    160 0.15759000   3.023841   ; qtot -1.694730
  161 em_helix_mop_octamer_160      4    MOP    H61    161 0.04612000   3.023841   ; qtot -1.648610
  162 em_helix_mop_octamer_161      4    MOP    H62    162 0.04612000   3.023841   ; qtot -1.602490
  163 em_helix_mop_octamer_162      4    MOP    H63    163 0.04612000   3.023841   ; qtot -1.556370
  164 em_helix_mop_octamer_163      4    MOP    H64    164 0.14309999   3.023841   ; qtot -1.413270
  165 em_helix_mop_octamer_164      4    MOP    H65    165 0.14202000   3.023841   ; qtot -1.271250
  166 em_helix_mop_octamer_165      4    MOP    H66    166 0.13644999   3.023841   ; qtot -1.134800
  167 em_helix_mop_octamer_166      4    MOP    H67    167 0.13436000   3.023841   ; qtot -1.000440
  168 em_helix_mop_octamer_167      4    MOP    H68    168 0.13990000   3.023841   ; qtot -0.860540
  169 em_helix_mop_octamer_168      4    MOP    H69    169 0.13630000   3.023841   ; qtot -0.724240
  170 em_helix_mop_octamer_169      4    MOP    H70    170 0.08660000   3.023841   ; qtot -0.637640
  171 em_helix_mop_octamer_170      4    MOP    H71    171 0.31022999   3.023841   ; qtot -0.327410
  172 em_helix_mop_octamer_171      4    MOP    H72    172 0.04543000   3.023841   ; qtot -0.281980
  173 em_helix_mop_octamer_172      4    MOP    H73    173 0.04543000   3.023841   ; qtot -0.236550
  174 em_helix_mop_octamer_173      4    MOP    H74    174 0.04543000   3.023841   ; qtot -0.191120
  175 em_helix_mop_octamer_174      4    MOP    H75    175 0.14229000   3.023841   ; qtot -0.048830
  176 em_helix_mop_octamer_175      4    MOP    H76    176 0.14443000   3.023841   ; qtot 0.095600
; residue    5 MOP rtp MOP q 0.0
  177 em_helix_mop_octamer_176      5    MOP    C89    177 0.67461997  12.010780   ; qtot 0.770220
  178 em_helix_mop_octamer_177      5    MOP     O9    178 -0.60978001  15.999430   ; qtot 0.160440
  179 em_helix_mop_octamer_178      5    MOP    C90    179 -0.14234000  12.010780   ; qtot 0.018100
  180 em_helix_mop_octamer_179      5    MOP    C91    180 -0.09384000   9.994886   ; qtot -0.075740
  181 em_helix_mop_octamer_180      5    MOP    C92    181 -0.12687001   9.994886   ; qtot -0.202610
  182 em_helix_mop_octamer_181      5    MOP    C93    182 -0.00815000  12.010780   ; qtot -0.210760
  183 em_helix_mop_octamer_182      5    MOP    C94    183 -0.07624000  12.010780   ; qtot -0.287000
  184 em_helix_mop_octamer_183      5    MOP    C95    184 0.00410000  12.010780   ; qtot -0.282900
  185 em_helix_mop_octamer_184      5    MOP    C96    185 -0.14185999   9.994886   ; qtot -0.424760
  186 em_helix_mop_octamer_185      5    MOP    C97    186 0.12468000  12.010780   ; qtot -0.300080
  187 em_helix_mop_octamer_186      5    MOP    O10    187 -0.32289001  15.999430   ; qtot -0.622970
  188 em_helix_mop_octamer_187      5    MOP    C98    188 0.11238000   5.963098   ; qtot -0.510590
  189 em_helix_mop_octamer_188      5    MOP    C99    189 -0.20429000   9.994886   ; qtot -0.714880
  190 em_helix_mop_octamer_189      5    MOP   C100    190 -0.08529000   9.994886   ; qtot -0.800170
  191 em_helix_mop_octamer_190      5    MOP   C101    191 -0.03494000  12.010780   ; qtot -0.835110
  192 em_helix_mop_octamer_191      5    MOP   C102    192 -0.10291000   9.994886   ; qtot -0.938020
  193 em_helix_mop_octamer_192      5    MOP   C103    193 -0.12986000   9.994886   ; qtot -1.067880
  194 em_helix_mop_octamer_193      5    MOP   C104    194 -0.10790000   9.994886   ; qtot -1.175780
  195 em_helix_mop_octamer_194      5    MOP   C105    195 -0.10478000  12.010780   ; qtot -1.280560
  196 em_helix_mop_octamer_195      5    MOP   C106    196 -0.10611000   9.994886   ; qtot -1.386670
  197 em_helix_mop_octamer_196      5    MOP   C107    197 0.15781000   9.994886   ; qtot -1.228860
  198 em_helix_mop_octamer_197      5    MOP     N5    198 -0.57064998  11.990826   ; qtot -1.799510
  199 em_helix_mop_octamer_198      5    MOP   C108    199 -0.10884000   5.963098   ; qtot -1.908350
  200 em_helix_mop_octamer_199      5    MOP   C109    200 -0.12687001   9.994886   ; qtot -2.035220
  201 em_helix_mop_octamer_200      5    MOP   C110    201 -0.09384000   9.994886   ; qtot -2.129060
  202 em_helix_mop_octamer_201      5    MOP    H77    202 0.14748999   3.023841   ; qtot -1.981570
  203 em_helix_mop_octamer_202      5    MOP    H78    203 0.14339000   3.023841   ; qtot -1.838180
  204 em_helix_mop_octamer_203      5    MOP    H79    204 0.16957000   3.023841   ; qtot -1.668610
  205 em_helix_mop_octamer_204      5    MOP    H80    205 0.04406000   3.023841   ; qtot -1.624550
  206 em_helix_mop_octamer_205      5    MOP    H81    206 0.04406000   3.023841   ; qtot -1.580490
  207 em_helix_mop_octamer_206      5    MOP    H82    207 0.04406000   3.023841   ; qtot -1.536430
  208 em_helix_mop_octamer_207      5    MOP    H83    208 0.14390001   3.023841   ; qtot -1.392530
  209 em_helix_mop_octamer_208      5    MOP    H84    209 0.13912000   3.023841   ; qtot -1.253410
  210 em_helix_mop_octamer_209      5    MOP    H85    210 0.13766000   3.023841   ; qtot -1.115750
  211 em_helix_mop_octamer_210      5    MOP    H86    211 0.13472000   3.023841   ; qtot -0.981030
  212 em_helix_mop_octamer_211      5    MOP    H87    212 0.13688999   3.023841   ; qtot -0.844140
  213 em_helix_mop_octamer_212      5    MOP    H88    213 0.13325000   3.023841   ; qtot -0.710890
  214 em_helix_mop_octamer_213      5    MOP    H89    214 0.07687000   3.023841   ; qtot -0.634020
  215 em_helix_mop_octamer_214      5    MOP    H90    215 0.31850001   3.023841   ; qtot -0.315520
  216 em_helix_mop_octamer_215      5    MOP    H91    216 0.04344000   3.023841   ; qtot -0.272080
  217 em_helix_mop_octamer_216      5    MOP    H92    217 0.04344000   3.023841   ; qtot -0.228640
  218 em_helix_mop_octamer_217      5    MOP    H93    218 0.04344000   3.023841   ; qtot -0.185200
  219 em_helix_mop_octamer_218      5    MOP    H94    219 0.14339000   3.023841   ; qtot -0.041810
  220 em_helix_mop_octamer_219      5    MOP    H95    220 0.14748999   3.023841   ; qtot 0.105680
; residue    6 MOP rtp MOP q -0.0
  221 em_helix_mop_octamer_220      6    MOP   C111    221 0.67558998  12.010780   ; qtot 0.781270
  222 em_helix_mop_octamer_221      6    MOP    O11    222 -0.61723000  15.999430   ; qtot 0.164040
  223 em_helix_mop_octamer_222      6    MOP   C112    223 -0.13970999  12.010780   ; qtot 0.024330
  224 em_helix_mop_octamer_223      6    MOP   C113    224 -0.09164000   9.994886   ; qtot -0.067310
  225 em_helix_mop_octamer_224      6    MOP   C114    225 -0.12488000   9.994886   ; qtot -0.192190
  226 em_helix_mop_octamer_225      6    MOP   C115    226 -0.01092000  12.010780   ; qtot -0.203110
  227 em_helix_mop_octamer_226      6    MOP   C116    227 -0.07594000  12.010780   ; qtot -0.279050
  228 em_helix_mop_octamer_227      6    MOP   C117    228 0.00645000  12.010780   ; qtot -0.272600
  229 em_helix_mop_octamer_228      6    MOP   C118    229 -0.14657000   9.994886   ; qtot -0.419170
  230 em_helix_mop_octamer_229      6    MOP   C119    230 0.13344000  12.010780   ; qtot -0.285730
  231 em_helix_mop_octamer_230      6    MOP    O12    231 -0.32131001  15.999430   ; qtot -0.607040
  232 em_helix_mop_octamer_231      6    MOP   C120    232 0.11262000   5.963098   ; qtot -0.494420
  233 em_helix_mop_octamer_232      6    MOP   C121    233 -0.20302001   9.994886   ; qtot -0.697440
  234 em_helix_mop_octamer_233      6    MOP   C122    234 -0.08467000   9.994886   ; qtot -0.782110
  235 em_helix_mop_octamer_234      6    MOP   C123    235 -0.03783000  12.010780   ; qtot -0.819940
  236 em_helix_mop_octamer_235      6    MOP   C124    236 -0.10909000   9.994886   ; qtot -0.929030
  237 em_helix_mop_octamer_236      6    MOP   C125    237 -0.12902001   9.994886   ; qtot -1.058050
  238 em_helix_mop_octamer_237      6    MOP   C126    238 -0.11346000   9.994886   ; qtot -1.171510
  239 em_helix_mop_octamer_238      6    MOP   C127    239 -0.10788000  12.010780   ; qtot -1.279390
  240 em_helix_mop_octamer_239      6    MOP   C128    240 -0.10441000   9.994886   ; qtot -1.383800
  241 em_helix_mop_octamer_240      6    MOP   C129    241 0.14646000   9.994886   ; qtot -1.237340
  242 em_helix_mop_octamer_241      6    MOP     N6    242 -0.56154001  11.990826   ; qtot -1.798880
  243 em_helix_mop_octamer_242      6    MOP   C130    243 -0.10272000   5.963098   ; qtot -1.901600
  244 em_helix_mop_octamer_243      6    MOP   C131    244 -0.12488000   9.994886   ; qtot -2.026480
  245 em_helix_mop_octamer_244      6    MOP   C132    245 -0.09164000   9.994886   ; qtot -2.118120
  246 em_helix_mop_octamer_245      6    MOP    H96    246 0.14482000   3.023841   ; qtot -1.973300
  247 em_helix_mop_octamer_246      6    MOP    H97    247 0.14150000   3.023841   ; qtot -1.831800
  248 em_helix_mop_octamer_247      6    MOP    H98    248 0.15434000   3.023841   ; qtot -1.677460
  249 em_helix_mop_octamer_248      6    MOP    H99    249 0.04602000   3.023841   ; qtot -1.631440
  250 em_helix_mop_octamer_249      6    MOP   H100    250 0.04602000   3.023841   ; qtot -1.585420
  251 em_helix_mop_octamer_250      6    MOP   H101    251 0.04602000   3.023841   ; qtot -1.539400
  252 em_helix_mop_octamer_251      6    MOP   H102    252 0.14033000   3.023841   ; qtot -1.399070
  253 em_helix_mop_octamer_252      6    MOP   H103    253 0.13866000   3.023841   ; qtot -1.260410
  254 em_helix_mop_octamer_253      6    MOP   H104    254 0.13688999   3.023841   ; qtot -1.123520
  255 em_helix_mop_octamer_254      6    MOP   H105    255 0.13349000   3.023841   ; qtot -0.990030
  256 em_helix_mop_octamer_255      6    MOP   H106    256 0.13421001   3.023841   ; qtot -0.855820
  257 em_helix_mop_octamer_256      6    MOP   H107    257 0.13056000   3.023841   ; qtot -0.725260
  258 em_helix_mop_octamer_257      6    MOP   H108    258 0.08920000   3.023841   ; qtot -0.636060
  259 em_helix_mop_octamer_258      6    MOP   H109    259 0.29958001   3.023841   ; qtot -0.336480
  260 em_helix_mop_octamer_259      6    MOP   H110    260 0.04530000   3.023841   ; qtot -0.291180
  261 em_helix_mop_octamer_260      6    MOP   H111    261 0.04530000   3.023841   ; qtot -0.245880
  262 em_helix_mop_octamer_261      6    MOP   H112    262 0.04530000   3.023841   ; qtot -0.200580
  263 em_helix_mop_octamer_262      6    MOP   H113    263 0.14150000   3.023841   ; qtot -0.059080
  264 em_helix_mop_octamer_263      6    MOP   H114    264 0.14482000   3.023841   ; qtot 0.085740
; residue    7 MOP rtp MOP q 0.0
  265 em_helix_mop_octamer_264      7    MOP   C133    265 0.67544001  12.010780   ; qtot 0.761180
  266 em_helix_mop_octamer_265      7    MOP    O13    266 -0.59435999  15.999430   ; qtot 0.166820
  267 em_helix_mop_octamer_266      7    MOP   C134    267 -0.13842000  12.010780   ; qtot 0.028400
  268 em_helix_mop_octamer_267      7    MOP   C135    268 -0.09495000   9.994886   ; qtot -0.066550
  269 em_helix_mop_octamer_268      7    MOP   C136    269 -0.12608001   9.994886   ; qtot -0.192630
  270 em_helix_mop_octamer_269      7    MOP   C137    270 -0.00276000  12.010780   ; qtot -0.195390
  271 em_helix_mop_octamer_270      7    MOP   C138    271 -0.07615000  12.010780   ; qtot -0.271540
  272 em_helix_mop_octamer_271      7    MOP   C139    272 0.00648000  12.010780   ; qtot -0.265060
  273 em_helix_mop_octamer_272      7    MOP   C140    273 -0.14200000   9.994886   ; qtot -0.407060
  274 em_helix_mop_octamer_273      7    MOP   C141    274 0.13113999  12.010780   ; qtot -0.275920
  275 em_helix_mop_octamer_274      7    MOP    O14    275 -0.32832000  15.999430   ; qtot -0.604240
  276 em_helix_mop_octamer_275      7    MOP   C142    276 0.11182000   5.963098   ; qtot -0.492420
  277 em_helix_mop_octamer_276      7    MOP   C143    277 -0.19512001   9.994886   ; qtot -0.687540
  278 em_helix_mop_octamer_277      7    MOP   C144    278 -0.07725000   9.994886   ; qtot -0.764790
  279 em_helix_mop_octamer_278      7    MOP   C145    279 -0.04006000  12.010780   ; qtot -0.804850
  280 em_helix_mop_octamer_279      7    MOP   C146    280 -0.10579000   9.994886   ; qtot -0.910640
  281 em_helix_mop_octamer_280      7    MOP   C147    281 -0.13335000   9.994886   ; qtot -1.043990
  282 em_helix_mop_octamer_281      7    MOP   C148    282 -0.11000000   9.994886   ; qtot -1.153990
  283 em_helix_mop_octamer_282      7    MOP   C149    283 -0.10257000  12.010780   ; qtot -1.256560
  284 em_helix_mop_octamer_283      7    MOP   C150    284 -0.11106000   9.994886   ; qtot -1.367620
  285 em_helix_mop_octamer_284      7    MOP   C151    285 0.15324000   9.994886   ; qtot -1.214380
  286 em_helix_mop_octamer_285      7    MOP     N7    286 -0.56764001  11.990826   ; qtot -1.782020
  287 em_helix_mop_octamer_286      7    MOP   C152    287 -0.11325000   5.963098   ; qtot -1.895270
  288 em_helix_mop_octamer_287      7    MOP   C153    288 -0.12608001   9.994886   ; qtot -2.021350
  289 em_helix_mop_octamer_288      7    MOP   C154    289 -0.09495000   9.994886   ; qtot -2.116300
  290 em_helix_mop_octamer_289      7    MOP   H115    290 0.14010000   3.023841   ; qtot -1.976200
  291 em_helix_mop_octamer_290      7    MOP   H116    291 0.14170000   3.023841   ; qtot -1.834500
  292 em_helix_mop_octamer_291      7    MOP   H117    292 0.15505999   3.023841   ; qtot -1.679440
  293 em_helix_mop_octamer_292      7    MOP   H118    293 0.04504000   3.023841   ; qtot -1.634400
  294 em_helix_mop_octamer_293      7    MOP   H119    294 0.04504000   3.023841   ; qtot -1.589360
  295 em_helix_mop_octamer_294      7    MOP   H120    295 0.04504000   3.023841   ; qtot -1.544320
  296 em_helix_mop_octamer_295      7    MOP   H121    296 0.13987000   3.023841   ; qtot -1.404450
  297 em_helix_mop_octamer_296      7    MOP   H122    297 0.14065000   3.023841   ; qtot -1.263800
  298 em_helix_mop_octamer_297      7    MOP   H123    298 0.14470001   3.023841   ; qtot -1.119100
  299 em_helix_mop_octamer_298      7    MOP   H124    299 0.13733999   3.023841   ; qtot -0.981760
  300 em_helix_mop_octamer_299      7    MOP   H125    300 0.13827001   3.023841   ; qtot -0.843490
  301 em_helix_mop_octamer_300      7    MOP   H126    301 0.13427000   3.023841   ; qtot -0.709220
  302 em_helix_mop_octamer_301      7    MOP   H127    302 0.08332000   3.023841   ; qtot -0.625900
  303 em_helix_mop_octamer_302      7    MOP   H128    303 0.30985001   3.023841   ; qtot -0.316050
  304 em_helix_mop_octamer_303      7    MOP   H129    304 0.04568000   3.023841   ; qtot -0.270370
  305 em_helix_mop_octamer_304      7    MOP   H130    305 0.04568000   3.023841   ; qtot -0.224690
  306 em_helix_mop_octamer_305      7    MOP   H131    306 0.04568000   3.023841   ; qtot -0.179010
  307 em_helix_mop_octamer_306      7    MOP   H132    307 0.14170000   3.023841   ; qtot -0.037310
  308 em_helix_mop_octamer_307      7    MOP   H133    308 0.14010000   3.023841   ; qtot 0.102790
; residue    8 MOP rtp MOP q 0.0
  309 em_helix_mop_octamer_308      8    MOP   C155    309 0.67388999  12.010780   ; qtot 0.776680
  310 em_helix_mop_octamer_309      8    MOP    O15    310 -0.60903001  15.999430   ; qtot 0.167650
  311 em_helix_mop_octamer_310      8    MOP   C156    311 -0.13677000  12.010780   ; qtot 0.030880
  312 em_helix_mop_octamer_311      8    MOP   C157    312 -0.09352000   9.994886   ; qtot -0.062640
  313 em_helix_mop_octamer_312      8    MOP   C158    313 -0.12853999   9.994886   ; qtot -0.191180
  314 em_helix_mop_octamer_313      8    MOP   C159    314 -0.00825000  12.010780   ; qtot -0.199430
  315 em_helix_mop_octamer_314      8    MOP   C160    315 -0.07730000  12.010780   ; qtot -0.276730
  316 em_helix_mop_octamer_315      8    MOP   C161    316 0.00434000  12.010780   ; qtot -0.272390
  317 em_helix_mop_octamer_316      8    MOP   C162    317 -0.14580999   9.994886   ; qtot -0.418200
  318 em_helix_mop_octamer_317      8    MOP   C163    318 0.12864999  12.010780   ; qtot -0.289550
  319 em_helix_mop_octamer_318      8    MOP    O16    319 -0.32448000  15.999430   ; qtot -0.614030
  320 em_helix_mop_octamer_319      8    MOP   C164    320 0.11261000   5.963098   ; qtot -0.501420
  321 em_helix_mop_octamer_320      8    MOP   C165    321 -0.20102000   9.994886   ; qtot -0.702440
  322 em_helix_mop_octamer_321      8    MOP   C166    322 -0.08278000   9.994886   ; qtot -0.785220
  323 em_helix_mop_octamer_322      8    MOP   C167    323 -0.04046000  12.010780   ; qtot -0.825680
  324 em_helix_mop_octamer_323      8    MOP   C168    324 -0.10363000   9.994886   ; qtot -0.929310
  325 em_helix_mop_octamer_324      8    MOP   C169    325 -0.13000000   9.994886   ; qtot -1.059310
  326 em_helix_mop_octamer_325      8    MOP   C170    326 -0.10694000   9.994886   ; qtot -1.166250
  327 em_helix_mop_octamer_326      8    MOP   C171    327 -0.10679000  12.010780   ; qtot -1.273040
  328 em_helix_mop_octamer_327      8    MOP   C172    328 -0.10812000   9.994886   ; qtot -1.381160
  329 em_helix_mop_octamer_328      8    MOP   C173    329 0.16483000   9.994886   ; qtot -1.216330
  330 em_helix_mop_octamer_329      8    MOP     N8    330 -0.56150001  11.990826   ; qtot -1.777830
  331 em_helix_mop_octamer_330      8    MOP   C174    331 -0.11077000   5.963098   ; qtot -1.888600
  332 em_helix_mop_octamer_331      8    MOP   C175    332 -0.12853999   9.994886   ; qtot -2.017140
  333 em_helix_mop_octamer_332      8    MOP   C176    333 -0.09352000   9.994886   ; qtot -2.110660
  334 em_helix_mop_octamer_333      8    MOP   H134    334 0.14698000   3.023841   ; qtot -1.963680
  335 em_helix_mop_octamer_334      8    MOP   H135    335 0.14044000   3.023841   ; qtot -1.823240
  336 em_helix_mop_octamer_335      8    MOP   H136    336 0.15699001   3.023841   ; qtot -1.666250
  337 em_helix_mop_octamer_336      8    MOP   H137    337 0.04612000   3.023841   ; qtot -1.620130
  338 em_helix_mop_octamer_337      8    MOP   H138    338 0.04612000   3.023841   ; qtot -1.574010
  339 em_helix_mop_octamer_338      8    MOP   H139    339 0.04612000   3.023841   ; qtot -1.527890
  340 em_helix_mop_octamer_339      8    MOP   H140    340 0.14257000   3.023841   ; qtot -1.385320
  341 em_helix_mop_octamer_340      8    MOP   H141    341 0.14298999   3.023841   ; qtot -1.242330
  342 em_helix_mop_octamer_341      8    MOP   H142    342 0.13942000   3.023841   ; qtot -1.102910
  343 em_helix_mop_octamer_342      8    MOP   H143    343 0.13726000   3.023841   ; qtot -0.965650
  344 em_helix_mop_octamer_343      8    MOP   H144    344 0.14022000   3.023841   ; qtot -0.825430
  345 em_helix_mop_octamer_344      8    MOP   H145    345 0.13688000   3.023841   ; qtot -0.688550
  346 em_helix_mop_octamer_345      8    MOP   H146    346 0.08396000   3.023841   ; qtot -0.604590
  347 em_helix_mop_octamer_346      8    MOP   H147    347 0.33388001   3.023841   ; qtot -0.270710
  348 em_helix_mop_octamer_347      8    MOP   H148    348 0.04508000   3.023841   ; qtot -0.225630
  349 em_helix_mop_octamer_348      8    MOP   H149    349 0.04508000   3.023841   ; qtot -0.180550
  350 em_helix_mop_octamer_349      8    MOP   H150    350 0.04508000   3.023841   ; qtot -0.135470
  351 em_helix_mop_octamer_350      8    MOP   H151    351 0.14044000   3.023841   ; qtot 0.004970
  352 em_helix_mop_octamer_351      8    MOP   H152    352 0.14698000   3.023841   ; qtot 0.151950
; residue    9 CAP rtp CAP q -0.2
  353 em_helix_mop_octamer_352      9    CAP   C177    353 0.12520000   5.963098   ; qtot 0.277150
  354 em_helix_mop_octamer_353      9    CAP    O17    354 -0.42956999  15.999430   ; qtot -0.152420
  355 em_helix_mop_octamer_354      9    CAP   H153    355 0.04983000   3.023841   ; qtot -0.102590
  356 em_helix_mop_octamer_355      9    CAP   H154    356 0.04983000   3.023841   ; qtot -0.052760
  357 em_helix_mop_octamer_356      9    CAP   H155    357 0.04983000   3.023841   ; qtot -0.002930
; residue   10 CAP rtp CAP q 0.0
  358 em_helix_mop_octamer_357     10    CAP   C178    358 -0.11422000   5.963098   ; qtot -0.117150
  359 em_helix_mop_octamer_358     10    CAP   C179    359 0.18781000  12.010780   ; qtot 0.070660
  360 em_helix_mop_octamer_359     10    CAP   C180    360 -0.11422000   5.963098   ; qtot -0.043560
  361 em_helix_mop_octamer_360     10    CAP   C181    361 -0.11422000   5.963098   ; qtot -0.157780
  362 em_helix_mop_octamer_361     10    CAP    O18    362 -0.44852000  15.999430   ; qtot -0.606300
  363 em_helix_mop_octamer_362     10    CAP   C182    363 0.75117999  12.010780   ; qtot 0.144880
  364 em_helix_mop_octamer_363     10    CAP    O19    364 -0.60738999  15.999430   ; qtot -0.462510
  365 em_helix_mop_octamer_364     10    CAP   H156    365 0.05139000   3.023841   ; qtot -0.411120
  366 em_helix_mop_octamer_365     10    CAP   H157    366 0.05139000   3.023841   ; qtot -0.359730
  367 em_helix_mop_octamer_366     10    CAP   H158    367 0.05139000   3.023841   ; qtot -0.308340
  368 em_helix_mop_octamer_367     10    CAP   H159    368 0.05139000   3.023841   ; qtot -0.256950
  369 em_helix_mop_octamer_368     10    CAP   H160    369 0.05139000   3.023841   ; qtot -0.205560
  370 em_helix_mop_octamer_369     10    CAP   H161    370 0.05139000   3.023841   ; qtot -0.154170
  371 em_helix_mop_octamer_370     10    CAP   H162    371 0.05139000   3.023841   ; qtot -0.102780
  372 em_helix_mop_octamer_371     10    CAP   H163    372 0.05139000   3.023841   ; qtot -0.051390
  373 em_helix_mop_octamer_372     10    CAP   H164    373 0.05139000   3.023841   ; qtot -0.000000

[ bonds ]
;    ai     aj funct         c0         c1         c2         c3
      1      2     1   0.12252 487602.327766
      1      3     1   0.14546 233580.248618
      1    354     1   0.13457 252005.673257
      3      4     1   0.13872 301905.092579
      3     25     1   0.13872 301905.092579
      4      5     1   0.13872 301905.092579
      4     26     1   0.10854 332422.631675
      5      6     1   0.13872 301905.092579
      5     27     1   0.10854 332422.631675
      6      7     1   0.14546 233580.248618
      6     24     1   0.13872 301905.092579
      7      8     1   0.13872 301905.092579
      7     14     1   0.13872 301905.092579
      8      9     1   0.13872 301905.092579
      8     15     1   0.14546 233580.248618
      9     10     1   0.13872 301905.092579
      9     28     1   0.10854 332422.631675
     10     11     1   0.13629 356218.264001
     10     13     1   0.13872 301905.092579
     11     12     1   0.14259 306888.771877
     12     29     1   0.10929 317186.185379
     12     30     1   0.10929 317186.185379
     12     31     1   0.10929 317186.185379
     13     14     1   0.13872 301905.092579
     13     32     1   0.10854 332422.631675
     14     33     1   0.10854 332422.631675
     15     16     1   0.13872 301905.092579
     15     20     1   0.13872 301905.092579
     16     17     1   0.13872 301905.092579
     16     34     1   0.10854 332422.631675
     17     18     1   0.13872 301905.092579
     17     35     1   0.10854 332422.631675
     18     19     1   0.13872 301905.092579
     18     36     1   0.10854 332422.631675
     19     20     1   0.13872 301905.092579
     19     21     1   0.14986 242452.869388
     20     37     1   0.10854 332422.631675
     21     22     1   0.14501 294600.927776
     21     23     1   0.15219 221435.259290
     21     38     1   0.10929 317186.185379
     22     39     1   0.10195 422704.914414
     22     45     1   0.13819 412347.817359
     23     40     1   0.10929 317186.185379
     23     41     1   0.10929 317186.185379
     23     42     1   0.10929 317186.185379
     24     25     1   0.13872 301905.092579
     24     43     1   0.10854 332422.631675
     25     44     1   0.10854 332422.631675
     45     46     1   0.12252 487602.327766
     45     47     1   0.14546 233580.248618
     47     48     1   0.13872 301905.092579
     47     69     1   0.13872 301905.092579
     48     49     1   0.13872 301905.092579
     48     70     1   0.10854 332422.631675
     49     50     1   0.13872 301905.092579
     49     71     1   0.10854 332422.631675
     50     51     1   0.14546 233580.248618
     50     68     1   0.13872 301905.092579
     51     52     1   0.13872 301905.092579
     51     58     1   0.13872 301905.092579
     52     53     1   0.13872 301905.092579
     52     59     1   0.14546 233580.248618
     53     54     1   0.13872 301905.092579
     53     72     1   0.10854 332422.631675
     54     55     1   0.13629 356218.264001
     54     57     1   0.13872 301905.092579
     55     56     1   0.14259 306888.771877
     56     73     1   0.10929 317186.185379
     56     74     1   0.10929 317186.185379
     56     75     1   0.10929 317186.185379
     57     58     1   0.13872 301905.092579
     57     76     1   0.10854 332422.631675
     58     77     1   0.10854 332422.631675
     59     60     1   0.13872 301905.092579
     59     64     1   0.13872 301905.092579
     60     61     1   0.13872 301905.092579
     60     78     1   0.10854 332422.631675
     61     62     1   0.13872 301905.092579
     61     79     1   0.10854 332422.631675
     62     63     1   0.13872 301905.092579
     62     80     1   0.10854 332422.631675
     63     64     1   0.13872 301905.092579
     63     65     1   0.14986 242452.869388
     64     81     1   0.10854 332422.631675
     65     66     1   0.14501 294600.927776
     65     67     1   0.15219 221435.259290
     65     82     1   0.10929 317186.185379
     66     83     1   0.10195 422704.914414
     66     89     1   0.13819 412347.817359
     67     84     1   0.10929 317186.185379
     67     85     1   0.10929 317186.185379
     67     86     1   0.10929 317186.185379
     68     69     1   0.13872 301905.092579
     68     87     1   0.10854 332422.631675
     69     88     1   0.10854 332422.631675
     89     90     1   0.12252 487602.327766
     89     91     1   0.14546 233580.248618
     91     92     1   0.13872 301905.092579
     91    113     1   0.13872 301905.092579
     92     93     1   0.13872 301905.092579
     92    114     1   0.10854 332422.631675
     93     94     1   0.13872 301905.092579
     93    115     1   0.10854 332422.631675
     94     95     1   0.14546 233580.248618
     94    112     1   0.13872 301905.092579
     95     96     1   0.13872 301905.092579
     95    102     1   0.13872 301905.092579
     96     97     1   0.13872 301905.092579
     96    103     1   0.14546 233580.248618
     97     98     1   0.13872 301905.092579
     97    116     1   0.10854 332422.631675
     98     99     1   0.13629 356218.264001
     98    101     1   0.13872 301905.092579
     99    100     1   0.14259 306888.771877
    100    117     1   0.10929 317186.185379
    100    118     1   0.10929 317186.185379
    100    119     1   0.10929 317186.185379
    101    102     1   0.13872 301905.092579
    101    120     1   0.10854 332422.631675
    102    121     1   0.10854 332422.631675
    103    104     1   0.13872 301905.092579
    103    108     1   0.13872 301905.092579
    104    105     1   0.13872 301905.092579
    104    122     1   0.10854 332422.631675
    105    106     1   0.13872 301905.092579
    105    123     1   0.10854 332422.631675
    106    107     1   0.13872 301905.092579
    106    124     1   0.10854 332422.631675
    107    108     1   0.13872 301905.092579
    107    109     1   0.14986 242452.869388
    108    125     1   0.10854 332422.631675
    109    110     1   0.14501 294600.927776
    109    111     1   0.15219 221435.259290
    109    126     1   0.10929 317186.185379
    110    127     1   0.10195 422704.914414
    110    133     1   0.13819 412347.817359
    111    128     1   0.10929 317186.185379
    111    129     1   0.10929 317186.185379
    111    130     1   0.10929 317186.185379
    112    113     1   0.13872 301905.092579
    112    131     1   0.10854 332422.631675
    113    132     1   0.10854 332422.631675
    133    134     1   0.12252 487602.327766
    133    135     1   0.14546 233580.248618
    135    136     1   0.13872 301905.092579
    135    157     1   0.13872 301905.092579
    136    137     1   0.13872 301905.092579
    136    158     1   0.10854 332422.631675
    137    138     1   0.13872 301905.092579
    137    159     1   0.10854 332422.631675
    138    139     1   0.14546 233580.248618
    138    156     1   0.13872 301905.092579
    139    140     1   0.13872 301905.092579
    139    146     1   0.13872 301905.092579
    140    141     1   0.13872 301905.092579
    140    147     1   0.14546 233580.248618
    141    142     1   0.13872 301905.092579
    141    160     1   0.10854 332422.631675
    142    143     1   0.13629 356218.264001
    142    145     1   0.13872 301905.092579
    143    144     1   0.14259 306888.771877
    144    161     1   0.10929 317186.185379
    144    162     1   0.10929 317186.185379
    144    163     1   0.10929 317186.185379
    145    146     1   0.13872 301905.092579
    145    164     1   0.10854 332422.631675
    146    165     1   0.10854 332422.631675
    147    148     1   0.13872 301905.092579
    147    152     1   0.13872 301905.092579
    148    149     1   0.13872 301905.092579
    148    166     1   0.10854 332422.631675
    149    150     1   0.13872 301905.092579
    149    167     1   0.10854 332422.631675
    150    151     1   0.13872 301905.092579
    150    168     1   0.10854 332422.631675
    151    152     1   0.13872 301905.092579
    151    153     1   0.14986 242452.869388
    152    169     1   0.10854 332422.631675
    153    154     1   0.14501 294600.927776
    153    155     1   0.15219 221435.259290
    153    170     1   0.10929 317186.185379
    154    171     1   0.10195 422704.914414
    154    177     1   0.13819 412347.817359
    155    172     1   0.10929 317186.185379
    155    173     1   0.10929 317186.185379
    155    174     1   0.10929 317186.185379
    156    157     1   0.13872 301905.092579
    156    175     1   0.10854 332422.631675
    157    176     1   0.10854 332422.631675
    177    178     1   0.12252 487602.327766
    177    179     1   0.14546 233580.248618
    179    180     1   0.13872 301905.092579
    179    201     1   0.13872 301905.092579
    180    181     1   0.13872 301905.092579
    180    202     1   0.10854 332422.631675
    181    182     1   0.13872 301905.092579
    181    203     1   0.10854 332422.631675
    182    183     1   0.14546 233580.248618
    182    200     1   0.13872 301905.092579
    183    184     1   0.13872 301905.092579
    183    190     1   0.13872 301905.092579
    184    185     1   0.13872 301905.092579
    184    191     1   0.14546 233580.248618
    185    186     1   0.13872 301905.092579
    185    204     1   0.10854 332422.631675
    186    187     1   0.13629 356218.264001
    186    189     1   0.13872 301905.092579
    187    188     1   0.14259 306888.771877
    188    205     1   0.10929 317186.185379
    188    206     1   0.10929 317186.185379
    188    207     1   0.10929 317186.185379
    189    190     1   0.13872 301905.092579
    189    208     1   0.10854 332422.631675
    190    209     1   0.10854 332422.631675
    191    192     1   0.13872 301905.092579
    191    196     1   0.13872 301905.092579
    192    193     1   0.13872 301905.092579
    192    210     1   0.10854 332422.631675
    193    194     1   0.13872 301905.092579
    193    211     1   0.10854 332422.631675
    194    195     1   0.13872 301905.092579
    194    212     1   0.10854 332422.631675
    195    196     1   0.13872 301905.092579
    195    197     1   0.14986 242452.869388
    196    213     1   0.10854 332422.631675
    197    198     1   0.14501 294600.927776
    197    199     1   0.15219 221435.259290
    197    214     1   0.10929 317186.185379
    198    215     1   0.10195 422704.914414
    198    221     1   0.13819 412347.817359
    199    216     1   0.10929 317186.185379
    199    217     1   0.10929 317186.185379
    199    218     1   0.10929 317186.185379
    200    201     1   0.13872 301905.092579
    200    219     1   0.10854 332422.631675
    201    220     1   0.10854 332422.631675
    221    222     1   0.12252 487602.327766
    221    223     1   0.14546 233580.248618
    223    224     1   0.13872 301905.092579
    223    245     1   0.13872 301905.092579
    224    225     1   0.13872 301905.092579
    224    246     1   0.10854 332422.631675
    225    226     1   0.13872 301905.092579
    225    247     1   0.10854 332422.631675
    226    227     1   0.14546 233580.248618
    226    244     1   0.13872 301905.092579
    227    228     1   0.13872 301905.092579
    227    234     1   0.13872 301905.092579
    228    229     1   0.13872 301905.092579
    228    235     1   0.14546 233580.248618
    229    230     1   0.13872 301905.092579
    229    248     1   0.10854 332422.631675
    230    231     1   0.13629 356218.264001
    230    233     1   0.13872 301905.092579
    231    232     1   0.14259 306888.771877
    232    249     1   0.10929 317186.185379
    232    250     1   0.10929 317186.185379
    232    251     1   0.10929 317186.185379
    233    234     1   0.13872 301905.092579
    233    252     1   0.10854 332422.631675
    234    253     1   0.10854 332422.631675
    235    236     1   0.13872 301905.092579
    235    240     1   0.13872 301905.092579
    236    237     1   0.13872 301905.092579
    236    254     1   0.10854 332422.631675
    237    238     1   0.13872 301905.092579
    237    255     1   0.10854 332422.631675
    238    239     1   0.13872 301905.092579
    238    256     1   0.10854 332422.631675
    239    240     1   0.13872 301905.092579
    239    241     1   0.14986 242452.869388
    240    257     1   0.10854 332422.631675
    241    242     1   0.14501 294600.927776
    241    243     1   0.15219 221435.259290
    241    258     1   0.10929 317186.185379
    242    259     1   0.10195 422704.914414
    242    265     1   0.13819 412347.817359
    243    260     1   0.10929 317186.185379
    243    261     1   0.10929 317186.185379
    243    262     1   0.10929 317186.185379
    244    245     1   0.13872 301905.092579
    244    263     1   0.10854 332422.631675
    245    264     1   0.10854 332422.631675
    265    266     1   0.12252 487602.327766
    265    267     1   0.14546 233580.248618
    267    268     1   0.13872 301905.092579
    267    289     1   0.13872 301905.092579
    268    269     1   0.13872 301905.092579
    268    290     1   0.10854 332422.631675
    269    270     1   0.13872 301905.092579
    269    291     1   0.10854 332422.631675
    270    271     1   0.14546 233580.248618
    270    288     1   0.13872 301905.092579
    271    272     1   0.13872 301905.092579
    271    278     1   0.13872 301905.092579
    272    273     1   0.13872 301905.092579
    272    279     1   0.14546 233580.248618
    273    274     1   0.13872 301905.092579
    273    292     1   0.10854 332422.631675
    274    275     1   0.13629 356218.264001
    274    277     1   0.13872 301905.092579
    275    276     1   0.14259 306888.771877
    276    293     1   0.10929 317186.185379
    276    294     1   0.10929 317186.185379
    276    295     1   0.10929 317186.185379
    277    278     1   0.13872 301905.092579
    277    296     1   0.10854 332422.631675
    278    297     1   0.10854 332422.631675
    279    280     1   0.13872 301905.092579
    279    284     1   0.13872 301905.092579
    280    281     1   0.13872 301905.092579
    280    298     1   0.10854 332422.631675
    281    282     1   0.13872 301905.092579
    281    299     1   0.10854 332422.631675
    282    283     1   0.13872 301905.092579
    282    300     1   0.10854 332422.631675
    283    284     1   0.13872 301905.092579
    283    285     1   0.14986 242452.869388
    284    301     1   0.10854 332422.631675
    285    286     1   0.14501 294600.927776
    285    287     1   0.15219 221435.259290
    285    302     1   0.10929 317186.185379
    286    303     1   0.10195 422704.914414
    286    309     1   0.13819 412347.817359
    287    304     1   0.10929 317186.185379
    287    305     1   0.10929 317186.185379
    287    306     1   0.10929 317186.185379
    288    289     1   0.13872 301905.092579
    288    307     1   0.10854 332422.631675
    289    308     1   0.10854 332422.631675
    309    310     1   0.12252 487602.327766
    309    311     1   0.14546 233580.248618
    311    312     1   0.13872 301905.092579
    311    333     1   0.13872 301905.092579
    312    313     1   0.13872 301905.092579
    312    334     1   0.10854 332422.631675
    313    314     1   0.13872 301905.092579
    313    335     1   0.10854 332422.631675
    314    315     1   0.14546 233580.248618
    314    332     1   0.13872 301905.092579
    315    316     1   0.13872 301905.092579
    315    322     1   0.13872 301905.092579
    316    317     1   0.13872 301905.092579
    316    323     1   0.14546 233580.248618
    317    318     1   0.13872 301905.092579
    317    336     1   0.10854 332422.631675
    318    319     1   0.13629 356218.264001
    318    321     1   0.13872 301905.092579
    319    320     1   0.14259 306888.771877
    320    337     1   0.10929 317186.185379
    320    338     1   0.10929 317186.185379
    320    339     1   0.10929 317186.185379
    321    322     1   0.13872 301905.092579
    321    340     1   0.10854 332422.631675
    322    341     1   0.10854 332422.631675
    323    324     1   0.13872 301905.092579
    323    328     1   0.13872 301905.092579
    324    325     1   0.13872 301905.092579
    324    342     1   0.10854 332422.631675
    325    326     1   0.13872 301905.092579
    325    343     1   0.10854 332422.631675
    326    327     1   0.13872 301905.092579
    326    344     1   0.10854 332422.631675
    327    328     1   0.13872 301905.092579
    327    329     1   0.14986 242452.869388
    328    345     1   0.10854 332422.631675
    329    330     1   0.14501 294600.927776
    329    331     1   0.15219 221435.259290
    329    346     1   0.10929 317186.185379
    330    347     1   0.10195 422704.914414
    330    363     1   0.13819 412347.817359
    331    348     1   0.10929 317186.185379
    331    349     1   0.10929 317186.185379
    331    350     1   0.10929 317186.185379
    332    333     1   0.13872 301905.092579
    332    351     1   0.10854 332422.631675
    333    352     1   0.10854 332422.631675
    353    354     1   0.14259 306888.771877
    353    355     1   0.10929 317186.185379
    353    356     1   0.10929 317186.185379
    353    357     1   0.10929 317186.185379
    358    359     1   0.15219 221435.259290
    358    365     1   0.10929 317186.185379
    358    366     1   0.10929 317186.185379
    358    367     1   0.10929 317186.185379
    359    360     1   0.15219 221435.259290
    359    361     1   0.15219 221435.259290
    359    362     1   0.14259 306888.771877
    360    368     1   0.10929 317186.185379
    360    369     1   0.10929 317186.185379
    360    370     1   0.10929 317186.185379
    361    371     1   0.10929 317186.185379
    361    372     1   0.10929 317186.185379
    361    373     1   0.10929 317186.185379
    362    363     1   0.13457 252005.673257
    363    364     1   0.12252 487602.327766

[ pairs ]
;    ai     aj funct         c0         c1         c2         c3
     64     66     1
     50     57     1
     43     44     1
    228    237     1
     17     21     1
    331    363     1
    106    110     1
     19     39     1
     52     55     1
     95    104     1
    265    308     1
    360    363     1
    362    371     1
    194    214     1
     48     51     1
    361    366     1
    240    243     1
    347    362     1
     39     47     1
     66     86     1
    151    167     1
    226    246     1
    286    312     1
     51     71     1
    360    371     1
     67     89     1
    228    233     1
     55     72     1
    302    309     1
    239    255     1
    156    159     1
    240    254     1
    227    247     1
    272    301     1
    361    365     1
      6      9     1
     45     88     1
     16     36     1
    136    156     1
     96    107     1
    226    264     1
     53     76     1
     10     29     1
    227    240     1
    273    276     1
    154    201     1
    270    297     1
    233    248     1
     25    354     1
    340    341     1
    215    222     1
    282    298     1
     98    103     1
    328    346     1
    282    302     1
     16     37     1
    182    189     1
     19     42     1
    194    199     1
    228    257     1
    326    330     1
    222    224     1
    362    370     1
     70     71     1
    199    215     1
    127    135     1
    135    138     1
     95    113     1
      8     37     1
     10     33     1
     38     40     1
    314    352     1
    186    206     1
    142    165     1
     66     84     1
     96     99     1
    141    146     1
    286    304     1
    108    122     1
    224    227     1
     97    102     1
      8     13     1
    314    323     1
     97    120     1
    164    165     1
    107    128     1
    182    202     1
    265    269     1
    279    292     1
    358    368     1
    323    329     1
    270    290     1
     51     87     1
     61     64     1
    315    336     1
     61     65     1
    226    253     1
      9     14     1
      7     32     1
    286    305     1
     62     67     1
    361    363     1
    111    127     1
    183    196     1
    184    195     1
    312    332     1
     52     81     1
     89    132     1
    111    133     1
    137    146     1
    358    372     1
     23     45     1
     98    119     1
    102    103     1
     95    116     1
    138    158     1
    266    268     1
    239    265     1
    243    265     1
    145    160     1
    272    288     1
    240    258     1
    214    216     1
    258    261     1
      7     43     1
     47     71     1
    107    130     1
    187    190     1
    237    240     1
     89    114     1
    361    368     1
     60     80     1
    315    340     1
     53     64     1
    287    303     1
    270    308     1
    232    233     1
    196    210     1
    269    272     1
    309    313     1
    290    291     1
    139    175     1
    280    301     1
    126    128     1
    271    291     1
    324    345     1
    187    208     1
    148    168     1
    141    144     1
    171    179     1
    210    211     1
    135    159     1
    179    219     1
    225    245     1
    325    329     1
    147    160     1
    324    327     1
     47     50     1
    229    240     1
      7     25     1
    170    177     1
    272    297     1
    123    124     1
     53     58     1
     34     35     1
    201    202     1
    302    303     1
    184    189     1
    342    343     1
    332    335     1
    258    259     1
    155    177     1
      7     28     1
     18     37     1
     19     40     1
     16     19     1
    360    366     1
    327    363     1
    315    351     1
    320    321     1
    346    348     1
    147    153     1
    110    128     1
    144    145     1
    152    154     1
    317    324     1
    302    306     1
     15     21     1
     47     87     1
    235    238     1
     38     42     1
      7     27     1
      7     10     1
    333    334     1
      8     19     1
    315    318     1
    275    296     1
     59     79     1
    273    284     1
    150    155     1
    234    235     1
      6     33     1
     21     46     1
    184    200     1
    146    156     1
     51     69     1
    194    213     1
     63     89     1
     91    131     1
    166    167     1
    140    149     1
     95     98     1
    186    209     1
    227    230     1
    221    246     1
    274    279     1
    326    342     1
    230    250     1
     60     63     1
    318    323     1
    141    148     1
    310    312     1
     52     57     1
    120    121     1
    254    255     1
    195    216     1
    271    289     1
      1    357     1
    221    264     1
    287    309     1
    193    197     1
    200    203     1
     98    118     1
     53     56     1
    154    174     1
    235    241     1
    315    335     1
    317    328     1
    182    209     1
    318    337     1
     66    113     1
    140    143     1
    181    190     1
    230    253     1
     14     24     1
     18     22     1
    225    263     1
    137    140     1
    194    210     1
    230    251     1
    310    333     1
    240    242     1
      1      5     1
     26     27     1
    242    262     1
    142    162     1
    221    244     1
    214    218     1
    279    285     1
    150    169     1
    296    297     1
     54     77     1
    184    210     1
    197    213     1
    170    171     1
    186    191     1
      5     43     1
     49     58     1
     22     69     1
    140    145     1
     18     34     1
    133    176     1
     32     33     1
    155    171     1
     54     73     1
    107    127     1
    196    212     1
     15     28     1
    108    111     1
    193    196     1
    180    200     1
     89     93     1
    108    126     1
    211    212     1
    268    308     1
    362    369     1
     35     36     1
     82     89     1
     21     36     1
    153    168     1
     50     70     1
    175    176     1
    236    239     1
    272    298     1
    109    134     1
    187    204     1
    241    256     1
    126    129     1
    274    293     1
     46     69     1
     45     49     1
    182    191     1
    224    264     1
     14     15     1
    242    260     1
    258    262     1
     21     37     1
    269    289     1
    316    342     1
    283    303     1
    110    136     1
     97    104     1
    150    166     1
    316    319     1
    330    359     1
    275    278     1
    108    110     1
    153    178     1
     64     80     1
    154    173     1
      5     25     1
    151    172     1
    170    173     1
    267    307     1
    358    363     1
     11     32     1
     54     59     1
     91     94     1
    242    268     1
     39     46     1
    278    279     1
    315    324     1
    327    347     1
      6     26     1
    224    244     1
     92    132     1
     91    115     1
    358    371     1
    214    217     1
     22     48     1
    328    330     1
      5      8     1
    110    129     1
    192    213     1
    214    221     1
    241    266     1
    271    296     1
    280    300     1
     94    132     1
    242    261     1
    346    347     1
    136    176     1
    302    305     1
    258    260     1
     63     85     1
     93    102     1
    126    127     1
    314    321     1
    143    164     1
    281    285     1
     92     95     1
    126    133     1
    108    124     1
     52     63     1
    167    168     1
     51     64     1
    226    235     1
    362    373     1
     52     68     1
     58     68     1
     94    114     1
     53     60     1
    223    226     1
    185    190     1
    271    292     1
     15     18     1
    276    277     1
      6     44     1
     52     77     1
     24     27     1
    360    373     1
    283    299     1
    358    370     1
    152    168     1
    230    249     1
     64     67     1
    177    181     1
    303    310     1
    137    157     1
    259    266     1
     50     77     1
    103    109     1
    158    159     1
    195    218     1
    280    283     1
    154    172     1
     55     76     1
    150    170     1
     13     28     1
    151    177     1
    227    245     1
    309    334     1
    315    328     1
    362    367     1
    185    208     1
    228    244     1
    133    158     1
    153    179     1
     63     83     1
     57     72     1
     51     54     1
      9     12     1
     11     28     1
    330    348     1
     62     78     1
     19     35     1
    326    345     1
     94     97     1
    331    347     1
    228    231     1
    188    189     1
    138    165     1
    343    344     1
     17     20     1
     22     40     1
    181    184     1
    361    370     1
    316    332     1
    288    291     1
     65     81     1
     82     85     1
    266    289     1
    283    309     1
     69     70     1
    326    331     1
    148    151     1
     58     59     1
    184    193     1
    198    245     1
    223    247     1
    327    348     1
     92    112     1
    238    243     1
     64     78     1
     52     61     1
      9     32     1
    208    209     1
     56     57     1
    229    234     1
      9     16     1
    149    153     1
     94    101     1
    228    253     1
    110    157     1
    198    216     1
    271    274     1
      8     33     1
    179    182     1
    136    139     1
     50     59     1
     23     39     1
     38     41     1
     99    102     1
    105    108     1
    177    220     1
    284    287     1
     66     92     1
    139    148     1
    107    123     1
     65     90     1
     99    120     1
     97    100     1
    228    239     1
     54     74     1
    238    254     1
    146    147     1
    245    246     1
    311    351     1
    272    281     1
    195    217     1
     79     80     1
    178    180     1
    235    255     1
     89    112     1
     65     91     1
     93    131     1
    312    315     1
    197    212     1
     67     83     1
    284    286     1
    274    294     1
    236    257     1
    147    167     1
    181    201     1
    271    307     1
    103    123     1
      5     14     1
    270    279     1
    138    141     1
     82     83     1
     20     23     1
    241    257     1
     96    101     1
    289    290     1
    321    336     1
    183    201     1
    185    188     1
    285    310     1
      4     44     1
    316    345     1
    138    147     1
    198    224     1
     20     38     1
    237    241     1
    186    205     1
    184    187     1
     19     45     1
    231    252     1
    184    213     1
    227    263     1
    107    129     1
    361    367     1
    316    327     1
     63     84     1
     94    121     1
     95    108     1
    329    364     1
    284    298     1
    151    171     1
    271    280     1
     93     96     1
    319    336     1
    346    350     1
     50     53     1
    226    233     1
      2    353     1
    351    352     1
    170    174     1
    267    270     1
    313    316     1
    328    342     1
    178    201     1
    269    278     1
    152    155     1
    239    261     1
    307    308     1
     45     70     1
     49     87     1
      9     20     1
    311    335     1
     55     58     1
    316    321     1
     51     76     1
    192    212     1
    230    235     1
      3     43     1
      4    354     1
    299    300     1
    330    349     1
    133    156     1
    269    307     1
    272    283     1
     63     79     1
    238    258     1
    318    338     1
     96    121     1
    103    116     1
    157    158     1
    140    151     1
    258    265     1
    311    314     1
    334    335     1
    104    125     1
    274    295     1
    303    311     1
    319    340     1
     48     68     1
     11     14     1
     22     42     1
    282    287     1
    236    256     1
    107    133     1
      4     24     1
    252    253     1
    317    340     1
    327    349     1
     83     90     1
    189    204     1
    183    208     1
     19     41     1
    138    176     1
    238    257     1
    328    344     1
    142    163     1
    267    291     1
    139    159     1
    185    192     1
      8     17     1
     96    122     1
    182    220     1
    270    277     1
    135    175     1
    255    256     1
    139    157     1
    199    221     1
     10     31     1
     83     91     1
     82     84     1
     20     34     1
     59     65     1
    282    286     1
    314    341     1
     65     80     1
    229    232     1
    285    301     1
    318    339     1
    239    259     1
    243    259     1
    219    220     1
    324    344     1
    329    344     1
    326    346     1
    106    122     1
    362    368     1
    283    306     1
    198    218     1
    141    152     1
    103    106     1
    133    137     1
    143    160     1
    147    150     1
    180    183     1
     62     82     1
    227    236     1
     95    120     1
    141    164     1
    190    200     1
    282    301     1
     51     60     1
    197    223     1
      3     27     1
    140    156     1
     10     15     1
    196    198     1
    139    142     1
    286    333     1
    362    372     1
     45     68     1
    183    203     1
    329    362     1
    227    252     1
    322    323     1
    273    296     1
     96    105     1
    309    352     1
    358    369     1
    325    328     1
    360    372     1
    274    297     1
     78     79     1
     64     82     1
     46     48     1
    148    169     1
    191    204     1
    195    211     1
      1     26     1
     52     78     1
     90     92     1
      2     25     1
     50     88     1
    242    289     1
    152    166     1
    302    304     1
    223    263     1
    225    234     1
    171    178     1
    285    311     1
     38     45     1
     93    113     1
    319    322     1
    184    209     1
    272    275     1
    316    325     1
    346    349     1
    134    136     1
    214    215     1
    198    217     1
    317    322     1
    235    248     1
    143    146     1
    170    172     1
    279    282     1
    323    343     1
     49     69     1
      7     16     1
     15     35     1
     94    103     1
    109    125     1
     54     75     1
    278    288     1
    360    367     1
    314    334     1
      1     44     1
      6     13     1
      8     24     1
     59     72     1
    104    124     1
    265    288     1
    231    248     1
    238    242     1
    149    152     1
    284    300     1
     98    117     1
    358    373     1
    215    223     1
    104    107     1
    226    229     1
    268    271     1
    272    277     1
    150    154     1
    263    264     1
    313    351     1
     90    113     1
    183    204     1
     68     71     1
     62     81     1
     98    121     1
     63     86     1
    109    135     1
     95    131     1
     49     52     1
    196    214     1
    142    147     1
    239    262     1
    268    288     1
    328    331     1
     96    125     1
    100    101     1
    152    170     1
     20     36     1
     12     13     1
      8     11     1
     38     39     1
      3    353     1
    102    112     1
    221    225     1
    286    306     1
    329    345     1
      1    355     1
    183    192     1
    246    247     1
    244    247     1
    195    221     1
    229    236     1
     51     72     1
    318    341     1
    191    194     1
     21     47     1
    330    350     1
      1    356     1
    362    366     1
    194    198     1
    234    244     1
    273    278     1
      8     34     1
    314    317     1
    105    109     1
    106    125     1
    347    364     1
    127    134     1
    229    252     1
    327    343     1
      1     24     1
    317    320     1
    313    322     1
    140    169     1
    151    174     1
    183    186     1
     96    112     1
    186    207     1
    239    260     1
     66     85     1
    101    116     1
    312    352     1
    316    341     1
     59     62     1
    138    145     1
      6     15     1
    196    199     1
     18     23     1
    313    333     1
      3      6     1
      7     20     1
    327    350     1
    362    365     1
    231    234     1
    126    130     1
    271    284     1
    191    211     1
    241    267     1
     10     30     1
    346    363     1
    323    326     1
     18     38     1
    284    302     1
    142    161     1
    153    169     1
    361    369     1
    185    196     1
    285    300     1
    180    220     1
    228    254     1
    114    115     1
    182    185     1
    283    304     1
    360    365     1
      2      4     1
    113    114     1
    140    165     1
    192    195     1
    359    364     1
    131    132     1
    202    203     1
    225    228     1
    322    332     1
    134    157     1
     25     26     1
    195    215     1
    197    222     1
    270    273     1
    273    280     1
     82     86     1
    265    290     1
    140    166     1
    139    160     1
     99    116     1
    179    203     1
    137    175     1
    240    256     1
    283    305     1
    275    292     1
    177    202     1
    110    130     1
    309    332     1
    177    200     1
    122    123     1
     62     66     1
     48     88     1
    181    219     1
     22     41     1
    139    152     1
    227    248     1
     76     77     1
     60     81     1
    106    111     1
    315    333     1
    109    124     1
    106    126     1
    323    336     1
    191    197     1
    154    180     1
    279    299     1
    151    173     1
      4      7     1
     87     88     1
    183    219     1
    259    267     1
    277    292     1
     97    108     1
    139    164     1
     20     22     1
    112    115     1
    298    299     1
     95    115     1
    190    191     1
    281    284     1
    222    245     1

[ angles ]
;    ai     aj     ak funct         c0         c1         c2         c3
      1      3      4     1   126.8062420 484.492885
      1      3     25     1   126.8062420 484.492885
      1    354    353     1   110.3538806 544.678275
      2      1      3     1   126.8062420 484.492885
      2      1    354     1   127.4691416 1685.413543
      3      1    354     1   126.8062420 484.492885
      3      4      5     1   126.8062420 484.492885
      3      4     26     1   129.1835930 285.070775
      3     25     24     1   126.8062420 484.492885
      3     25     44     1   129.1835930 285.070775
      4      3     25     1   126.8062420 484.492885
      4      5      6     1   126.8062420 484.492885
      4      5     27     1   129.1835930 285.070775
      5      4     26     1   129.1835930 285.070775
      5      6      7     1   126.8062420 484.492885
      5      6     24     1   126.8062420 484.492885
      6      5     27     1   129.1835930 285.070775
      6      7      8     1   126.8062420 484.492885
      6      7     14     1   126.8062420 484.492885
      6     24     25     1   126.8062420 484.492885
      6     24     43     1   129.1835930 285.070775
      7      6     24     1   126.8062420 484.492885
      7      8      9     1   126.8062420 484.492885
      7      8     15     1   126.8062420 484.492885
      7     14     13     1   126.8062420 484.492885
      7     14     33     1   129.1835930 285.070775
      8      7     14     1   126.8062420 484.492885
      8      9     10     1   126.8062420 484.492885
      8      9     28     1   129.1835930 285.070775
      8     15     16     1   126.8062420 484.492885
      8     15     20     1   126.8062420 484.492885
      9      8     15     1   126.8062420 484.492885
      9     10     11     1   126.8062420 484.492885
      9     10     13     1   126.8062420 484.492885
     10      9     28     1   129.1835930 285.070775
     10     11     12     1   110.3538806 544.678275
     10     13     14     1   126.8062420 484.492885
     10     13     32     1   129.1835930 285.070775
     11     10     13     1   126.8062420 484.492885
     11     12     29     1   107.6607822 425.669015
     11     12     30     1   107.6607822 425.669015
     11     12     31     1   107.6607822 425.669015
     13     14     33     1   129.1835930 285.070775
     14     13     32     1   129.1835930 285.070775
     15     16     17     1   126.8062420 484.492885
     15     16     34     1   129.1835930 285.070775
     15     20     19     1   126.8062420 484.492885
     15     20     37     1   129.1835930 285.070775
     16     15     20     1   126.8062420 484.492885
     16     17     18     1   126.8062420 484.492885
     16     17     35     1   129.1835930 285.070775
     17     16     34     1   129.1835930 285.070775
     17     18     19     1   126.8062420 484.492885
     17     18     36     1   129.1835930 285.070775
     18     17     35     1   129.1835930 285.070775
     18     19     20     1   126.8062420 484.492885
     18     19     21     1   126.8062420 484.492885
     19     18     36     1   129.1835930 285.070775
     19     20     37     1   129.1835930 285.070775
     19     21     22     1   107.6607822 425.669015
     19     21     23     1   107.6607822 425.669015
     19     21     38     1   107.6607822 425.669015
     20     19     21     1   126.8062420 484.492885
     21     22     39     1   115.5071328 530.901283
     21     22     45     1   117.3465571 463.769802
     21     23     40     1   107.6607822 425.669015
     21     23     41     1   107.6607822 425.669015
     21     23     42     1   107.6607822 425.669015
     22     21     23     1   107.6607822 425.669015
     22     21     38     1   107.6607822 425.669015
     22     45     46     1   126.8062420 484.492885
     22     45     47     1   126.8062420 484.492885
     23     21     38     1   107.6607822 425.669015
     24     25     44     1   129.1835930 285.070775
     25     24     43     1   129.1835930 285.070775
     29     12     30     1   115.6031000 408.161690
     29     12     31     1   115.6031000 408.161690
     30     12     31     1   115.6031000 408.161690
     39     22     45     1   115.5071328 530.901283
     40     23     41     1   115.6031000 408.161690
     40     23     42     1   115.6031000 408.161690
     41     23     42     1   115.6031000 408.161690
     45     47     48     1   126.8062420 484.492885
     45     47     69     1   126.8062420 484.492885
     46     45     47     1   126.8062420 484.492885
     47     48     49     1   126.8062420 484.492885
     47     48     70     1   129.1835930 285.070775
     47     69     68     1   126.8062420 484.492885
     47     69     88     1   129.1835930 285.070775
     48     47     69     1   126.8062420 484.492885
     48     49     50     1   126.8062420 484.492885
     48     49     71     1   129.1835930 285.070775
     49     48     70     1   129.1835930 285.070775
     49     50     51     1   126.8062420 484.492885
     49     50     68     1   126.8062420 484.492885
     50     49     71     1   129.1835930 285.070775
     50     51     52     1   126.8062420 484.492885
     50     51     58     1   126.8062420 484.492885
     50     68     69     1   126.8062420 484.492885
     50     68     87     1   129.1835930 285.070775
     51     50     68     1   126.8062420 484.492885
     51     52     53     1   126.8062420 484.492885
     51     52     59     1   126.8062420 484.492885
     51     58     57     1   126.8062420 484.492885
     51     58     77     1   129.1835930 285.070775
     52     51     58     1   126.8062420 484.492885
     52     53     54     1   126.8062420 484.492885
     52     53     72     1   129.1835930 285.070775
     52     59     60     1   126.8062420 484.492885
     52     59     64     1   126.8062420 484.492885
     53     52     59     1   126.8062420 484.492885
     53     54     55     1   126.8062420 484.492885
     53     54     57     1   126.8062420 484.492885
     54     53     72     1   129.1835930 285.070775
     54     55     56     1   110.3538806 544.678275
     54     57     58     1   126.8062420 484.492885
     54     57     76     1   129.1835930 285.070775
     55     54     57     1   126.8062420 484.492885
     55     56     73     1   107.6607822 425.669015
     55     56     74     1   107.6607822 425.669015
     55     56     75     1   107.6607822 425.669015
     57     58     77     1   129.1835930 285.070775
     58     57     76     1   129.1835930 285.070775
     59     60     61     1   126.8062420 484.492885
     59     60     78     1   129.1835930 285.070775
     59     64     63     1   126.8062420 484.492885
     59     64     81     1   129.1835930 285.070775
     60     59     64     1   126.8062420 484.492885
     60     61     62     1   126.8062420 484.492885
     60     61     79     1   129.1835930 285.070775
     61     60     78     1   129.1835930 285.070775
     61     62     63     1   126.8062420 484.492885
     61     62     80     1   129.1835930 285.070775
     62     61     79     1   129.1835930 285.070775
     62     63     64     1   126.8062420 484.492885
     62     63     65     1   126.8062420 484.492885
     63     62     80     1   129.1835930 285.070775
     63     64     81     1   129.1835930 285.070775
     63     65     66     1   107.6607822 425.669015
     63     65     67     1   107.6607822 425.669015
     63     65     82     1   107.6607822 425.669015
     64     63     65     1   126.8062420 484.492885
     65     66     83     1   115.5071328 530.901283
     65     66     89     1   117.3465571 463.769802
     65     67     84     1   107.6607822 425.669015
     65     67     85     1   107.6607822 425.669015
     65     67     86     1   107.6607822 425.669015
     66     65     67     1   107.6607822 425.669015
     66     65     82     1   107.6607822 425.669015
     66     89     90     1   126.8062420 484.492885
     66     89     91     1   126.8062420 484.492885
     67     65     82     1   107.6607822 425.669015
     68     69     88     1   129.1835930 285.070775
     69     68     87     1   129.1835930 285.070775
     73     56     74     1   115.6031000 408.161690
     73     56     75     1   115.6031000 408.161690
     74     56     75     1   115.6031000 408.161690
     83     66     89     1   115.5071328 530.901283
     84     67     85     1   115.6031000 408.161690
     84     67     86     1   115.6031000 408.161690
     85     67     86     1   115.6031000 408.161690
     89     91     92     1   126.8062420 484.492885
     89     91    113     1   126.8062420 484.492885
     90     89     91     1   126.8062420 484.492885
     91     92     93     1   126.8062420 484.492885
     91     92    114     1   129.1835930 285.070775
     91    113    112     1   126.8062420 484.492885
     91    113    132     1   129.1835930 285.070775
     92     91    113     1   126.8062420 484.492885
     92     93     94     1   126.8062420 484.492885
     92     93    115     1   129.1835930 285.070775
     93     92    114     1   129.1835930 285.070775
     93     94     95     1   126.8062420 484.492885
     93     94    112     1   126.8062420 484.492885
     94     93    115     1   129.1835930 285.070775
     94     95     96     1   126.8062420 484.492885
     94     95    102     1   126.8062420 484.492885
     94    112    113     1   126.8062420 484.492885
     94    112    131     1   129.1835930 285.070775
     95     94    112     1   126.8062420 484.492885
     95     96     97     1   126.8062420 484.492885
     95     96    103     1   126.8062420 484.492885
     95    102    101     1   126.8062420 484.492885
     95    102    121     1   129.1835930 285.070775
     96     95    102     1   126.8062420 484.492885
     96     97     98     1   126.8062420 484.492885
     96     97    116     1   129.1835930 285.070775
     96    103    104     1   126.8062420 484.492885
     96    103    108     1   126.8062420 484.492885
     97     96    103     1   126.8062420 484.492885
     97     98     99     1   126.8062420 484.492885
     97     98    101     1   126.8062420 484.492885
     98     97    116     1   129.1835930 285.070775
     98     99    100     1   110.3538806 544.678275
     98    101    102     1   126.8062420 484.492885
     98    101    120     1   129.1835930 285.070775
     99     98    101     1   126.8062420 484.492885
     99    100    117     1   107.6607822 425.669015
     99    100    118     1   107.6607822 425.669015
     99    100    119     1   107.6607822 425.669015
    101    102    121     1   129.1835930 285.070775
    102    101    120     1   129.1835930 285.070775
    103    104    105     1   126.8062420 484.492885
    103    104    122     1   129.1835930 285.070775
    103    108    107     1   126.8062420 484.492885
    103    108    125     1   129.1835930 285.070775
    104    103    108     1   126.8062420 484.492885
    104    105    106     1   126.8062420 484.492885
    104    105    123     1   129.1835930 285.070775
    105    104    122     1   129.1835930 285.070775
    105    106    107     1   126.8062420 484.492885
    105    106    124     1   129.1835930 285.070775
    106    105    123     1   129.1835930 285.070775
    106    107    108     1   126.8062420 484.492885
    106    107    109     1   126.8062420 484.492885
    107    106    124     1   129.1835930 285.070775
    107    108    125     1   129.1835930 285.070775
    107    109    110     1   107.6607822 425.669015
    107    109    111     1   107.6607822 425.669015
    107    109    126     1   107.6607822 425.669015
    108    107    109     1   126.8062420 484.492885
    109    110    127     1   115.5071328 530.901283
    109    110    133     1   117.3465571 463.769802
    109    111    128     1   107.6607822 425.669015
    109    111    129     1   107.6607822 425.669015
    109    111    130     1   107.6607822 425.669015
    110    109    111     1   107.6607822 425.669015
    110    109    126     1   107.6607822 425.669015
    110    133    134     1   126.8062420 484.492885
    110    133    135     1   126.8062420 484.492885
    111    109    126     1   107.6607822 425.669015
    112    113    132     1   129.1835930 285.070775
    113    112    131     1   129.1835930 285.070775
    117    100    118     1   115.6031000 408.161690
    117    100    119     1   115.6031000 408.161690
    118    100    119     1   115.6031000 408.161690
    127    110    133     1   115.5071328 530.901283
    128    111    129     1   115.6031000 408.161690
    128    111    130     1   115.6031000 408.161690
    129    111    130     1   115.6031000 408.161690
    133    135    136     1   126.8062420 484.492885
    133    135    157     1   126.8062420 484.492885
    134    133    135     1   126.8062420 484.492885
    135    136    137     1   126.8062420 484.492885
    135    136    158     1   129.1835930 285.070775
    135    157    156     1   126.8062420 484.492885
    135    157    176     1   129.1835930 285.070775
    136    135    157     1   126.8062420 484.492885
    136    137    138     1   126.8062420 484.492885
    136    137    159     1   129.1835930 285.070775
    137    136    158     1   129.1835930 285.070775
    137    138    139     1   126.8062420 484.492885
    137    138    156     1   126.8062420 484.492885
    138    137    159     1   129.1835930 285.070775
    138    139    140     1   126.8062420 484.492885
    138    139    146     1   126.8062420 484.492885
    138    156    157     1   126.8062420 484.492885
    138    156    175     1   129.1835930 285.070775
    139    138    156     1   126.8062420 484.492885
    139    140    141     1   126.8062420 484.492885
    139    140    147     1   126.8062420 484.492885
    139    146    145     1   126.8062420 484.492885
    139    146    165     1   129.1835930 285.070775
    140    139    146     1   126.8062420 484.492885
    140    141    142     1   126.8062420 484.492885
    140    141    160     1   129.1835930 285.070775
    140    147    148     1   126.8062420 484.492885
    140    147    152     1   126.8062420 484.492885
    141    140    147     1   126.8062420 484.492885
    141    142    143     1   126.8062420 484.492885
    141    142    145     1   126.8062420 484.492885
    142    141    160     1   129.1835930 285.070775
    142    143    144     1   110.3538806 544.678275
    142    145    146     1   126.8062420 484.492885
    142    145    164     1   129.1835930 285.070775
    143    142    145     1   126.8062420 484.492885
    143    144    161     1   107.6607822 425.669015
    143    144    162     1   107.6607822 425.669015
    143    144    163     1   107.6607822 425.669015
    145    146    165     1   129.1835930 285.070775
    146    145    164     1   129.1835930 285.070775
    147    148    149     1   126.8062420 484.492885
    147    148    166     1   129.1835930 285.070775
    147    152    151     1   126.8062420 484.492885
    147    152    169     1   129.1835930 285.070775
    148    147    152     1   126.8062420 484.492885
    148    149    150     1   126.8062420 484.492885
    148    149    167     1   129.1835930 285.070775
    149    148    166     1   129.1835930 285.070775
    149    150    151     1   126.8062420 484.492885
    149    150    168     1   129.1835930 285.070775
    150    149    167     1   129.1835930 285.070775
    150    151    152     1   126.8062420 484.492885
    150    151    153     1   126.8062420 484.492885
    151    150    168     1   129.1835930 285.070775
    151    152    169     1   129.1835930 285.070775
    151    153    154     1   107.6607822 425.669015
    151    153    155     1   107.6607822 425.669015
    151    153    170     1   107.6607822 425.669015
    152    151    153     1   126.8062420 484.492885
    153    154    171     1   115.5071328 530.901283
    153    154    177     1   117.3465571 463.769802
    153    155    172     1   107.6607822 425.669015
    153    155    173     1   107.6607822 425.669015
    153    155    174     1   107.6607822 425.669015
    154    153    155     1   107.6607822 425.669015
    154    153    170     1   107.6607822 425.669015
    154    177    178     1   126.8062420 484.492885
    154    177    179     1   126.8062420 484.492885
    155    153    170     1   107.6607822 425.669015
    156    157    176     1   129.1835930 285.070775
    157    156    175     1   129.1835930 285.070775
    161    144    162     1   115.6031000 408.161690
    161    144    163     1   115.6031000 408.161690
    162    144    163     1   115.6031000 408.161690
    171    154    177     1   115.5071328 530.901283
    172    155    173     1   115.6031000 408.161690
    172    155    174     1   115.6031000 408.161690
    173    155    174     1   115.6031000 408.161690
    177    179    180     1   126.8062420 484.492885
    177    179    201     1   126.8062420 484.492885
    178    177    179     1   126.8062420 484.492885
    179    180    181     1   126.8062420 484.492885
    179    180    202     1   129.1835930 285.070775
    179    201    200     1   126.8062420 484.492885
    179    201    220     1   129.1835930 285.070775
    180    179    201     1   126.8062420 484.492885
    180    181    182     1   126.8062420 484.492885
    180    181    203     1   129.1835930 285.070775
    181    180    202     1   129.1835930 285.070775
    181    182    183     1   126.8062420 484.492885
    181    182    200     1   126.8062420 484.492885
    182    181    203     1   129.1835930 285.070775
    182    183    184     1   126.8062420 484.492885
    182    183    190     1   126.8062420 484.492885
    182    200    201     1   126.8062420 484.492885
    182    200    219     1   129.1835930 285.070775
    183    182    200     1   126.8062420 484.492885
    183    184    185     1   126.8062420 484.492885
    183    184    191     1   126.8062420 484.492885
    183    190    189     1   126.8062420 484.492885
    183    190    209     1   129.1835930 285.070775
    184    183    190     1   126.8062420 484.492885
    184    185    186     1   126.8062420 484.492885
    184    185    204     1   129.1835930 285.070775
    184    191    192     1   126.8062420 484.492885
    184    191    196     1   126.8062420 484.492885
    185    184    191     1   126.8062420 484.492885
    185    186    187     1   126.8062420 484.492885
    185    186    189     1   126.8062420 484.492885
    186    185    204     1   129.1835930 285.070775
    186    187    188     1   110.3538806 544.678275
    186    189    190     1   126.8062420 484.492885
    186    189    208     1   129.1835930 285.070775
    187    186    189     1   126.8062420 484.492885
    187    188    205     1   107.6607822 425.669015
    187    188    206     1   107.6607822 425.669015
    187    188    207     1   107.6607822 425.669015
    189    190    209     1   129.1835930 285.070775
    190    189    208     1   129.1835930 285.070775
    191    192    193     1   126.8062420 484.492885
    191    192    210     1   129.1835930 285.070775
    191    196    195     1   126.8062420 484.492885
    191    196    213     1   129.1835930 285.070775
    192    191    196     1   126.8062420 484.492885
    192    193    194     1   126.8062420 484.492885
    192    193    211     1   129.1835930 285.070775
    193    192    210     1   129.1835930 285.070775
    193    194    195     1   126.8062420 484.492885
    193    194    212     1   129.1835930 285.070775
    194    193    211     1   129.1835930 285.070775
    194    195    196     1   126.8062420 484.492885
    194    195    197     1   126.8062420 484.492885
    195    194    212     1   129.1835930 285.070775
    195    196    213     1   129.1835930 285.070775
    195    197    198     1   107.6607822 425.669015
    195    197    199     1   107.6607822 425.669015
    195    197    214     1   107.6607822 425.669015
    196    195    197     1   126.8062420 484.492885
    197    198    215     1   115.5071328 530.901283
    197    198    221     1   117.3465571 463.769802
    197    199    216     1   107.6607822 425.669015
    197    199    217     1   107.6607822 425.669015
    197    199    218     1   107.6607822 425.669015
    198    197    199     1   107.6607822 425.669015
    198    197    214     1   107.6607822 425.669015
    198    221    222     1   126.8062420 484.492885
    198    221    223     1   126.8062420 484.492885
    199    197    214     1   107.6607822 425.669015
    200    201    220     1   129.1835930 285.070775
    201    200    219     1   129.1835930 285.070775
    205    188    206     1   115.6031000 408.161690
    205    188    207     1   115.6031000 408.161690
    206    188    207     1   115.6031000 408.161690
    215    198    221     1   115.5071328 530.901283
    216    199    217     1   115.6031000 408.161690
    216    199    218     1   115.6031000 408.161690
    217    199    218     1   115.6031000 408.161690
    221    223    224     1   126.8062420 484.492885
    221    223    245     1   126.8062420 484.492885
    222    221    223     1   126.8062420 484.492885
    223    224    225     1   126.8062420 484.492885
    223    224    246     1   129.1835930 285.070775
    223    245    244     1   126.8062420 484.492885
    223    245    264     1   129.1835930 285.070775
    224    223    245     1   126.8062420 484.492885
    224    225    226     1   126.8062420 484.492885
    224    225    247     1   129.1835930 285.070775
    225    224    246     1   129.1835930 285.070775
    225    226    227     1   126.8062420 484.492885
    225    226    244     1   126.8062420 484.492885
    226    225    247     1   129.1835930 285.070775
    226    227    228     1   126.8062420 484.492885
    226    227    234     1   126.8062420 484.492885
    226    244    245     1   126.8062420 484.492885
    226    244    263     1   129.1835930 285.070775
    227    226    244     1   126.8062420 484.492885
    227    228    229     1   126.8062420 484.492885
    227    228    235     1   126.8062420 484.492885
    227    234    233     1   126.8062420 484.492885
    227    234    253     1   129.1835930 285.070775
    228    227    234     1   126.8062420 484.492885
    228    229    230     1   126.8062420 484.492885
    228    229    248     1   129.1835930 285.070775
    228    235    236     1   126.8062420 484.492885
    228    235    240     1   126.8062420 484.492885
    229    228    235     1   126.8062420 484.492885
    229    230    231     1   126.8062420 484.492885
    229    230    233     1   126.8062420 484.492885
    230    229    248     1   129.1835930 285.070775
    230    231    232     1   110.3538806 544.678275
    230    233    234     1   126.8062420 484.492885
    230    233    252     1   129.1835930 285.070775
    231    230    233     1   126.8062420 484.492885
    231    232    249     1   107.6607822 425.669015
    231    232    250     1   107.6607822 425.669015
    231    232    251     1   107.6607822 425.669015
    233    234    253     1   129.1835930 285.070775
    234    233    252     1   129.1835930 285.070775
    235    236    237     1   126.8062420 484.492885
    235    236    254     1   129.1835930 285.070775
    235    240    239     1   126.8062420 484.492885
    235    240    257     1   129.1835930 285.070775
    236    235    240     1   126.8062420 484.492885
    236    237    238     1   126.8062420 484.492885
    236    237    255     1   129.1835930 285.070775
    237    236    254     1   129.1835930 285.070775
    237    238    239     1   126.8062420 484.492885
    237    238    256     1   129.1835930 285.070775
    238    237    255     1   129.1835930 285.070775
    238    239    240     1   126.8062420 484.492885
    238    239    241     1   126.8062420 484.492885
    239    238    256     1   129.1835930 285.070775
    239    240    257     1   129.1835930 285.070775
    239    241    242     1   107.6607822 425.669015
    239    241    243     1   107.6607822 425.669015
    239    241    258     1   107.6607822 425.669015
    240    239    241     1   126.8062420 484.492885
    241    242    259     1   115.5071328 530.901283
    241    242    265     1   117.3465571 463.769802
    241    243    260     1   107.6607822 425.669015
    241    243    261     1   107.6607822 425.669015
    241    243    262     1   107.6607822 425.669015
    242    241    243     1   107.6607822 425.669015
    242    241    258     1   107.6607822 425.669015
    242    265    266     1   126.8062420 484.492885
    242    265    267     1   126.8062420 484.492885
    243    241    258     1   107.6607822 425.669015
    244    245    264     1   129.1835930 285.070775
    245    244    263     1   129.1835930 285.070775
    249    232    250     1   115.6031000 408.161690
    249    232    251     1   115.6031000 408.161690
    250    232    251     1   115.6031000 408.161690
    259    242    265     1   115.5071328 530.901283
    260    243    261     1   115.6031000 408.161690
    260    243    262     1   115.6031000 408.161690
    261    243    262     1   115.6031000 408.161690
    265    267    268     1   126.8062420 484.492885
    265    267    289     1   126.8062420 484.492885
    266    265    267     1   126.8062420 484.492885
    267    268    269     1   126.8062420 484.492885
    267    268    290     1   129.1835930 285.070775
    267    289    288     1   126.8062420 484.492885
    267    289    308     1   129.1835930 285.070775
    268    267    289     1   126.8062420 484.492885
    268    269    270     1   126.8062420 484.492885
    268    269    291     1   129.1835930 285.070775
    269    268    290     1   129.1835930 285.070775
    269    270    271     1   126.8062420 484.492885
    269    270    288     1   126.8062420 484.492885
    270    269    291     1   129.1835930 285.070775
    270    271    272     1   126.8062420 484.492885
    270    271    278     1   126.8062420 484.492885
    270    288    289     1   126.8062420 484.492885
    270    288    307     1   129.1835930 285.070775
    271    270    288     1   126.8062420 484.492885
    271    272    273     1   126.8062420 484.492885
    271    272    279     1   126.8062420 484.492885
    271    278    277     1   126.8062420 484.492885
    271    278    297     1   129.1835930 285.070775
    272    271    278     1   126.8062420 484.492885
    272    273    274     1   126.8062420 484.492885
    272    273    292     1   129.1835930 285.070775
    272    279    280     1   126.8062420 484.492885
    272    279    284     1   126.8062420 484.492885
    273    272    279     1   126.8062420 484.492885
    273    274    275     1   126.8062420 484.492885
    273    274    277     1   126.8062420 484.492885
    274    273    292     1   129.1835930 285.070775
    274    275    276     1   110.3538806 544.678275
    274    277    278     1   126.8062420 484.492885
    274    277    296     1   129.1835930 285.070775
    275    274    277     1   126.8062420 484.492885
    275    276    293     1   107.6607822 425.669015
    275    276    294     1   107.6607822 425.669015
    275    276    295     1   107.6607822 425.669015
    277    278    297     1   129.1835930 285.070775
    278    277    296     1   129.1835930 285.070775
    279    280    281     1   126.8062420 484.492885
    279    280    298     1   129.1835930 285.070775
    279    284    283     1   126.8062420 484.492885
    279    284    301     1   129.1835930 285.070775
    280    279    284     1   126.8062420 484.492885
    280    281    282     1   126.8062420 484.492885
    280    281    299     1   129.1835930 285.070775
    281    280    298     1   129.1835930 285.070775
    281    282    283     1   126.8062420 484.492885
    281    282    300     1   129.1835930 285.070775
    282    281    299     1   129.1835930 285.070775
    282    283    284     1   126.8062420 484.492885
    282    283    285     1   126.8062420 484.492885
    283    282    300     1   129.1835930 285.070775
    283    284    301     1   129.1835930 285.070775
    283    285    286     1   107.6607822 425.669015
    283    285    287     1   107.6607822 425.669015
    283    285    302     1   107.6607822 425.669015
    284    283    285     1   126.8062420 484.492885
    285    286    303     1   115.5071328 530.901283
    285    286    309     1   117.3465571 463.769802
    285    287    304     1   107.6607822 425.669015
    285    287    305     1   107.6607822 425.669015
    285    287    306     1   107.6607822 425.669015
    286    285    287     1   107.6607822 425.669015
    286    285    302     1   107.6607822 425.669015
    286    309    310     1   126.8062420 484.492885
    286    309    311     1   126.8062420 484.492885
    287    285    302     1   107.6607822 425.669015
    288    289    308     1   129.1835930 285.070775
    289    288    307     1   129.1835930 285.070775
    293    276    294     1   115.6031000 408.161690
    293    276    295     1   115.6031000 408.161690
    294    276    295     1   115.6031000 408.161690
    303    286    309     1   115.5071328 530.901283
    304    287    305     1   115.6031000 408.161690
    304    287    306     1   115.6031000 408.161690
    305    287    306     1   115.6031000 408.161690
    309    311    312     1   126.8062420 484.492885
    309    311    333     1   126.8062420 484.492885
    310    309    311     1   126.8062420 484.492885
    311    312    313     1   126.8062420 484.492885
    311    312    334     1   129.1835930 285.070775
    311    333    332     1   126.8062420 484.492885
    311    333    352     1   129.1835930 285.070775
    312    311    333     1   126.8062420 484.492885
    312    313    314     1   126.8062420 484.492885
    312    313    335     1   129.1835930 285.070775
    313    312    334     1   129.1835930 285.070775
    313    314    315     1   126.8062420 484.492885
    313    314    332     1   126.8062420 484.492885
    314    313    335     1   129.1835930 285.070775
    314    315    316     1   126.8062420 484.492885
    314    315    322     1   126.8062420 484.492885
    314    332    333     1   126.8062420 484.492885
    314    332    351     1   129.1835930 285.070775
    315    314    332     1   126.8062420 484.492885
    315    316    317     1   126.8062420 484.492885
    315    316    323     1   126.8062420 484.492885
    315    322    321     1   126.8062420 484.492885
    315    322    341     1   129.1835930 285.070775
    316    315    322     1   126.8062420 484.492885
    316    317    318     1   126.8062420 484.492885
    316    317    336     1   129.1835930 285.070775
    316    323    324     1   126.8062420 484.492885
    316    323    328     1   126.8062420 484.492885
    317    316    323     1   126.8062420 484.492885
    317    318    319     1   126.8062420 484.492885
    317    318    321     1   126.8062420 484.492885
    318    317    336     1   129.1835930 285.070775
    318    319    320     1   110.3538806 544.678275
    318    321    322     1   126.8062420 484.492885
    318    321    340     1   129.1835930 285.070775
    319    318    321     1   126.8062420 484.492885
    319    320    337     1   107.6607822 425.669015
    319    320    338     1   107.6607822 425.669015
    319    320    339     1   107.6607822 425.669015
    321    322    341     1   129.1835930 285.070775
    322    321    340     1   129.1835930 285.070775
    323    324    325     1   126.8062420 484.492885
    323    324    342     1   129.1835930 285.070775
    323    328    327     1   126.8062420 484.492885
    323    328    345     1   129.1835930 285.070775
    324    323    328     1   126.8062420 484.492885
    324    325    326     1   126.8062420 484.492885
    324    325    343     1   129.1835930 285.070775
    325    324    342     1   129.1835930 285.070775
    325    326    327     1   126.8062420 484.492885
    325    326    344     1   129.1835930 285.070775
    326    325    343     1   129.1835930 285.070775
    326    327    328     1   126.8062420 484.492885
    326    327    329     1   126.8062420 484.492885
    327    326    344     1   129.1835930 285.070775
    327    328    345     1   129.1835930 285.070775
    327    329    330     1   107.6607822 425.669015
    327    329    331     1   107.6607822 425.669015
    327    329    346     1   107.6607822 425.669015
    328    327    329     1   126.8062420 484.492885
    329    330    347     1   115.5071328 530.901283
    329    330    363     1   117.3465571 463.769802
    329    331    348     1   107.6607822 425.669015
    329    331    349     1   107.6607822 425.669015
    329    331    350     1   107.6607822 425.669015
    330    329    331     1   107.6607822 425.669015
    330    329    346     1   107.6607822 425.669015
    330    363    362     1   126.8062420 484.492885
    330    363    364     1   126.8062420 484.492885
    331    329    346     1   107.6607822 425.669015
    332    333    352     1   129.1835930 285.070775
    333    332    351     1   129.1835930 285.070775
    337    320    338     1   115.6031000 408.161690
    337    320    339     1   115.6031000 408.161690
    338    320    339     1   115.6031000 408.161690
    347    330    363     1   115.5071328 530.901283
    348    331    349     1   115.6031000 408.161690
    348    331    350     1   115.6031000 408.161690
    349    331    350     1   115.6031000 408.161690
    354    353    355     1   107.6607822 425.669015
    354    353    356     1   107.6607822 425.669015
    354    353    357     1   107.6607822 425.669015
    355    353    356     1   115.6031000 408.161690
    355    353    357     1   115.6031000 408.161690
    356    353    357     1   115.6031000 408.161690
    358    359    360     1   107.6607822 425.669015
    358    359    361     1   107.6607822 425.669015
    358    359    362     1   107.6607822 425.669015
    359    358    365     1   107.6607822 425.669015
    359    358    366     1   107.6607822 425.669015
    359    358    367     1   107.6607822 425.669015
    359    360    368     1   107.6607822 425.669015
    359    360    369     1   107.6607822 425.669015
    359    360    370     1   107.6607822 425.669015
    359    361    371     1   107.6607822 425.669015
    359    361    372     1   107.6607822 425.669015
    359    361    373     1   107.6607822 425.669015
    359    362    363     1   110.3538806 544.678275
    360    359    361     1   107.6607822 425.669015
    360    359    362     1   107.6607822 425.669015
    361    359    362     1   107.6607822 425.669015
    362    363    364     1   127.4691416 1685.413543
    365    358    366     1   115.6031000 408.161690
    365    358    367     1   115.6031000 408.161690
    366    358    367     1   115.6031000 408.161690
    368    360    369     1   115.6031000 408.161690
    368    360    370     1   115.6031000 408.161690
    369    360    370     1   115.6031000 408.161690
    371    361    372     1   115.6031000 408.161690
    371    361    373     1   115.6031000 408.161690
    372    361    373     1   115.6031000 408.161690

[ dihedrals ]
;    ai     aj     ak     al funct         c0         c1         c2         c3         c4         c5
      1      3      4      5     1  180.0000000  15.3215155  2
      1      3      4     26     1  180.0000000  15.3215155  2
      1      3     25     24     1  180.0000000  15.3215155  2
      1      3     25     44     1  180.0000000  15.3215155  2
      1    354    353    355     1  0.0000000  0.1982205  3
      1    354    353    356     1  0.0000000  0.1982205  3
      1    354    353    357     1  0.0000000  0.1982205  3
      2      1      3      4     1  180.0000000  4.1731909  2
      2      1      3     25     1  180.0000000  4.1731909  2
      2      1    354    353     1  180.0000000  4.8693776  2
      2      1    354    353     1  180.0000000  0.7025718  1
      3      1    354    353     1  180.0000000  11.6309081  2
      3      4      5      6     1  180.0000000  15.3215155  2
      3      4      5     27     1  180.0000000  15.3215155  2
      3     25     24      6     1  180.0000000  15.3215155  2
      3     25     24     43     1  180.0000000  15.3215155  2
      4      3      1    354     1  180.0000000  4.1731909  2
      4      3     25     24     1  180.0000000  15.3215155  2
      4      3     25     44     1  180.0000000  15.3215155  2
      4      5      6      7     1  180.0000000  15.3215155  2
      4      5      6     24     1  180.0000000  15.3215155  2
      5      4      3     25     1  180.0000000  15.3215155  2
      5      6      7      8     1  180.0000000  4.8669776  2
      5      6      7     14     1  180.0000000  4.8669776  2
      5      6     24     25     1  180.0000000  15.3215155  2
      5      6     24     43     1  180.0000000  15.3215155  2
      6      5      4     26     1  180.0000000  15.3215155  2
      6      7      8      9     1  180.0000000  15.3215155  2
      6      7      8     15     1  180.0000000  15.3215155  2
      6      7     14     13     1  180.0000000  15.3215155  2
      6      7     14     33     1  180.0000000  15.3215155  2
      6     24     25     44     1  180.0000000  15.3215155  2
      7      6      5     27     1  180.0000000  15.3215155  2
      7      6     24     25     1  180.0000000  15.3215155  2
      7      6     24     43     1  180.0000000  15.3215155  2
      7      8      9     10     1  180.0000000  15.3215155  2
      7      8      9     28     1  180.0000000  15.3215155  2
      7      8     15     16     1  180.0000000  4.8669776  2
      7      8     15     20     1  180.0000000  4.8669776  2
      7     14     13     10     1  180.0000000  15.3215155  2
      7     14     13     32     1  180.0000000  15.3215155  2
      8      7      6     24     1  180.0000000  4.8669776  2
      8      7     14     13     1  180.0000000  15.3215155  2
      8      7     14     33     1  180.0000000  15.3215155  2
      8      9     10     11     1  180.0000000  15.3215155  2
      8      9     10     13     1  180.0000000  15.3215155  2
      8     15     16     17     1  180.0000000  15.3215155  2
      8     15     16     34     1  180.0000000  15.3215155  2
      8     15     20     19     1  180.0000000  15.3215155  2
      8     15     20     37     1  180.0000000  15.3215155  2
      9      8      7     14     1  180.0000000  15.3215155  2
      9      8     15     16     1  180.0000000  4.8669776  2
      9      8     15     20     1  180.0000000  4.8669776  2
      9     10     11     12     1  180.0000000  6.4108617  2
      9     10     13     14     1  180.0000000  15.3215155  2
      9     10     13     32     1  180.0000000  15.3215155  2
     10      9      8     15     1  180.0000000  15.3215155  2
     10     11     12     29     1  0.0000000  0.1982205  3
     10     11     12     30     1  0.0000000  0.1982205  3
     10     11     12     31     1  0.0000000  0.1982205  3
     10     13     14     33     1  180.0000000  15.3215155  2
     11     10      9     28     1  180.0000000  15.3215155  2
     11     10     13     14     1  180.0000000  15.3215155  2
     11     10     13     32     1  180.0000000  15.3215155  2
     12     11     10     13     1  180.0000000  6.4108617  2
     13     10      9     28     1  180.0000000  15.3215155  2
     14      7      6     24     1  180.0000000  4.8669776  2
     14      7      8     15     1  180.0000000  15.3215155  2
     15      8      9     28     1  180.0000000  15.3215155  2
     15     16     17     18     1  180.0000000  15.3215155  2
     15     16     17     35     1  180.0000000  15.3215155  2
     15     20     19     18     1  180.0000000  15.3215155  2
     15     20     19     21     1  180.0000000  15.3215155  2
     16     15     20     19     1  180.0000000  15.3215155  2
     16     15     20     37     1  180.0000000  15.3215155  2
     16     17     18     19     1  180.0000000  15.3215155  2
     16     17     18     36     1  180.0000000  15.3215155  2
     17     16     15     20     1  180.0000000  15.3215155  2
     17     18     19     20     1  180.0000000  15.3215155  2
     17     18     19     21     1  180.0000000  15.3215155  2
     18     17     16     34     1  180.0000000  15.3215155  2
     18     19     20     37     1  180.0000000  15.3215155  2
     18     19     21     22     1  0.0000000  0.1115010  3
     18     19     21     23     1  0.0000000  0.1115010  3
     18     19     21     38     1  0.0000000  0.1115010  3
     19     18     17     35     1  180.0000000  15.3215155  2
     19     21     22     39     1  0.0000000  0.7624859  2
     19     21     22     39     1  0.0000000  0.1243628  3
     19     21     22     45     1  180.0000000  -2.8834993  2
     19     21     22     45     1  0.0000000  1.1413309  1
     19     21     23     40     1  0.0000000  0.4834079  3
     19     21     23     41     1  0.0000000  0.4834079  3
     19     21     23     42     1  0.0000000  0.4834079  3
     20     15     16     34     1  180.0000000  15.3215155  2
     20     19     18     36     1  180.0000000  15.3215155  2
     20     19     21     22     1  0.0000000  0.1115010  3
     20     19     21     23     1  0.0000000  0.1115010  3
     20     19     21     38     1  0.0000000  0.1115010  3
     21     19     18     36     1  180.0000000  15.3215155  2
     21     19     20     37     1  180.0000000  15.3215155  2
     21     22     45     46     1  180.0000000  12.9785537  2
     21     22     45     46     1  0.0000000  -1.7791009  1
     21     22     45     47     1  180.0000000  7.5690543  2
     21     22     45     47     1  0.0000000  -0.2015131  1
     22     21     23     40     1  0.0000000  0.4834079  3
     22     21     23     41     1  0.0000000  0.4834079  3
     22     21     23     42     1  0.0000000  0.4834079  3
     22     45     47     48     1  180.0000000  4.1731909  2
     22     45     47     69     1  180.0000000  4.1731909  2
     23     21     22     39     1  0.0000000  0.7624859  2
     23     21     22     39     1  0.0000000  0.1243628  3
     23     21     22     45     1  180.0000000  -0.6228629  4
     23     21     22     45     1  180.0000000  -0.5147696  3
     23     21     22     45     1  0.0000000  1.2298012  2
     23     21     22     45     1  0.0000000  -1.2652947  1
     24      6      5     27     1  180.0000000  15.3215155  2
     25      3      1    354     1  180.0000000  4.1731909  2
     25      3      4     26     1  180.0000000  15.3215155  2
     26      4      5     27     1  180.0000000  15.3215155  2
     32     13     14     33     1  180.0000000  15.3215155  2
     34     16     17     35     1  180.0000000  15.3215155  2
     35     17     18     36     1  180.0000000  15.3215155  2
     38     21     22     39     1  0.0000000  0.7624859  2
     38     21     22     39     1  0.0000000  0.1243628  3
     38     21     22     45     1  0.0000000  0.7624859  2
     38     21     22     45     1  0.0000000  0.1243628  3
     38     21     23     40     1  0.0000000  0.7999501  3
     38     21     23     41     1  0.0000000  0.7999501  3
     38     21     23     42     1  0.0000000  0.7999501  3
     39     22     45     46     1  180.0000000  9.8256037  2
     39     22     45     46     1  0.0000000  5.2557574  1
     39     22     45     47     1  180.0000000  7.5690543  2
     39     22     45     47     1  0.0000000  -0.2015131  1
     43     24     25     44     1  180.0000000  15.3215155  2
     45     47     48     49     1  180.0000000  15.3215155  2
     45     47     48     70     1  180.0000000  15.3215155  2
     45     47     69     68     1  180.0000000  15.3215155  2
     45     47     69     88     1  180.0000000  15.3215155  2
     46     45     47     48     1  180.0000000  4.1731909  2
     46     45     47     69     1  180.0000000  4.1731909  2
     47     48     49     50     1  180.0000000  15.3215155  2
     47     48     49     71     1  180.0000000  15.3215155  2
     47     69     68     50     1  180.0000000  15.3215155  2
     47     69     68     87     1  180.0000000  15.3215155  2
     48     47     69     68     1  180.0000000  15.3215155  2
     48     47     69     88     1  180.0000000  15.3215155  2
     48     49     50     51     1  180.0000000  15.3215155  2
     48     49     50     68     1  180.0000000  15.3215155  2
     49     48     47     69     1  180.0000000  15.3215155  2
     49     50     51     52     1  180.0000000  4.8669776  2
     49     50     51     58     1  180.0000000  4.8669776  2
     49     50     68     69     1  180.0000000  15.3215155  2
     49     50     68     87     1  180.0000000  15.3215155  2
     50     49     48     70     1  180.0000000  15.3215155  2
     50     51     52     53     1  180.0000000  15.3215155  2
     50     51     52     59     1  180.0000000  15.3215155  2
     50     51     58     57     1  180.0000000  15.3215155  2
     50     51     58     77     1  180.0000000  15.3215155  2
     50     68     69     88     1  180.0000000  15.3215155  2
     51     50     49     71     1  180.0000000  15.3215155  2
     51     50     68     69     1  180.0000000  15.3215155  2
     51     50     68     87     1  180.0000000  15.3215155  2
     51     52     53     54     1  180.0000000  15.3215155  2
     51     52     53     72     1  180.0000000  15.3215155  2
     51     52     59     60     1  180.0000000  4.8669776  2
     51     52     59     64     1  180.0000000  4.8669776  2
     51     58     57     54     1  180.0000000  15.3215155  2
     51     58     57     76     1  180.0000000  15.3215155  2
     52     51     50     68     1  180.0000000  4.8669776  2
     52     51     58     57     1  180.0000000  15.3215155  2
     52     51     58     77     1  180.0000000  15.3215155  2
     52     53     54     55     1  180.0000000  15.3215155  2
     52     53     54     57     1  180.0000000  15.3215155  2
     52     59     60     61     1  180.0000000  15.3215155  2
     52     59     60     78     1  180.0000000  15.3215155  2
     52     59     64     63     1  180.0000000  15.3215155  2
     52     59     64     81     1  180.0000000  15.3215155  2
     53     52     51     58     1  180.0000000  15.3215155  2
     53     52     59     60     1  180.0000000  4.8669776  2
     53     52     59     64     1  180.0000000  4.8669776  2
     53     54     55     56     1  180.0000000  6.4108617  2
     53     54     57     58     1  180.0000000  15.3215155  2
     53     54     57     76     1  180.0000000  15.3215155  2
     54     53     52     59     1  180.0000000  15.3215155  2
     54     55     56     73     1  0.0000000  0.1982205  3
     54     55     56     74     1  0.0000000  0.1982205  3
     54     55     56     75     1  0.0000000  0.1982205  3
     54     57     58     77     1  180.0000000  15.3215155  2
     55     54     53     72     1  180.0000000  15.3215155  2
     55     54     57     58     1  180.0000000  15.3215155  2
     55     54     57     76     1  180.0000000  15.3215155  2
     56     55     54     57     1  180.0000000  6.4108617  2
     57     54     53     72     1  180.0000000  15.3215155  2
     58     51     50     68     1  180.0000000  4.8669776  2
     58     51     52     59     1  180.0000000  15.3215155  2
     59     52     53     72     1  180.0000000  15.3215155  2
     59     60     61     62     1  180.0000000  15.3215155  2
     59     60     61     79     1  180.0000000  15.3215155  2
     59     64     63     62     1  180.0000000  15.3215155  2
     59     64     63     65     1  180.0000000  15.3215155  2
     60     59     64     63     1  180.0000000  15.3215155  2
     60     59     64     81     1  180.0000000  15.3215155  2
     60     61     62     63     1  180.0000000  15.3215155  2
     60     61     62     80     1  180.0000000  15.3215155  2
     61     60     59     64     1  180.0000000  15.3215155  2
     61     62     63     64     1  180.0000000  15.3215155  2
     61     62     63     65     1  180.0000000  15.3215155  2
     62     61     60     78     1  180.0000000  15.3215155  2
     62     63     64     81     1  180.0000000  15.3215155  2
     62     63     65     66     1  0.0000000  0.1115010  3
     62     63     65     67     1  0.0000000  0.1115010  3
     62     63     65     82     1  0.0000000  0.1115010  3
     63     62     61     79     1  180.0000000  15.3215155  2
     63     65     66     83     1  0.0000000  0.7624859  2
     63     65     66     83     1  0.0000000  0.1243628  3
     63     65     66     89     1  180.0000000  -2.8834993  2
     63     65     66     89     1  0.0000000  1.1413309  1
     63     65     67     84     1  0.0000000  0.4834079  3
     63     65     67     85     1  0.0000000  0.4834079  3
     63     65     67     86     1  0.0000000  0.4834079  3
     64     59     60     78     1  180.0000000  15.3215155  2
     64     63     62     80     1  180.0000000  15.3215155  2
     64     63     65     66     1  0.0000000  0.1115010  3
     64     63     65     67     1  0.0000000  0.1115010  3
     64     63     65     82     1  0.0000000  0.1115010  3
     65     63     62     80     1  180.0000000  15.3215155  2
     65     63     64     81     1  180.0000000  15.3215155  2
     65     66     89     90     1  180.0000000  12.9785537  2
     65     66     89     90     1  0.0000000  -1.7791009  1
     65     66     89     91     1  180.0000000  7.5690543  2
     65     66     89     91     1  0.0000000  -0.2015131  1
     66     65     67     84     1  0.0000000  0.4834079  3
     66     65     67     85     1  0.0000000  0.4834079  3
     66     65     67     86     1  0.0000000  0.4834079  3
     66     89     91     92     1  180.0000000  4.1731909  2
     66     89     91    113     1  180.0000000  4.1731909  2
     67     65     66     83     1  0.0000000  0.7624859  2
     67     65     66     83     1  0.0000000  0.1243628  3
     67     65     66     89     1  180.0000000  -0.6228629  4
     67     65     66     89     1  180.0000000  -0.5147696  3
     67     65     66     89     1  0.0000000  1.2298012  2
     67     65     66     89     1  0.0000000  -1.2652947  1
     68     50     49     71     1  180.0000000  15.3215155  2
     69     47     48     70     1  180.0000000  15.3215155  2
     70     48     49     71     1  180.0000000  15.3215155  2
     76     57     58     77     1  180.0000000  15.3215155  2
     78     60     61     79     1  180.0000000  15.3215155  2
     79     61     62     80     1  180.0000000  15.3215155  2
     82     65     66     83     1  0.0000000  0.7624859  2
     82     65     66     83     1  0.0000000  0.1243628  3
     82     65     66     89     1  0.0000000  0.7624859  2
     82     65     66     89     1  0.0000000  0.1243628  3
     82     65     67     84     1  0.0000000  0.7999501  3
     82     65     67     85     1  0.0000000  0.7999501  3
     82     65     67     86     1  0.0000000  0.7999501  3
     83     66     89     90     1  180.0000000  9.8256037  2
     83     66     89     90     1  0.0000000  5.2557574  1
     83     66     89     91     1  180.0000000  7.5690543  2
     83     66     89     91     1  0.0000000  -0.2015131  1
     87     68     69     88     1  180.0000000  15.3215155  2
     89     91     92     93     1  180.0000000  15.3215155  2
     89     91     92    114     1  180.0000000  15.3215155  2
     89     91    113    112     1  180.0000000  15.3215155  2
     89     91    113    132     1  180.0000000  15.3215155  2
     90     89     91     92     1  180.0000000  4.1731909  2
     90     89     91    113     1  180.0000000  4.1731909  2
     91     92     93     94     1  180.0000000  15.3215155  2
     91     92     93    115     1  180.0000000  15.3215155  2
     91    113    112     94     1  180.0000000  15.3215155  2
     91    113    112    131     1  180.0000000  15.3215155  2
     92     91    113    112     1  180.0000000  15.3215155  2
     92     91    113    132     1  180.0000000  15.3215155  2
     92     93     94     95     1  180.0000000  15.3215155  2
     92     93     94    112     1  180.0000000  15.3215155  2
     93     92     91    113     1  180.0000000  15.3215155  2
     93     94     95     96     1  180.0000000  4.8669776  2
     93     94     95    102     1  180.0000000  4.8669776  2
     93     94    112    113     1  180.0000000  15.3215155  2
     93     94    112    131     1  180.0000000  15.3215155  2
     94     93     92    114     1  180.0000000  15.3215155  2
     94     95     96     97     1  180.0000000  15.3215155  2
     94     95     96    103     1  180.0000000  15.3215155  2
     94     95    102    101     1  180.0000000  15.3215155  2
     94     95    102    121     1  180.0000000  15.3215155  2
     94    112    113    132     1  180.0000000  15.3215155  2
     95     94     93    115     1  180.0000000  15.3215155  2
     95     94    112    113     1  180.0000000  15.3215155  2
     95     94    112    131     1  180.0000000  15.3215155  2
     95     96     97     98     1  180.0000000  15.3215155  2
     95     96     97    116     1  180.0000000  15.3215155  2
     95     96    103    104     1  180.0000000  4.8669776  2
     95     96    103    108     1  180.0000000  4.8669776  2
     95    102    101     98     1  180.0000000  15.3215155  2
     95    102    101    120     1  180.0000000  15.3215155  2
     96     95     94    112     1  180.0000000  4.8669776  2
     96     95    102    101     1  180.0000000  15.3215155  2
     96     95    102    121     1  180.0000000  15.3215155  2
     96     97     98     99     1  180.0000000  15.3215155  2
     96     97     98    101     1  180.0000000  15.3215155  2
     96    103    104    105     1  180.0000000  15.3215155  2
     96    103    104    122     1  180.0000000  15.3215155  2
     96    103    108    107     1  180.0000000  15.3215155  2
     96    103    108    125     1  180.0000000  15.3215155  2
     97     96     95    102     1  180.0000000  15.3215155  2
     97     96    103    104     1  180.0000000  4.8669776  2
     97     96    103    108     1  180.0000000  4.8669776  2
     97     98     99    100     1  180.0000000  6.4108617  2
     97     98    101    102     1  180.0000000  15.3215155  2
     97     98    101    120     1  180.0000000  15.3215155  2
     98     97     96    103     1  180.0000000  15.3215155  2
     98     99    100    117     1  0.0000000  0.1982205  3
     98     99    100    118     1  0.0000000  0.1982205  3
     98     99    100    119     1  0.0000000  0.1982205  3
     98    101    102    121     1  180.0000000  15.3215155  2
     99     98     97    116     1  180.0000000  15.3215155  2
     99     98    101    102     1  180.0000000  15.3215155  2
     99     98    101    120     1  180.0000000  15.3215155  2
    100     99     98    101     1  180.0000000  6.4108617  2
    101     98     97    116     1  180.0000000  15.3215155  2
    102     95     94    112     1  180.0000000  4.8669776  2
    102     95     96    103     1  180.0000000  15.3215155  2
    103     96     97    116     1  180.0000000  15.3215155  2
    103    104    105    106     1  180.0000000  15.3215155  2
    103    104    105    123     1  180.0000000  15.3215155  2
    103    108    107    106     1  180.0000000  15.3215155  2
    103    108    107    109     1  180.0000000  15.3215155  2
    104    103    108    107     1  180.0000000  15.3215155  2
    104    103    108    125     1  180.0000000  15.3215155  2
    104    105    106    107     1  180.0000000  15.3215155  2
    104    105    106    124     1  180.0000000  15.3215155  2
    105    104    103    108     1  180.0000000  15.3215155  2
    105    106    107    108     1  180.0000000  15.3215155  2
    105    106    107    109     1  180.0000000  15.3215155  2
    106    105    104    122     1  180.0000000  15.3215155  2
    106    107    108    125     1  180.0000000  15.3215155  2
    106    107    109    110     1  0.0000000  0.1115010  3
    106    107    109    111     1  0.0000000  0.1115010  3
    106    107    109    126     1  0.0000000  0.1115010  3
    107    106    105    123     1  180.0000000  15.3215155  2
    107    109    110    127     1  0.0000000  0.7624859  2
    107    109    110    127     1  0.0000000  0.1243628  3
    107    109    110    133     1  180.0000000  -2.8834993  2
    107    109    110    133     1  0.0000000  1.1413309  1
    107    109    111    128     1  0.0000000  0.4834079  3
    107    109    111    129     1  0.0000000  0.4834079  3
    107    109    111    130     1  0.0000000  0.4834079  3
    108    103    104    122     1  180.0000000  15.3215155  2
    108    107    106    124     1  180.0000000  15.3215155  2
    108    107    109    110     1  0.0000000  0.1115010  3
    108    107    109    111     1  0.0000000  0.1115010  3
    108    107    109    126     1  0.0000000  0.1115010  3
    109    107    106    124     1  180.0000000  15.3215155  2
    109    107    108    125     1  180.0000000  15.3215155  2
    109    110    133    134     1  180.0000000  12.9785537  2
    109    110    133    134     1  0.0000000  -1.7791009  1
    109    110    133    135     1  180.0000000  7.5690543  2
    109    110    133    135     1  0.0000000  -0.2015131  1
    110    109    111    128     1  0.0000000  0.4834079  3
    110    109    111    129     1  0.0000000  0.4834079  3
    110    109    111    130     1  0.0000000  0.4834079  3
    110    133    135    136     1  180.0000000  4.1731909  2
    110    133    135    157     1  180.0000000  4.1731909  2
    111    109    110    127     1  0.0000000  0.7624859  2
    111    109    110    127     1  0.0000000  0.1243628  3
    111    109    110    133     1  180.0000000  -0.6228629  4
    111    109    110    133     1  180.0000000  -0.5147696  3
    111    109    110    133     1  0.0000000  1.2298012  2
    111    109    110    133     1  0.0000000  -1.2652947  1
    112     94     93    115     1  180.0000000  15.3215155  2
    113     91     92    114     1  180.0000000  15.3215155  2
    114     92     93    115     1  180.0000000  15.3215155  2
    120    101    102    121     1  180.0000000  15.3215155  2
    122    104    105    123     1  180.0000000  15.3215155  2
    123    105    106    124     1  180.0000000  15.3215155  2
    126    109    110    127     1  0.0000000  0.7624859  2
    126    109    110    127     1  0.0000000  0.1243628  3
    126    109    110    133     1  0.0000000  0.7624859  2
    126    109    110    133     1  0.0000000  0.1243628  3
    126    109    111    128     1  0.0000000  0.7999501  3
    126    109    111    129     1  0.0000000  0.7999501  3
    126    109    111    130     1  0.0000000  0.7999501  3
    127    110    133    134     1  180.0000000  9.8256037  2
    127    110    133    134     1  0.0000000  5.2557574  1
    127    110    133    135     1  180.0000000  7.5690543  2
    127    110    133    135     1  0.0000000  -0.2015131  1
    131    112    113    132     1  180.0000000  15.3215155  2
    133    135    136    137     1  180.0000000  15.3215155  2
    133    135    136    158     1  180.0000000  15.3215155  2
    133    135    157    156     1  180.0000000  15.3215155  2
    133    135    157    176     1  180.0000000  15.3215155  2
    134    133    135    136     1  180.0000000  4.1731909  2
    134    133    135    157     1  180.0000000  4.1731909  2
    135    136    137    138     1  180.0000000  15.3215155  2
    135    136    137    159     1  180.0000000  15.3215155  2
    135    157    156    138     1  180.0000000  15.3215155  2
    135    157    156    175     1  180.0000000  15.3215155  2
    136    135    157    156     1  180.0000000  15.3215155  2
    136    135    157    176     1  180.0000000  15.3215155  2
    136    137    138    139     1  180.0000000  15.3215155  2
    136    137    138    156     1  180.0000000  15.3215155  2
    137    136    135    157     1  180.0000000  15.3215155  2
    137    138    139    140     1  180.0000000  4.8669776  2
    137    138    139    146     1  180.0000000  4.8669776  2
    137    138    156    157     1  180.0000000  15.3215155  2
    137    138    156    175     1  180.0000000  15.3215155  2
    138    137    136    158     1  180.0000000  15.3215155  2
    138    139    140    141     1  180.0000000  15.3215155  2
    138    139    140    147     1  180.0000000  15.3215155  2
    138    139    146    145     1  180.0000000  15.3215155  2
    138    139    146    165     1  180.0000000  15.3215155  2
    138    156    157    176     1  180.0000000  15.3215155  2
    139    138    137    159     1  180.0000000  15.3215155  2
    139    138    156    157     1  180.0000000  15.3215155  2
    139    138    156    175     1  180.0000000  15.3215155  2
    139    140    141    142     1  180.0000000  15.3215155  2
    139    140    141    160     1  180.0000000  15.3215155  2
    139    140    147    148     1  180.0000000  4.8669776  2
    139    140    147    152     1  180.0000000  4.8669776  2
    139    146    145    142     1  180.0000000  15.3215155  2
    139    146    145    164     1  180.0000000  15.3215155  2
    140    139    138    156     1  180.0000000  4.8669776  2
    140    139    146    145     1  180.0000000  15.3215155  2
    140    139    146    165     1  180.0000000  15.3215155  2
    140    141    142    143     1  180.0000000  15.3215155  2
    140    141    142    145     1  180.0000000  15.3215155  2
    140    147    148    149     1  180.0000000  15.3215155  2
    140    147    148    166     1  180.0000000  15.3215155  2
    140    147    152    151     1  180.0000000  15.3215155  2
    140    147    152    169     1  180.0000000  15.3215155  2
    141    140    139    146     1  180.0000000  15.3215155  2
    141    140    147    148     1  180.0000000  4.8669776  2
    141    140    147    152     1  180.0000000  4.8669776  2
    141    142    143    144     1  180.0000000  6.4108617  2
    141    142    145    146     1  180.0000000  15.3215155  2
    141    142    145    164     1  180.0000000  15.3215155  2
    142    141    140    147     1  180.0000000  15.3215155  2
    142    143    144    161     1  0.0000000  0.1982205  3
    142    143    144    162     1  0.0000000  0.1982205  3
    142    143    144    163     1  0.0000000  0.1982205  3
    142    145    146    165     1  180.0000000  15.3215155  2
    143    142    141    160     1  180.0000000  15.3215155  2
    143    142    145    146     1  180.0000000  15.3215155  2
    143    142    145    164     1  180.0000000  15.3215155  2
    144    143    142    145     1  180.0000000  6.4108617  2
    145    142    141    160     1  180.0000000  15.3215155  2
    146    139    138    156     1  180.0000000  4.8669776  2
    146    139    140    147     1  180.0000000  15.3215155  2
    147    140    141    160     1  180.0000000  15.3215155  2
    147    148    149    150     1  180.0000000  15.3215155  2
    147    148    149    167     1  180.0000000  15.3215155  2
    147    152    151    150     1  180.0000000  15.3215155  2
    147    152    151    153     1  180.0000000  15.3215155  2
    148    147    152    151     1  180.0000000  15.3215155  2
    148    147    152    169     1  180.0000000  15.3215155  2
    148    149    150    151     1  180.0000000  15.3215155  2
    148    149    150    168     1  180.0000000  15.3215155  2
    149    148    147    152     1  180.0000000  15.3215155  2
    149    150    151    152     1  180.0000000  15.3215155  2
    149    150    151    153     1  180.0000000  15.3215155  2
    150    149    148    166     1  180.0000000  15.3215155  2
    150    151    152    169     1  180.0000000  15.3215155  2
    150    151    153    154     1  0.0000000  0.1115010  3
    150    151    153    155     1  0.0000000  0.1115010  3
    150    151    153    170     1  0.0000000  0.1115010  3
    151    150    149    167     1  180.0000000  15.3215155  2
    151    153    154    171     1  0.0000000  0.7624859  2
    151    153    154    171     1  0.0000000  0.1243628  3
    151    153    154    177     1  180.0000000  -2.8834993  2
    151    153    154    177     1  0.0000000  1.1413309  1
    151    153    155    172     1  0.0000000  0.4834079  3
    151    153    155    173     1  0.0000000  0.4834079  3
    151    153    155    174     1  0.0000000  0.4834079  3
    152    147    148    166     1  180.0000000  15.3215155  2
    152    151    150    168     1  180.0000000  15.3215155  2
    152    151    153    154     1  0.0000000  0.1115010  3
    152    151    153    155     1  0.0000000  0.1115010  3
    152    151    153    170     1  0.0000000  0.1115010  3
    153    151    150    168     1  180.0000000  15.3215155  2
    153    151    152    169     1  180.0000000  15.3215155  2
    153    154    177    178     1  180.0000000  12.9785537  2
    153    154    177    178     1  0.0000000  -1.7791009  1
    153    154    177    179     1  180.0000000  7.5690543  2
    153    154    177    179     1  0.0000000  -0.2015131  1
    154    153    155    172     1  0.0000000  0.4834079  3
    154    153    155    173     1  0.0000000  0.4834079  3
    154    153    155    174     1  0.0000000  0.4834079  3
    154    177    179    180     1  180.0000000  4.1731909  2
    154    177    179    201     1  180.0000000  4.1731909  2
    155    153    154    171     1  0.0000000  0.7624859  2
    155    153    154    171     1  0.0000000  0.1243628  3
    155    153    154    177     1  180.0000000  -0.6228629  4
    155    153    154    177     1  180.0000000  -0.5147696  3
    155    153    154    177     1  0.0000000  1.2298012  2
    155    153    154    177     1  0.0000000  -1.2652947  1
    156    138    137    159     1  180.0000000  15.3215155  2
    157    135    136    158     1  180.0000000  15.3215155  2
    158    136    137    159     1  180.0000000  15.3215155  2
    164    145    146    165     1  180.0000000  15.3215155  2
    166    148    149    167     1  180.0000000  15.3215155  2
    167    149    150    168     1  180.0000000  15.3215155  2
    170    153    154    171     1  0.0000000  0.7624859  2
    170    153    154    171     1  0.0000000  0.1243628  3
    170    153    154    177     1  0.0000000  0.7624859  2
    170    153    154    177     1  0.0000000  0.1243628  3
    170    153    155    172     1  0.0000000  0.7999501  3
    170    153    155    173     1  0.0000000  0.7999501  3
    170    153    155    174     1  0.0000000  0.7999501  3
    171    154    177    178     1  180.0000000  9.8256037  2
    171    154    177    178     1  0.0000000  5.2557574  1
    171    154    177    179     1  180.0000000  7.5690543  2
    171    154    177    179     1  0.0000000  -0.2015131  1
    175    156    157    176     1  180.0000000  15.3215155  2
    177    179    180    181     1  180.0000000  15.3215155  2
    177    179    180    202     1  180.0000000  15.3215155  2
    177    179    201    200     1  180.0000000  15.3215155  2
    177    179    201    220     1  180.0000000  15.3215155  2
    178    177    179    180     1  180.0000000  4.1731909  2
    178    177    179    201     1  180.0000000  4.1731909  2
    179    180    181    182     1  180.0000000  15.3215155  2
    179    180    181    203     1  180.0000000  15.3215155  2
    179    201    200    182     1  180.0000000  15.3215155  2
    179    201    200    219     1  180.0000000  15.3215155  2
    180    179    201    200     1  180.0000000  15.3215155  2
    180    179    201    220     1  180.0000000  15.3215155  2
    180    181    182    183     1  180.0000000  15.3215155  2
    180    181    182    200     1  180.0000000  15.3215155  2
    181    180    179    201     1  180.0000000  15.3215155  2
    181    182    183    184     1  180.0000000  4.8669776  2
    181    182    183    190     1  180.0000000  4.8669776  2
    181    182    200    201     1  180.0000000  15.3215155  2
    181    182    200    219     1  180.0000000  15.3215155  2
    182    181    180    202     1  180.0000000  15.3215155  2
    182    183    184    185     1  180.0000000  15.3215155  2
    182    183    184    191     1  180.0000000  15.3215155  2
    182    183    190    189     1  180.0000000  15.3215155  2
    182    183    190    209     1  180.0000000  15.3215155  2
    182    200    201    220     1  180.0000000  15.3215155  2
    183    182    181    203     1  180.0000000  15.3215155  2
    183    182    200    201     1  180.0000000  15.3215155  2
    183    182    200    219     1  180.0000000  15.3215155  2
    183    184    185    186     1  180.0000000  15.3215155  2
    183    184    185    204     1  180.0000000  15.3215155  2
    183    184    191    192     1  180.0000000  4.8669776  2
    183    184    191    196     1  180.0000000  4.8669776  2
    183    190    189    186     1  180.0000000  15.3215155  2
    183    190    189    208     1  180.0000000  15.3215155  2
    184    183    182    200     1  180.0000000  4.8669776  2
    184    183    190    189     1  180.0000000  15.3215155  2
    184    183    190    209     1  180.0000000  15.3215155  2
    184    185    186    187     1  180.0000000  15.3215155  2
    184    185    186    189     1  180.0000000  15.3215155  2
    184    191    192    193     1  180.0000000  15.3215155  2
    184    191    192    210     1  180.0000000  15.3215155  2
    184    191    196    195     1  180.0000000  15.3215155  2
    184    191    196    213     1  180.0000000  15.3215155  2
    185    184    183    190     1  180.0000000  15.3215155  2
    185    184    191    192     1  180.0000000  4.8669776  2
    185    184    191    196     1  180.0000000  4.8669776  2
    185    186    187    188     1  180.0000000  6.4108617  2
    185    186    189    190     1  180.0000000  15.3215155  2
    185    186    189    208     1  180.0000000  15.3215155  2
    186    185    184    191     1  180.0000000  15.3215155  2
    186    187    188    205     1  0.0000000  0.1982205  3
    186    187    188    206     1  0.0000000  0.1982205  3
    186    187    188    207     1  0.0000000  0.1982205  3
    186    189    190    209     1  180.0000000  15.3215155  2
    187    186    185    204     1  180.0000000  15.3215155  2
    187    186    189    190     1  180.0000000  15.3215155  2
    187    186    189    208     1  180.0000000  15.3215155  2
    188    187    186    189     1  180.0000000  6.4108617  2
    189    186    185    204     1  180.0000000  15.3215155  2
    190    183    182    200     1  180.0000000  4.8669776  2
    190    183    184    191     1  180.0000000  15.3215155  2
    191    184    185    204     1  180.0000000  15.3215155  2
    191    192    193    194     1  180.0000000  15.3215155  2
    191    192    193    211     1  180.0000000  15.3215155  2
    191    196    195    194     1  180.0000000  15.3215155  2
    191    196    195    197     1  180.0000000  15.3215155  2
    192    191    196    195     1  180.0000000  15.3215155  2
    192    191    196    213     1  180.0000000  15.3215155  2
    192    193    194    195     1  180.0000000  15.3215155  2
    192    193    194    212     1  180.0000000  15.3215155  2
    193    192    191    196     1  180.0000000  15.3215155  2
    193    194    195    196     1  180.0000000  15.3215155  2
    193    194    195    197     1  180.0000000  15.3215155  2
    194    193    192    210     1  180.0000000  15.3215155  2
    194    195    196    213     1  180.0000000  15.3215155  2
    194    195    197    198     1  0.0000000  0.1115010  3
    194    195    197    199     1  0.0000000  0.1115010  3
    194    195    197    214     1  0.0000000  0.1115010  3
    195    194    193    211     1  180.0000000  15.3215155  2
    195    197    198    215     1  0.0000000  0.7624859  2
    195    197    198    215     1  0.0000000  0.1243628  3
    195    197    198    221     1  180.0000000  -2.8834993  2
    195    197    198    221     1  0.0000000  1.1413309  1
    195    197    199    216     1  0.0000000  0.4834079  3
    195    197    199    217     1  0.0000000  0.4834079  3
    195    197    199    218     1  0.0000000  0.4834079  3
    196    191    192    210     1  180.0000000  15.3215155  2
    196    195    194    212     1  180.0000000  15.3215155  2
    196    195    197    198     1  0.0000000  0.1115010  3
    196    195    197    199     1  0.0000000  0.1115010  3
    196    195    197    214     1  0.0000000  0.1115010  3
    197    195    194    212     1  180.0000000  15.3215155  2
    197    195    196    213     1  180.0000000  15.3215155  2
    197    198    221    222     1  180.0000000  12.9785537  2
    197    198    221    222     1  0.0000000  -1.7791009  1
    197    198    221    223     1  180.0000000  7.5690543  2
    197    198    221    223     1  0.0000000  -0.2015131  1
    198    197    199    216     1  0.0000000  0.4834079  3
    198    197    199    217     1  0.0000000  0.4834079  3
    198    197    199    218     1  0.0000000  0.4834079  3
    198    221    223    224     1  180.0000000  4.1731909  2
    198    221    223    245     1  180.0000000  4.1731909  2
    199    197    198    215     1  0.0000000  0.7624859  2
    199    197    198    215     1  0.0000000  0.1243628  3
    199    197    198    221     1  180.0000000  -0.6228629  4
    199    197    198    221     1  180.0000000  -0.5147696  3
    199    197    198    221     1  0.0000000  1.2298012  2
    199    197    198    221     1  0.0000000  -1.2652947  1
    200    182    181    203     1  180.0000000  15.3215155  2
    201    179    180    202     1  180.0000000  15.3215155  2
    202    180    181    203     1  180.0000000  15.3215155  2
    208    189    190    209     1  180.0000000  15.3215155  2
    210    192    193    211     1  180.0000000  15.3215155  2
    211    193    194    212     1  180.0000000  15.3215155  2
    214    197    198    215     1  0.0000000  0.7624859  2
    214    197    198    215     1  0.0000000  0.1243628  3
    214    197    198    221     1  0.0000000  0.7624859  2
    214    197    198    221     1  0.0000000  0.1243628  3
    214    197    199    216     1  0.0000000  0.7999501  3
    214    197    199    217     1  0.0000000  0.7999501  3
    214    197    199    218     1  0.0000000  0.7999501  3
    215    198    221    222     1  180.0000000  9.8256037  2
    215    198    221    222     1  0.0000000  5.2557574  1
    215    198    221    223     1  180.0000000  7.5690543  2
    215    198    221    223     1  0.0000000  -0.2015131  1
    219    200    201    220     1  180.0000000  15.3215155  2
    221    223    224    225     1  180.0000000  15.3215155  2
    221    223    224    246     1  180.0000000  15.3215155  2
    221    223    245    244     1  180.0000000  15.3215155  2
    221    223    245    264     1  180.0000000  15.3215155  2
    222    221    223    224     1  180.0000000  4.1731909  2
    222    221    223    245     1  180.0000000  4.1731909  2
    223    224    225    226     1  180.0000000  15.3215155  2
    223    224    225    247     1  180.0000000  15.3215155  2
    223    245    244    226     1  180.0000000  15.3215155  2
    223    245    244    263     1  180.0000000  15.3215155  2
    224    223    245    244     1  180.0000000  15.3215155  2
    224    223    245    264     1  180.0000000  15.3215155  2
    224    225    226    227     1  180.0000000  15.3215155  2
    224    225    226    244     1  180.0000000  15.3215155  2
    225    224    223    245     1  180.0000000  15.3215155  2
    225    226    227    228     1  180.0000000  4.8669776  2
    225    226    227    234     1  180.0000000  4.8669776  2
    225    226    244    245     1  180.0000000  15.3215155  2
    225    226    244    263     1  180.0000000  15.3215155  2
    226    225    224    246     1  180.0000000  15.3215155  2
    226    227    228    229     1  180.0000000  15.3215155  2
    226    227    228    235     1  180.0000000  15.3215155  2
    226    227    234    233     1  180.0000000  15.3215155  2
    226    227    234    253     1  180.0000000  15.3215155  2
    226    244    245    264     1  180.0000000  15.3215155  2
    227    226    225    247     1  180.0000000  15.3215155  2
    227    226    244    245     1  180.0000000  15.3215155  2
    227    226    244    263     1  180.0000000  15.3215155  2
    227    228    229    230     1  180.0000000  15.3215155  2
    227    228    229    248     1  180.0000000  15.3215155  2
    227    228    235    236     1  180.0000000  4.8669776  2
    227    228    235    240     1  180.0000000  4.8669776  2
    227    234    233    230     1  180.0000000  15.3215155  2
    227    234    233    252     1  180.0000000  15.3215155  2
    228    227    226    244     1  180.0000000  4.8669776  2
    228    227    234    233     1  180.0000000  15.3215155  2
    228    227    234    253     1  180.0000000  15.3215155  2
    228    229    230    231     1  180.0000000  15.3215155  2
    228    229    230    233     1  180.0000000  15.3215155  2
    228    235    236    237     1  180.0000000  15.3215155  2
    228    235    236    254     1  180.0000000  15.3215155  2
    228    235    240    239     1  180.0000000  15.3215155  2
    228    235    240    257     1  180.0000000  15.3215155  2
    229    228    227    234     1  180.0000000  15.3215155  2
    229    228    235    236     1  180.0000000  4.8669776  2
    229    228    235    240     1  180.0000000  4.8669776  2
    229    230    231    232     1  180.0000000  6.4108617  2
    229    230    233    234     1  180.0000000  15.3215155  2
    229    230    233    252     1  180.0000000  15.3215155  2
    230    229    228    235     1  180.0000000  15.3215155  2
    230    231    232    249     1  0.0000000  0.1982205  3
    230    231    232    250     1  0.0000000  0.1982205  3
    230    231    232    251     1  0.0000000  0.1982205  3
    230    233    234    253     1  180.0000000  15.3215155  2
    231    230    229    248     1  180.0000000  15.3215155  2
    231    230    233    234     1  180.0000000  15.3215155  2
    231    230    233    252     1  180.0000000  15.3215155  2
    232    231    230    233     1  180.0000000  6.4108617  2
    233    230    229    248     1  180.0000000  15.3215155  2
    234    227    226    244     1  180.0000000  4.8669776  2
    234    227    228    235     1  180.0000000  15.3215155  2
    235    228    229    248     1  180.0000000  15.3215155  2
    235    236    237    238     1  180.0000000  15.3215155  2
    235    236    237    255     1  180.0000000  15.3215155  2
    235    240    239    238     1  180.0000000  15.3215155  2
    235    240    239    241     1  180.0000000  15.3215155  2
    236    235    240    239     1  180.0000000  15.3215155  2
    236    235    240    257     1  180.0000000  15.3215155  2
    236    237    238    239     1  180.0000000  15.3215155  2
    236    237    238    256     1  180.0000000  15.3215155  2
    237    236    235    240     1  180.0000000  15.3215155  2
    237    238    239    240     1  180.0000000  15.3215155  2
    237    238    239    241     1  180.0000000  15.3215155  2
    238    237    236    254     1  180.0000000  15.3215155  2
    238    239    240    257     1  180.0000000  15.3215155  2
    238    239    241    242     1  0.0000000  0.1115010  3
    238    239    241    243     1  0.0000000  0.1115010  3
    238    239    241    258     1  0.0000000  0.1115010  3
    239    238    237    255     1  180.0000000  15.3215155  2
    239    241    242    259     1  0.0000000  0.7624859  2
    239    241    242    259     1  0.0000000  0.1243628  3
    239    241    242    265     1  180.0000000  -2.8834993  2
    239    241    242    265     1  0.0000000  1.1413309  1
    239    241    243    260     1  0.0000000  0.4834079  3
    239    241    243    261     1  0.0000000  0.4834079  3
    239    241    243    262     1  0.0000000  0.4834079  3
    240    235    236    254     1  180.0000000  15.3215155  2
    240    239    238    256     1  180.0000000  15.3215155  2
    240    239    241    242     1  0.0000000  0.1115010  3
    240    239    241    243     1  0.0000000  0.1115010  3
    240    239    241    258     1  0.0000000  0.1115010  3
    241    239    238    256     1  180.0000000  15.3215155  2
    241    239    240    257     1  180.0000000  15.3215155  2
    241    242    265    266     1  180.0000000  12.9785537  2
    241    242    265    266     1  0.0000000  -1.7791009  1
    241    242    265    267     1  180.0000000  7.5690543  2
    241    242    265    267     1  0.0000000  -0.2015131  1
    242    241    243    260     1  0.0000000  0.4834079  3
    242    241    243    261     1  0.0000000  0.4834079  3
    242    241    243    262     1  0.0000000  0.4834079  3
    242    265    267    268     1  180.0000000  4.1731909  2
    242    265    267    289     1  180.0000000  4.1731909  2
    243    241    242    259     1  0.0000000  0.7624859  2
    243    241    242    259     1  0.0000000  0.1243628  3
    243    241    242    265     1  180.0000000  -0.6228629  4
    243    241    242    265     1  180.0000000  -0.5147696  3
    243    241    242    265     1  0.0000000  1.2298012  2
    243    241    242    265     1  0.0000000  -1.2652947  1
    244    226    225    247     1  180.0000000  15.3215155  2
    245    223    224    246     1  180.0000000  15.3215155  2
    246    224    225    247     1  180.0000000  15.3215155  2
    252    233    234    253     1  180.0000000  15.3215155  2
    254    236    237    255     1  180.0000000  15.3215155  2
    255    237    238    256     1  180.0000000  15.3215155  2
    258    241    242    259     1  0.0000000  0.7624859  2
    258    241    242    259     1  0.0000000  0.1243628  3
    258    241    242    265     1  0.0000000  0.7624859  2
    258    241    242    265     1  0.0000000  0.1243628  3
    258    241    243    260     1  0.0000000  0.7999501  3
    258    241    243    261     1  0.0000000  0.7999501  3
    258    241    243    262     1  0.0000000  0.7999501  3
    259    242    265    266     1  180.0000000  9.8256037  2
    259    242    265    266     1  0.0000000  5.2557574  1
    259    242    265    267     1  180.0000000  7.5690543  2
    259    242    265    267     1  0.0000000  -0.2015131  1
    263    244    245    264     1  180.0000000  15.3215155  2
    265    267    268    269     1  180.0000000  15.3215155  2
    265    267    268    290     1  180.0000000  15.3215155  2
    265    267    289    288     1  180.0000000  15.3215155  2
    265    267    289    308     1  180.0000000  15.3215155  2
    266    265    267    268     1  180.0000000  4.1731909  2
    266    265    267    289     1  180.0000000  4.1731909  2
    267    268    269    270     1  180.0000000  15.3215155  2
    267    268    269    291     1  180.0000000  15.3215155  2
    267    289    288    270     1  180.0000000  15.3215155  2
    267    289    288    307     1  180.0000000  15.3215155  2
    268    267    289    288     1  180.0000000  15.3215155  2
    268    267    289    308     1  180.0000000  15.3215155  2
    268    269    270    271     1  180.0000000  15.3215155  2
    268    269    270    288     1  180.0000000  15.3215155  2
    269    268    267    289     1  180.0000000  15.3215155  2
    269    270    271    272     1  180.0000000  4.8669776  2
    269    270    271    278     1  180.0000000  4.8669776  2
    269    270    288    289     1  180.0000000  15.3215155  2
    269    270    288    307     1  180.0000000  15.3215155  2
    270    269    268    290     1  180.0000000  15.3215155  2
    270    271    272    273     1  180.0000000  15.3215155  2
    270    271    272    279     1  180.0000000  15.3215155  2
    270    271    278    277     1  180.0000000  15.3215155  2
    270    271    278    297     1  180.0000000  15.3215155  2
    270    288    289    308     1  180.0000000  15.3215155  2
    271    270    269    291     1  180.0000000  15.3215155  2
    271    270    288    289     1  180.0000000  15.3215155  2
    271    270    288    307     1  180.0000000  15.3215155  2
    271    272    273    274     1  180.0000000  15.3215155  2
    271    272    273    292     1  180.0000000  15.3215155  2
    271    272    279    280     1  180.0000000  4.8669776  2
    271    272    279    284     1  180.0000000  4.8669776  2
    271    278    277    274     1  180.0000000  15.3215155  2
    271    278    277    296     1  180.0000000  15.3215155  2
    272    271    270    288     1  180.0000000  4.8669776  2
    272    271    278    277     1  180.0000000  15.3215155  2
    272    271    278    297     1  180.0000000  15.3215155  2
    272    273    274    275     1  180.0000000  15.3215155  2
    272    273    274    277     1  180.0000000  15.3215155  2
    272    279    280    281     1  180.0000000  15.3215155  2
    272    279    280    298     1  180.0000000  15.3215155  2
    272    279    284    283     1  180.0000000  15.3215155  2
    272    279    284    301     1  180.0000000  15.3215155  2
    273    272    271    278     1  180.0000000  15.3215155  2
    273    272    279    280     1  180.0000000  4.8669776  2
    273    272    279    284     1  180.0000000  4.8669776  2
    273    274    275    276     1  180.0000000  6.4108617  2
    273    274    277    278     1  180.0000000  15.3215155  2
    273    274    277    296     1  180.0000000  15.3215155  2
    274    273    272    279     1  180.0000000  15.3215155  2
    274    275    276    293     1  0.0000000  0.1982205  3
    274    275    276    294     1  0.0000000  0.1982205  3
    274    275    276    295     1  0.0000000  0.1982205  3
    274    277    278    297     1  180.0000000  15.3215155  2
    275    274    273    292     1  180.0000000  15.3215155  2
    275    274    277    278     1  180.0000000  15.3215155  2
    275    274    277    296     1  180.0000000  15.3215155  2
    276    275    274    277     1  180.0000000  6.4108617  2
    277    274    273    292     1  180.0000000  15.3215155  2
    278    271    270    288     1  180.0000000  4.8669776  2
    278    271    272    279     1  180.0000000  15.3215155  2
    279    272    273    292     1  180.0000000  15.3215155  2
    279    280    281    282     1  180.0000000  15.3215155  2
    279    280    281    299     1  180.0000000  15.3215155  2
    279    284    283    282     1  180.0000000  15.3215155  2
    279    284    283    285     1  180.0000000  15.3215155  2
    280    279    284    283     1  180.0000000  15.3215155  2
    280    279    284    301     1  180.0000000  15.3215155  2
    280    281    282    283     1  180.0000000  15.3215155  2
    280    281    282    300     1  180.0000000  15.3215155  2
    281    280    279    284     1  180.0000000  15.3215155  2
    281    282    283    284     1  180.0000000  15.3215155  2
    281    282    283    285     1  180.0000000  15.3215155  2
    282    281    280    298     1  180.0000000  15.3215155  2
    282    283    284    301     1  180.0000000  15.3215155  2
    282    283    285    286     1  0.0000000  0.1115010  3
    282    283    285    287     1  0.0000000  0.1115010  3
    282    283    285    302     1  0.0000000  0.1115010  3
    283    282    281    299     1  180.0000000  15.3215155  2
    283    285    286    303     1  0.0000000  0.7624859  2
    283    285    286    303     1  0.0000000  0.1243628  3
    283    285    286    309     1  180.0000000  -2.8834993  2
    283    285    286    309     1  0.0000000  1.1413309  1
    283    285    287    304     1  0.0000000  0.4834079  3
    283    285    287    305     1  0.0000000  0.4834079  3
    283    285    287    306     1  0.0000000  0.4834079  3
    284    279    280    298     1  180.0000000  15.3215155  2
    284    283    282    300     1  180.0000000  15.3215155  2
    284    283    285    286     1  0.0000000  0.1115010  3
    284    283    285    287     1  0.0000000  0.1115010  3
    284    283    285    302     1  0.0000000  0.1115010  3
    285    283    282    300     1  180.0000000  15.3215155  2
    285    283    284    301     1  180.0000000  15.3215155  2
    285    286    309    310     1  180.0000000  12.9785537  2
    285    286    309    310     1  0.0000000  -1.7791009  1
    285    286    309    311     1  180.0000000  7.5690543  2
    285    286    309    311     1  0.0000000  -0.2015131  1
    286    285    287    304     1  0.0000000  0.4834079  3
    286    285    287    305     1  0.0000000  0.4834079  3
    286    285    287    306     1  0.0000000  0.4834079  3
    286    309    311    312     1  180.0000000  4.1731909  2
    286    309    311    333     1  180.0000000  4.1731909  2
    287    285    286    303     1  0.0000000  0.7624859  2
    287    285    286    303     1  0.0000000  0.1243628  3
    287    285    286    309     1  180.0000000  -0.6228629  4
    287    285    286    309     1  180.0000000  -0.5147696  3
    287    285    286    309     1  0.0000000  1.2298012  2
    287    285    286    309     1  0.0000000  -1.2652947  1
    288    270    269    291     1  180.0000000  15.3215155  2
    289    267    268    290     1  180.0000000  15.3215155  2
    290    268    269    291     1  180.0000000  15.3215155  2
    296    277    278    297     1  180.0000000  15.3215155  2
    298    280    281    299     1  180.0000000  15.3215155  2
    299    281    282    300     1  180.0000000  15.3215155  2
    302    285    286    303     1  0.0000000  0.7624859  2
    302    285    286    303     1  0.0000000  0.1243628  3
    302    285    286    309     1  0.0000000  0.7624859  2
    302    285    286    309     1  0.0000000  0.1243628  3
    302    285    287    304     1  0.0000000  0.7999501  3
    302    285    287    305     1  0.0000000  0.7999501  3
    302    285    287    306     1  0.0000000  0.7999501  3
    303    286    309    310     1  180.0000000  9.8256037  2
    303    286    309    310     1  0.0000000  5.2557574  1
    303    286    309    311     1  180.0000000  7.5690543  2
    303    286    309    311     1  0.0000000  -0.2015131  1
    307    288    289    308     1  180.0000000  15.3215155  2
    309    311    312    313     1  180.0000000  15.3215155  2
    309    311    312    334     1  180.0000000  15.3215155  2
    309    311    333    332     1  180.0000000  15.3215155  2
    309    311    333    352     1  180.0000000  15.3215155  2
    310    309    311    312     1  180.0000000  4.1731909  2
    310    309    311    333     1  180.0000000  4.1731909  2
    311    312    313    314     1  180.0000000  15.3215155  2
    311    312    313    335     1  180.0000000  15.3215155  2
    311    333    332    314     1  180.0000000  15.3215155  2
    311    333    332    351     1  180.0000000  15.3215155  2
    312    311    333    332     1  180.0000000  15.3215155  2
    312    311    333    352     1  180.0000000  15.3215155  2
    312    313    314    315     1  180.0000000  15.3215155  2
    312    313    314    332     1  180.0000000  15.3215155  2
    313    312    311    333     1  180.0000000  15.3215155  2
    313    314    315    316     1  180.0000000  4.8669776  2
    313    314    315    322     1  180.0000000  4.8669776  2
    313    314    332    333     1  180.0000000  15.3215155  2
    313    314    332    351     1  180.0000000  15.3215155  2
    314    313    312    334     1  180.0000000  15.3215155  2
    314    315    316    317     1  180.0000000  15.3215155  2
    314    315    316    323     1  180.0000000  15.3215155  2
    314    315    322    321     1  180.0000000  15.3215155  2
    314    315    322    341     1  180.0000000  15.3215155  2
    314    332    333    352     1  180.0000000  15.3215155  2
    315    314    313    335     1  180.0000000  15.3215155  2
    315    314    332    333     1  180.0000000  15.3215155  2
    315    314    332    351     1  180.0000000  15.3215155  2
    315    316    317    318     1  180.0000000  15.3215155  2
    315    316    317    336     1  180.0000000  15.3215155  2
    315    316    323    324     1  180.0000000  4.8669776  2
    315    316    323    328     1  180.0000000  4.8669776  2
    315    322    321    318     1  180.0000000  15.3215155  2
    315    322    321    340     1  180.0000000  15.3215155  2
    316    315    314    332     1  180.0000000  4.8669776  2
    316    315    322    321     1  180.0000000  15.3215155  2
    316    315    322    341     1  180.0000000  15.3215155  2
    316    317    318    319     1  180.0000000  15.3215155  2
    316    317    318    321     1  180.0000000  15.3215155  2
    316    323    324    325     1  180.0000000  15.3215155  2
    316    323    324    342     1  180.0000000  15.3215155  2
    316    323    328    327     1  180.0000000  15.3215155  2
    316    323    328    345     1  180.0000000  15.3215155  2
    317    316    315    322     1  180.0000000  15.3215155  2
    317    316    323    324     1  180.0000000  4.8669776  2
    317    316    323    328     1  180.0000000  4.8669776  2
    317    318    319    320     1  180.0000000  6.4108617  2
    317    318    321    322     1  180.0000000  15.3215155  2
    317    318    321    340     1  180.0000000  15.3215155  2
    318    317    316    323     1  180.0000000  15.3215155  2
    318    319    320    337     1  0.0000000  0.1982205  3
    318    319    320    338     1  0.0000000  0.1982205  3
    318    319    320    339     1  0.0000000  0.1982205  3
    318    321    322    341     1  180.0000000  15.3215155  2
    319    318    317    336     1  180.0000000  15.3215155  2
    319    318    321    322     1  180.0000000  15.3215155  2
    319    318    321    340     1  180.0000000  15.3215155  2
    320    319    318    321     1  180.0000000  6.4108617  2
    321    318    317    336     1  180.0000000  15.3215155  2
    322    315    314    332     1  180.0000000  4.8669776  2
    322    315    316    323     1  180.0000000  15.3215155  2
    323    316    317    336     1  180.0000000  15.3215155  2
    323    324    325    326     1  180.0000000  15.3215155  2
    323    324    325    343     1  180.0000000  15.3215155  2
    323    328    327    326     1  180.0000000  15.3215155  2
    323    328    327    329     1  180.0000000  15.3215155  2
    324    323    328    327     1  180.0000000  15.3215155  2
    324    323    328    345     1  180.0000000  15.3215155  2
    324    325    326    327     1  180.0000000  15.3215155  2
    324    325    326    344     1  180.0000000  15.3215155  2
    325    324    323    328     1  180.0000000  15.3215155  2
    325    326    327    328     1  180.0000000  15.3215155  2
    325    326    327    329     1  180.0000000  15.3215155  2
    326    325    324    342     1  180.0000000  15.3215155  2
    326    327    328    345     1  180.0000000  15.3215155  2
    326    327    329    330     1  0.0000000  0.1115010  3
    326    327    329    331     1  0.0000000  0.1115010  3
    326    327    329    346     1  0.0000000  0.1115010  3
    327    326    325    343     1  180.0000000  15.3215155  2
    327    329    330    347     1  0.0000000  0.7624859  2
    327    329    330    347     1  0.0000000  0.1243628  3
    327    329    330    363     1  180.0000000  -2.8834993  2
    327    329    330    363     1  0.0000000  1.1413309  1
    327    329    331    348     1  0.0000000  0.4834079  3
    327    329    331    349     1  0.0000000  0.4834079  3
    327    329    331    350     1  0.0000000  0.4834079  3
    328    323    324    342     1  180.0000000  15.3215155  2
    328    327    326    344     1  180.0000000  15.3215155  2
    328    327    329    330     1  0.0000000  0.1115010  3
    328    327    329    331     1  0.0000000  0.1115010  3
    328    327    329    346     1  0.0000000  0.1115010  3
    329    327    326    344     1  180.0000000  15.3215155  2
    329    327    328    345     1  180.0000000  15.3215155  2
    329    330    363    362     1  180.0000000  7.5690543  2
    329    330    363    362     1  0.0000000  -0.2015131  1
    329    330    363    364     1  180.0000000  7.5690543  2
    329    330    363    364     1  0.0000000  -0.2015131  1
    330    329    331    348     1  0.0000000  0.4834079  3
    330    329    331    349     1  0.0000000  0.4834079  3
    330    329    331    350     1  0.0000000  0.4834079  3
    330    363    362    359     1  180.0000000  11.6309081  2
    331    329    330    347     1  0.0000000  0.7624859  2
    331    329    330    347     1  0.0000000  0.1243628  3
    331    329    330    363     1  180.0000000  -0.6228629  4
    331    329    330    363     1  180.0000000  -0.5147696  3
    331    329    330    363     1  0.0000000  1.2298012  2
    331    329    330    363     1  0.0000000  -1.2652947  1
    332    314    313    335     1  180.0000000  15.3215155  2
    333    311    312    334     1  180.0000000  15.3215155  2
    334    312    313    335     1  180.0000000  15.3215155  2
    340    321    322    341     1  180.0000000  15.3215155  2
    342    324    325    343     1  180.0000000  15.3215155  2
    343    325    326    344     1  180.0000000  15.3215155  2
    346    329    330    347     1  0.0000000  0.7624859  2
    346    329    330    347     1  0.0000000  0.1243628  3
    346    329    330    363     1  0.0000000  0.7624859  2
    346    329    330    363     1  0.0000000  0.1243628  3
    346    329    331    348     1  0.0000000  0.7999501  3
    346    329    331    349     1  0.0000000  0.7999501  3
    346    329    331    350     1  0.0000000  0.7999501  3
    347    330    363    362     1  180.0000000  7.5690543  2
    347    330    363    362     1  0.0000000  -0.2015131  1
    347    330    363    364     1  180.0000000  2.0338395  2
    347    330    363    364     1  0.0000000  3.7308670  1
    351    332    333    352     1  180.0000000  15.3215155  2
    358    359    360    368     1  0.0000000  0.4354138  3
    358    359    360    369     1  0.0000000  0.4354138  3
    358    359    360    370     1  0.0000000  0.4354138  3
    358    359    361    371     1  0.0000000  0.4354138  3
    358    359    361    372     1  0.0000000  0.4354138  3
    358    359    361    373     1  0.0000000  0.4354138  3
    358    359    362    363     1  0.0000000  0.8026052  3
    358    359    362    363     1  180.0000000  3.8501921  1
    359    362    363    364     1  180.0000000  4.8693776  2
    359    362    363    364     1  180.0000000  0.7025718  1
    360    359    358    365     1  0.0000000  0.4354138  3
    360    359    358    366     1  0.0000000  0.4354138  3
    360    359    358    367     1  0.0000000  0.4354138  3
    360    359    361    371     1  0.0000000  0.4354138  3
    360    359    361    372     1  0.0000000  0.4354138  3
    360    359    361    373     1  0.0000000  0.4354138  3
    360    359    362    363     1  0.0000000  0.8026052  3
    360    359    362    363     1  180.0000000  3.8501921  1
    361    359    358    365     1  0.0000000  0.4354138  3
    361    359    358    366     1  0.0000000  0.4354138  3
    361    359    358    367     1  0.0000000  0.4354138  3
    361    359    360    368     1  0.0000000  0.4354138  3
    361    359    360    369     1  0.0000000  0.4354138  3
    361    359    360    370     1  0.0000000  0.4354138  3
    361    359    362    363     1  0.0000000  0.8026052  3
    361    359    362    363     1  180.0000000  3.8501921  1
    362    359    358    365     1  0.0000000  0.4667359  3
    362    359    358    365     1  0.0000000  1.4361539  1
    362    359    358    366     1  0.0000000  0.4667359  3
    362    359    358    366     1  0.0000000  1.4361539  1
    362    359    358    367     1  0.0000000  0.4667359  3
    362    359    358    367     1  0.0000000  1.4361539  1
    362    359    360    368     1  0.0000000  0.4667359  3
    362    359    360    368     1  0.0000000  1.4361539  1
    362    359    360    369     1  0.0000000  0.4667359  3
    362    359    360    369     1  0.0000000  1.4361539  1
    362    359    360    370     1  0.0000000  0.4667359  3
    362    359    360    370     1  0.0000000  1.4361539  1
    362    359    361    371     1  0.0000000  0.4667359  3
    362    359    361    371     1  0.0000000  1.4361539  1
    362    359    361    372     1  0.0000000  0.4667359  3
    362    359    361    372     1  0.0000000  1.4361539  1
    362    359    361    373     1  0.0000000  0.4667359  3
    362    359    361    373     1  0.0000000  1.4361539  1
     13     14     32     10     4  180.0000000  1.5341333  2
    184    191    183    185     4  180.0000000  1.5341333  2
    323    324    328    316     4  180.0000000  1.5341333  2
    140    141    147    139     4  180.0000000  1.5341333  2
     62     80     61     63     4  180.0000000  1.5341333  2
     54     53     55     57     4  180.0000000  1.5341333  2
      4      3      5     26     4  180.0000000  1.5341333  2
    201    200    220    179     4  180.0000000  1.5341333  2
    230    233    229    231     4  180.0000000  1.5341333  2
    321    340    318    322     4  180.0000000  1.5341333  2
    191    192    196    184     4  180.0000000  1.5341333  2
     24     43      6     25     4  180.0000000  1.5341333  2
    277    296    274    278     4  180.0000000  1.5341333  2
    281    299    280    282     4  180.0000000  1.5341333  2
    274    275    277    273     4  180.0000000  1.5341333  2
    228    235    227    229     4  180.0000000  1.5341333  2
    141    142    160    140     4  180.0000000  1.5341333  2
    311    309    312    333     4  180.0000000  1.5341333  2
      6      5      7     24     4  180.0000000  1.5341333  2
    325    343    324    326     4  180.0000000  1.5341333  2
     20     15     19     37     4  180.0000000  1.5341333  2
    177    178    179    154     4  180.0000000  1.5341333  2
    289    308    267    288     4  180.0000000  1.5341333  2
     95    102     94     96     4  180.0000000  1.5341333  2
    265    266    267    242     4  180.0000000  1.5341333  2
    280    279    281    298     4  180.0000000  1.5341333  2
    235    236    240    228     4  180.0000000  1.5341333  2
     62     63     80     61     4  180.0000000  1.5341333  2
     63     62     64     65     4  180.0000000  1.5341333  2
     45     47     22     46     4  180.0000000  1.5341333  2
    318    317    319    321     4  180.0000000  1.5341333  2
    148    147    149    166     4  180.0000000  1.5341333  2
    184    185    191    183     4  180.0000000  1.5341333  2
      3      4     25      1     4  180.0000000  1.5341333  2
    226    244    225    227     4  180.0000000  1.5341333  2
      1    354      2      3     4  180.0000000  14.6440000  2
    101    102    120     98     4  180.0000000  1.5341333  2
      4     26      3      5     4  180.0000000  1.5341333  2
     51     50     52     58     4  180.0000000  1.5341333  2
     63     64     65     62     4  180.0000000  1.5341333  2
    177    179    154    178     4  180.0000000  1.5341333  2
    135    136    157    133     4  180.0000000  1.5341333  2
    191    196    184    192     4  180.0000000  1.5341333  2
    151    152    153    150     4  180.0000000  1.5341333  2
    239    241    238    240     4  180.0000000  1.5341333  2
    326    344    325    327     4  180.0000000  1.5341333  2
    145    146    164    142     4  180.0000000  1.5341333  2
     61     79     60     62     4  180.0000000  1.5341333  2
      5      4      6     27     4  180.0000000  1.5341333  2
     53     72     52     54     4  180.0000000  1.5341333  2
    149    148    150    167     4  180.0000000  1.5341333  2
    326    327    344    325     4  180.0000000  1.5341333  2
     92    114     91     93     4  180.0000000  1.5341333  2
    195    196    197    194     4  180.0000000  1.5341333  2
     18     19     36     17     4  180.0000000  1.5341333  2
    108    125    103    107     4  180.0000000  1.5341333  2
    137    136    138    159     4  180.0000000  1.5341333  2
     59     52     60     64     4  180.0000000  1.5341333  2
    328    345    323    327     4  180.0000000  1.5341333  2
    147    140    148    152     4  180.0000000  1.5341333  2
    104    122    103    105     4  180.0000000  1.5341333  2
    269    268    270    291     4  180.0000000  1.5341333  2
     14     33      7     13     4  180.0000000  1.5341333  2
    227    226    228    234     4  180.0000000  1.5341333  2
    113    132     91    112     4  180.0000000  1.5341333  2
     15      8     16     20     4  180.0000000  1.5341333  2
    138    139    156    137     4  180.0000000  1.5341333  2
     22     21     39     45     4  180.0000000  1.3946667  2
    186    187    189    185     4  180.0000000  1.5341333  2
    271    278    270    272     4  180.0000000  1.5341333  2
    103    108     96    104     4  180.0000000  1.5341333  2
    289    288    308    267     4  180.0000000  1.5341333  2
     58     77     51     57     4  180.0000000  1.5341333  2
    324    323    325    342     4  180.0000000  1.5341333  2
    269    270    291    268     4  180.0000000  1.5341333  2
    198    221    197    215     4  180.0000000  1.3946667  2
     49     48     50     71     4  180.0000000  1.5341333  2
     49     50     71     48     4  180.0000000  1.5341333  2
     57     58     76     54     4  180.0000000  1.5341333  2
     45     46     47     22     4  180.0000000  1.5341333  2
    195    197    194    196     4  180.0000000  1.5341333  2
     93     94    115     92     4  180.0000000  1.5341333  2
    193    192    194    211     4  180.0000000  1.5341333  2
     57     76     54     58     4  180.0000000  1.5341333  2
    141    160    140    142     4  180.0000000  1.5341333  2
    224    225    246    223     4  180.0000000  1.5341333  2
    238    237    239    256     4  180.0000000  1.5341333  2
    147    152    140    148     4  180.0000000  1.5341333  2
    269    291    268    270     4  180.0000000  1.5341333  2
    278    277    297    271     4  180.0000000  1.5341333  2
     50     51     68     49     4  180.0000000  1.5341333  2
     96     95     97    103     4  180.0000000  1.5341333  2
    224    223    225    246     4  180.0000000  1.5341333  2
     89     91     66     90     4  180.0000000  1.5341333  2
    149    167    148    150     4  180.0000000  1.5341333  2
    154    177    153    171     4  180.0000000  1.3946667  2
    279    284    272    280     4  180.0000000  1.5341333  2
    179    180    201    177     4  180.0000000  1.5341333  2
    183    182    184    190     4  180.0000000  1.5341333  2
    265    267    242    266     4  180.0000000  1.5341333  2
    282    281    283    300     4  180.0000000  1.5341333  2
    150    168    149    151     4  180.0000000  1.5341333  2
    363    330    362    364     4  180.0000000  14.6440000  2
     54     55     57     53     4  180.0000000  1.5341333  2
     97     98    116     96     4  180.0000000  1.5341333  2
    107    108    109    106     4  180.0000000  1.5341333  2
    286    285    303    309     4  180.0000000  1.3946667  2
    133    134    135    110     4  180.0000000  1.5341333  2
    152    151    169    147     4  180.0000000  1.5341333  2
    186    185    187    189     4  180.0000000  1.5341333  2
    142    145    141    143     4  180.0000000  1.5341333  2
     18     17     19     36     4  180.0000000  1.5341333  2
    316    323    315    317     4  180.0000000  1.5341333  2
     17     18     35     16     4  180.0000000  1.5341333  2
     52     53     59     51     4  180.0000000  1.5341333  2
    226    225    227    244     4  180.0000000  1.5341333  2
    138    137    139    156     4  180.0000000  1.5341333  2
     60     59     61     78     4  180.0000000  1.5341333  2
    240    257    235    239     4  180.0000000  1.5341333  2
    332    333    351    314     4  180.0000000  1.5341333  2
    200    182    201    219     4  180.0000000  1.5341333  2
    148    149    166    147     4  180.0000000  1.5341333  2
    154    153    171    177     4  180.0000000  1.3946667  2
      6     24      5      7     4  180.0000000  1.5341333  2
      9      8     10     28     4  180.0000000  1.5341333  2
    274    273    275    277     4  180.0000000  1.5341333  2
     94     93     95    112     4  180.0000000  1.5341333  2
    189    186    190    208     4  180.0000000  1.5341333  2
      4      5     26      3     4  180.0000000  1.5341333  2
    156    157    175    138     4  180.0000000  1.5341333  2
    192    191    193    210     4  180.0000000  1.5341333  2
    103     96    104    108     4  180.0000000  1.5341333  2
    283    282    284    285     4  180.0000000  1.5341333  2
     19     21     18     20     4  180.0000000  1.5341333  2
    193    194    211    192     4  180.0000000  1.5341333  2
    324    325    342    323     4  180.0000000  1.5341333  2
     18     36     17     19     4  180.0000000  1.5341333  2
    221    223    198    222     4  180.0000000  1.5341333  2
    142    143    145    141     4  180.0000000  1.5341333  2
     93    115     92     94     4  180.0000000  1.5341333  2
     16     17     34     15     4  180.0000000  1.5341333  2
     50     49     51     68     4  180.0000000  1.5341333  2
    315    322    314    316     4  180.0000000  1.5341333  2
    316    317    323    315     4  180.0000000  1.5341333  2
    245    264    223    244     4  180.0000000  1.5341333  2
    313    314    335    312     4  180.0000000  1.5341333  2
    314    332    313    315     4  180.0000000  1.5341333  2
     63     65     62     64     4  180.0000000  1.5341333  2
    288    307    270    289     4  180.0000000  1.5341333  2
    267    289    265    268     4  180.0000000  1.5341333  2
     95     94     96    102     4  180.0000000  1.5341333  2
    268    267    269    290     4  180.0000000  1.5341333  2
    157    156    176    135     4  180.0000000  1.5341333  2
    147    148    152    140     4  180.0000000  1.5341333  2
    280    298    279    281     4  180.0000000  1.5341333  2
    286    303    309    285     4  180.0000000  1.3946667  2
    240    239    257    235     4  180.0000000  1.5341333  2
     13     32     10     14     4  180.0000000  1.5341333  2
    228    227    229    235     4  180.0000000  1.5341333  2
    102    101    121     95     4  180.0000000  1.5341333  2
    230    231    233    229     4  180.0000000  1.5341333  2
     69     68     88     47     4  180.0000000  1.5341333  2
    146    165    139    145     4  180.0000000  1.5341333  2
    156    175    138    157     4  180.0000000  1.5341333  2
     20     37     15     19     4  180.0000000  1.5341333  2
    180    179    181    202     4  180.0000000  1.5341333  2
     98    101     97     99     4  180.0000000  1.5341333  2
    185    204    184    186     4  180.0000000  1.5341333  2
     50     68     49     51     4  180.0000000  1.5341333  2
    104    103    105    122     4  180.0000000  1.5341333  2
    333    332    352    311     4  180.0000000  1.5341333  2
    133    110    134    135     4  180.0000000  1.5341333  2
    278    271    277    297     4  180.0000000  1.5341333  2
    311    312    333    309     4  180.0000000  1.5341333  2
    237    255    236    238     4  180.0000000  1.5341333  2
     49     71     48     50     4  180.0000000  1.5341333  2
    223    245    221    224     4  180.0000000  1.5341333  2
    328    327    345    323     4  180.0000000  1.5341333  2
    313    335    312    314     4  180.0000000  1.5341333  2
    242    265    241    259     4  180.0000000  1.3946667  2
    288    270    289    307     4  180.0000000  1.5341333  2
    272    271    273    279     4  180.0000000  1.5341333  2
     95     96    102     94     4  180.0000000  1.5341333  2
    223    221    224    245     4  180.0000000  1.5341333  2
    233    230    234    252     4  180.0000000  1.5341333  2
    332    351    314    333     4  180.0000000  1.5341333  2
     52     51     53     59     4  180.0000000  1.5341333  2
    233    234    252    230     4  180.0000000  1.5341333  2
    327    329    326    328     4  180.0000000  1.5341333  2
    283    285    282    284     4  180.0000000  1.5341333  2
    200    201    219    182     4  180.0000000  1.5341333  2
    189    208    186    190     4  180.0000000  1.5341333  2
    224    246    223    225     4  180.0000000  1.5341333  2
     91    113     89     92     4  180.0000000  1.5341333  2
    101    120     98    102     4  180.0000000  1.5341333  2
    309    286    310    311     4  180.0000000  1.5341333  2
    133    135    110    134     4  180.0000000  1.5341333  2
    318    321    317    319     4  180.0000000  1.5341333  2
    282    283    300    281     4  180.0000000  1.5341333  2
     92     93    114     91     4  180.0000000  1.5341333  2
     14     13     33      7     4  180.0000000  1.5341333  2
     93     92     94    115     4  180.0000000  1.5341333  2
     96    103     95     97     4  180.0000000  1.5341333  2
     24     25     43      6     4  180.0000000  1.5341333  2
    140    147    139    141     4  180.0000000  1.5341333  2
    234    253    227    233     4  180.0000000  1.5341333  2
    282    300    281    283     4  180.0000000  1.5341333  2
    139    140    146    138     4  180.0000000  1.5341333  2
    142    141    143    145     4  180.0000000  1.5341333  2
    137    138    159    136     4  180.0000000  1.5341333  2
    242    259    265    241     4  180.0000000  1.3946667  2
     68     50     69     87     4  180.0000000  1.5341333  2
     66     65     83     89     4  180.0000000  1.3946667  2
    281    282    299    280     4  180.0000000  1.5341333  2
    238    239    256    237     4  180.0000000  1.5341333  2
    272    273    279    271     4  180.0000000  1.5341333  2
     59     64     52     60     4  180.0000000  1.5341333  2
    324    342    323    325     4  180.0000000  1.5341333  2
    113     91    112    132     4  180.0000000  1.5341333  2
     52     59     51     53     4  180.0000000  1.5341333  2
      5     27      4      6     4  180.0000000  1.5341333  2
    289    267    288    308     4  180.0000000  1.5341333  2
     17     35     16     18     4  180.0000000  1.5341333  2
    151    150    152    153     4  180.0000000  1.5341333  2
    157    176    135    156     4  180.0000000  1.5341333  2
     10      9     11     13     4  180.0000000  1.5341333  2
    237    236    238    255     4  180.0000000  1.5341333  2
    106    105    107    124     4  180.0000000  1.5341333  2
     68     69     87     50     4  180.0000000  1.5341333  2
    323    328    316    324     4  180.0000000  1.5341333  2
    327    328    329    326     4  180.0000000  1.5341333  2
    182    200    181    183     4  180.0000000  1.5341333  2
    267    265    268    289     4  180.0000000  1.5341333  2
    180    181    202    179     4  180.0000000  1.5341333  2
    221    222    223    198     4  180.0000000  1.5341333  2
     10     13      9     11     4  180.0000000  1.5341333  2
     96     97    103     95     4  180.0000000  1.5341333  2
    182    183    200    181     4  180.0000000  1.5341333  2
      7     14      6      8     4  180.0000000  1.5341333  2
    242    241    259    265     4  180.0000000  1.3946667  2
    181    203    180    182     4  180.0000000  1.5341333  2
     89     66     90     91     4  180.0000000  1.5341333  2
    103    104    108     96     4  180.0000000  1.5341333  2
    145    142    146    164     4  180.0000000  1.5341333  2
     60     78     59     61     4  180.0000000  1.5341333  2
    101     98    102    120     4  180.0000000  1.5341333  2
    195    194    196    197     4  180.0000000  1.5341333  2
    279    280    284    272     4  180.0000000  1.5341333  2
     91     89     92    113     4  180.0000000  1.5341333  2
    268    290    267    269     4  180.0000000  1.5341333  2
      8     15      7      9     4  180.0000000  1.5341333  2
    309    311    286    310     4  180.0000000  1.5341333  2
    196    213    191    195     4  180.0000000  1.5341333  2
    110    127    133    109     4  180.0000000  1.3946667  2
    152    147    151    169     4  180.0000000  1.5341333  2
    273    292    272    274     4  180.0000000  1.5341333  2
    196    191    195    213     4  180.0000000  1.5341333  2
    194    193    195    212     4  180.0000000  1.5341333  2
    156    138    157    175     4  180.0000000  1.5341333  2
    265    242    266    267     4  180.0000000  1.5341333  2
    286    309    285    303     4  180.0000000  1.3946667  2
     19     20     21     18     4  180.0000000  1.5341333  2
     25     44      3     24     4  180.0000000  1.5341333  2
    236    235    237    254     4  180.0000000  1.5341333  2
    148    166    147    149     4  180.0000000  1.5341333  2
    317    318    336    316     4  180.0000000  1.5341333  2
    140    139    141    147     4  180.0000000  1.5341333  2
    135    157    133    136     4  180.0000000  1.5341333  2
    105    123    104    106     4  180.0000000  1.5341333  2
     17     16     18     35     4  180.0000000  1.5341333  2
     97    116     96     98     4  180.0000000  1.5341333  2
    330    347    363    329     4  180.0000000  1.3946667  2
     51     52     58     50     4  180.0000000  1.5341333  2
    244    226    245    263     4  180.0000000  1.5341333  2
    325    326    343    324     4  180.0000000  1.5341333  2
     13     10     14     32     4  180.0000000  1.5341333  2
    150    149    151    168     4  180.0000000  1.5341333  2
    200    219    182    201     4  180.0000000  1.5341333  2
     22     39     45     21     4  180.0000000  1.3946667  2
    108    103    107    125     4  180.0000000  1.5341333  2
    136    158    135    137     4  180.0000000  1.5341333  2
    110    109    127    133     4  180.0000000  1.3946667  2
    149    150    167    148     4  180.0000000  1.5341333  2
    228    229    235    227     4  180.0000000  1.5341333  2
    135    133    136    157     4  180.0000000  1.5341333  2
    181    180    182    203     4  180.0000000  1.5341333  2
    323    316    324    328     4  180.0000000  1.5341333  2
    270    271    288    269     4  180.0000000  1.5341333  2
    229    248    228    230     4  180.0000000  1.5341333  2
     48     70     47     49     4  180.0000000  1.5341333  2
    333    311    332    352     4  180.0000000  1.5341333  2
    191    184    192    196     4  180.0000000  1.5341333  2
    237    238    255    236     4  180.0000000  1.5341333  2
    152    169    147    151     4  180.0000000  1.5341333  2
    183    190    182    184     4  180.0000000  1.5341333  2
    272    279    271    273     4  180.0000000  1.5341333  2
    105    106    123    104     4  180.0000000  1.5341333  2
    190    183    189    209     4  180.0000000  1.5341333  2
    288    289    307    270     4  180.0000000  1.5341333  2
    190    209    183    189     4  180.0000000  1.5341333  2
      9     10     28      8     4  180.0000000  1.5341333  2
     19     18     20     21     4  180.0000000  1.5341333  2
     25     24     44      3     4  180.0000000  1.5341333  2
     94     95    112     93     4  180.0000000  1.5341333  2
    186    189    185    187     4  180.0000000  1.5341333  2
     51     58     50     52     4  180.0000000  1.5341333  2
    317    336    316    318     4  180.0000000  1.5341333  2
    236    254    235    237     4  180.0000000  1.5341333  2
    185    186    204    184     4  180.0000000  1.5341333  2
    312    334    311    313     4  180.0000000  1.5341333  2
     59     60     64     52     4  180.0000000  1.5341333  2
     64     81     59     63     4  180.0000000  1.5341333  2
     68     87     50     69     4  180.0000000  1.5341333  2
    332    314    333    351     4  180.0000000  1.5341333  2
     91     92    113     89     4  180.0000000  1.5341333  2
    233    252    230    234     4  180.0000000  1.5341333  2
    271    272    278    270     4  180.0000000  1.5341333  2
      6      7     24      5     4  180.0000000  1.5341333  2
    180    202    179    181     4  180.0000000  1.5341333  2
    333    352    311    332     4  180.0000000  1.5341333  2
    315    314    316    322     4  180.0000000  1.5341333  2
    283    284    285    282     4  180.0000000  1.5341333  2
    196    195    213    191     4  180.0000000  1.5341333  2
    311    333    309    312     4  180.0000000  1.5341333  2
     61     60     62     79     4  180.0000000  1.5341333  2
    326    325    327    344     4  180.0000000  1.5341333  2
    136    137    158    135     4  180.0000000  1.5341333  2
    227    234    226    228     4  180.0000000  1.5341333  2
    244    245    263    226     4  180.0000000  1.5341333  2
    223    224    245    221     4  180.0000000  1.5341333  2
    107    106    108    109     4  180.0000000  1.5341333  2
    104    105    122    103     4  180.0000000  1.5341333  2
    321    318    322    340     4  180.0000000  1.5341333  2
     53     54     72     52     4  180.0000000  1.5341333  2
      3      1      4     25     4  180.0000000  1.5341333  2
     14      7     13     33     4  180.0000000  1.5341333  2
    239    238    240    241     4  180.0000000  1.5341333  2
    280    281    298    279     4  180.0000000  1.5341333  2
     69     88     47     68     4  180.0000000  1.5341333  2
    234    233    253    227     4  180.0000000  1.5341333  2
    278    297    271    277     4  180.0000000  1.5341333  2
     53     52     54     72     4  180.0000000  1.5341333  2
     47     48     69     45     4  180.0000000  1.5341333  2
    184    183    185    191     4  180.0000000  1.5341333  2
    137    159    136    138     4  180.0000000  1.5341333  2
     66     83     89     65     4  180.0000000  1.3946667  2
    284    279    283    301     4  180.0000000  1.5341333  2
    313    312    314    335     4  180.0000000  1.5341333  2
      3     25      1      4     4  180.0000000  1.5341333  2
    112    113    131     94     4  180.0000000  1.5341333  2
     47     69     45     48     4  180.0000000  1.5341333  2
      7      8     14      6     4  180.0000000  1.5341333  2
     20     19     37     15     4  180.0000000  1.5341333  2
    273    274    292    272     4  180.0000000  1.5341333  2
    193    211    192    194     4  180.0000000  1.5341333  2
    284    283    301    279     4  180.0000000  1.5341333  2
    198    197    215    221     4  180.0000000  1.3946667  2
    221    198    222    223     4  180.0000000  1.5341333  2
     25      3     24     44     4  180.0000000  1.5341333  2
    274    277    273    275     4  180.0000000  1.5341333  2
    110    133    109    127     4  180.0000000  1.3946667  2
     54     57     53     55     4  180.0000000  1.5341333  2
    198    215    221    197     4  180.0000000  1.3946667  2
      9     28      8     10     4  180.0000000  1.5341333  2
     16     34     15     17     4  180.0000000  1.5341333  2
    322    341    315    321     4  180.0000000  1.5341333  2
    314    313    315    332     4  180.0000000  1.5341333  2
    225    224    226    247     4  180.0000000  1.5341333  2
    317    316    318    336     4  180.0000000  1.5341333  2
    245    223    244    264     4  180.0000000  1.5341333  2
    327    326    328    329     4  180.0000000  1.5341333  2
    318    319    321    317     4  180.0000000  1.5341333  2
     97     96     98    116     4  180.0000000  1.5341333  2
    229    228    230    248     4  180.0000000  1.5341333  2
    271    270    272    278     4  180.0000000  1.5341333  2
     64     63     81     59     4  180.0000000  1.5341333  2
     47     45     48     69     4  180.0000000  1.5341333  2
    179    201    177    180     4  180.0000000  1.5341333  2
    136    135    137    158     4  180.0000000  1.5341333  2
     15     20      8     16     4  180.0000000  1.5341333  2
    145    164    142    146     4  180.0000000  1.5341333  2
     98     99    101     97     4  180.0000000  1.5341333  2
     48     47     49     70     4  180.0000000  1.5341333  2
    235    240    228    236     4  180.0000000  1.5341333  2
    227    228    234    226     4  180.0000000  1.5341333  2
    154    171    177    153     4  180.0000000  1.3946667  2
     94    112     93     95     4  180.0000000  1.5341333  2
    230    229    231    233     4  180.0000000  1.5341333  2
    189    190    208    186     4  180.0000000  1.5341333  2
    330    363    329    347     4  180.0000000  1.3946667  2
    239    240    241    238     4  180.0000000  1.5341333  2
    309    310    311    286     4  180.0000000  1.5341333  2
      1      3    354      2     4  180.0000000  14.6440000  2
    183    184    190    182     4  180.0000000  1.5341333  2
    139    138    140    146     4  180.0000000  1.5341333  2
    267    268    289    265     4  180.0000000  1.5341333  2
     58     51     57     77     4  180.0000000  1.5341333  2
     89     90     91     66     4  180.0000000  1.5341333  2
    363    364    330    362     4  180.0000000  14.6440000  2
    363    362    364    330     4  180.0000000  14.6440000  2
    106    107    124    105     4  180.0000000  1.5341333  2
    107    109    106    108     4  180.0000000  1.5341333  2
    179    177    180    201     4  180.0000000  1.5341333  2
    321    322    340    318     4  180.0000000  1.5341333  2
     24      6     25     43     4  180.0000000  1.5341333  2
    236    237    254    235     4  180.0000000  1.5341333  2
    201    179    200    220     4  180.0000000  1.5341333  2
    234    227    233    253     4  180.0000000  1.5341333  2
    312    313    334    311     4  180.0000000  1.5341333  2
    146    139    145    165     4  180.0000000  1.5341333  2
    141    140    142    160     4  180.0000000  1.5341333  2
    181    182    203    180     4  180.0000000  1.5341333  2
     22     45     21     39     4  180.0000000  1.3946667  2
      8      7      9     15     4  180.0000000  1.5341333  2
     58     57     77     51     4  180.0000000  1.5341333  2
    138    156    137    139     4  180.0000000  1.5341333  2
    268    269    290    267     4  180.0000000  1.5341333  2
    284    301    279    283     4  180.0000000  1.5341333  2
    150    151    168    149     4  180.0000000  1.5341333  2
    226    227    244    225     4  180.0000000  1.5341333  2
    194    195    212    193     4  180.0000000  1.5341333  2
    192    210    191    193     4  180.0000000  1.5341333  2
     57     54     58     76     4  180.0000000  1.5341333  2
    102     95    101    121     4  180.0000000  1.5341333  2
     48     49     70     47     4  180.0000000  1.5341333  2
    102    121     95    101     4  180.0000000  1.5341333  2
    113    112    132     91     4  180.0000000  1.5341333  2
    281    280    282    299     4  180.0000000  1.5341333  2
    151    153    150    152     4  180.0000000  1.5341333  2
     60     61     78     59     4  180.0000000  1.5341333  2
    146    145    165    139     4  180.0000000  1.5341333  2
    238    256    237    239     4  180.0000000  1.5341333  2
      7      6      8     14     4  180.0000000  1.5341333  2
    108    107    125    103     4  180.0000000  1.5341333  2
    225    226    247    224     4  180.0000000  1.5341333  2
    106    124    105    107     4  180.0000000  1.5341333  2
    139    146    138    140     4  180.0000000  1.5341333  2
     98     97     99    101     4  180.0000000  1.5341333  2
     66     89     65     83     4  180.0000000  1.3946667  2
    240    235    239    257     4  180.0000000  1.5341333  2
    182    181    183    200     4  180.0000000  1.5341333  2
      1      2      3    354     4  180.0000000  14.6440000  2
     61     62     79     60     4  180.0000000  1.5341333  2
    225    247    224    226     4  180.0000000  1.5341333  2
    316    315    317    323     4  180.0000000  1.5341333  2
    201    220    179    200     4  180.0000000  1.5341333  2
    177    154    178    179     4  180.0000000  1.5341333  2
    112     94    113    131     4  180.0000000  1.5341333  2
    270    269    271    288     4  180.0000000  1.5341333  2
    194    212    193    195     4  180.0000000  1.5341333  2
    325    324    326    343     4  180.0000000  1.5341333  2
    322    321    341    315     4  180.0000000  1.5341333  2
    245    244    264    223     4  180.0000000  1.5341333  2
    270    288    269    271     4  180.0000000  1.5341333  2
     62     61     63     80     4  180.0000000  1.5341333  2
    273    272    274    292     4  180.0000000  1.5341333  2
    279    272    280    284     4  180.0000000  1.5341333  2
      8      9     15      7     4  180.0000000  1.5341333  2
     92     91     93    114     4  180.0000000  1.5341333  2
     69     47     68     88     4  180.0000000  1.5341333  2
    244    263    226    245     4  180.0000000  1.5341333  2
    112    131     94    113     4  180.0000000  1.5341333  2
    235    228    236    240     4  180.0000000  1.5341333  2
     16     15     17     34     4  180.0000000  1.5341333  2
    192    193    210    191     4  180.0000000  1.5341333  2
    315    316    322    314     4  180.0000000  1.5341333  2
      5      6     27      4     4  180.0000000  1.5341333  2
    185    184    186    204     4  180.0000000  1.5341333  2
    312    311    313    334     4  180.0000000  1.5341333  2
    190    189    209    183     4  180.0000000  1.5341333  2
    314    315    332    313     4  180.0000000  1.5341333  2
    105    104    106    123     4  180.0000000  1.5341333  2
    328    323    327    345     4  180.0000000  1.5341333  2
    157    135    156    176     4  180.0000000  1.5341333  2
     64     59     63     81     4  180.0000000  1.5341333  2
     15     16     20      8     4  180.0000000  1.5341333  2
    322    315    321    341     4  180.0000000  1.5341333  2
     10     11     13      9     4  180.0000000  1.5341333  2
    229    230    248    228     4  180.0000000  1.5341333  2
    277    278    296    274     4  180.0000000  1.5341333  2
    330    329    347    363     4  180.0000000  1.3946667  2
     45     22     46     47     4  180.0000000  1.5341333  2
    277    274    278    296     4  180.0000000  1.5341333  2


[ moleculetype ]
; Name            nrexcl
TCM          3

[ atoms ]
;   nr       type  resnr residue  atom   cgnr    charge       mass  typeB    chargeB      massB
; residue    1 TCM rtp TCM q 0.0
    1      TCM_0      1    TCM     c1      1 0.22438000   9.994886   ; qtot 0.224380
    2      TCM_1      1    TCM    cl1      2 -0.11463000  35.453200   ; qtot 0.109750
    3      TCM_2      1    TCM    cl2      3 -0.11463000  35.453200   ; qtot -0.004880
    4      TCM_3      1    TCM     h1      4 0.11951000   3.023841   ; qtot 0.114630
    5      TCM_4      1    TCM    cl3      5 -0.11463000  35.453200   ; qtot 0.000000

[ bonds ]
;    ai     aj funct         c0         c1         c2         c3
      1      2     1   0.17948 173885.040698
      1      3     1   0.17948 173885.040698
      1      4     1   0.10929 317186.185379
      1      5     1   0.17948 173885.040698

[ angles ]
;    ai     aj     ak funct         c0         c1         c2         c3
      2      1      3     1   107.6607822 425.669015
      2      1      4     1   107.6607822 425.669015
      2      1      5     1   107.6607822 425.669015
      3      1      4     1   107.6607822 425.669015
      3      1      5     1   107.6607822 425.669015
      4      1      5     1   107.6607822 425.669015

[ system ]
; Name
FOO

[ molecules ]
; Compound       #mols
system1              1
TCM                634
