FOO
 3543
    1MOP     C1    1   3.353   3.124   3.301
    1MOP     O1    2   3.380   3.056   3.202
    1MOP     C2    3   3.343   3.057   3.432
    1MOP     C3    4   3.254   3.103   3.531
    1MOP     C4    5   3.251   3.043   3.659
    1MOP     C5    6   3.339   2.936   3.690
    1MOP     C6    7   3.343   2.877   3.828
    1MOP     C7    8   3.369   2.739   3.854
    1MOP     C8    9   3.386   2.696   3.987
    1MOP     C9   10   3.373   2.784   4.096
    1MOP     O2   11   3.393   2.732   4.223
    1MOP    C10   12   3.385   2.824   4.336
    1MOP    C11   13   3.340   2.919   4.070
    1MOP    C12   14   3.325   2.965   3.938
    1MOP    C13   15   3.373   2.635   3.747
    1MOP    C14   16   3.480   2.542   3.743
    1MOP    C15   17   3.483   2.440   3.645
    1MOP    C16   18   3.377   2.429   3.552
    1MOP    C17   19   3.269   2.520   3.556
    1MOP    C18   20   3.269   2.624   3.652
    1MOP    C19   21   3.153   2.502   3.458
    1MOP     N1   22   3.153   2.614   3.363
    1MOP    C20   23   3.017   2.499   3.531
    1MOP    C21   24   3.430   2.892   3.591
    1MOP    C22   25   3.431   2.951   3.463
    1MOP     H1   26   3.187   3.186   3.509
    1MOP     H2   27   3.181   3.080   3.733
    1MOP     H3   28   3.407   2.592   4.009
    1MOP     H4   29   3.405   2.767   4.427
    1MOP     H5   30   3.285   2.867   4.341
    1MOP     H6   31   3.461   2.901   4.325
    1MOP     H7   32   3.327   2.992   4.150
    1MOP     H8   33   3.306   3.071   3.922
    1MOP     H9   34   3.562   2.549   3.814
    1MOP    H10   35   3.566   2.370   3.642
    1MOP    H11   36   3.379   2.349   3.479
    1MOP    H12   37   3.187   2.696   3.654
    1MOP    H13   38   3.166   2.407   3.406
    1MOP    H14   39   3.148   2.710   3.395
    1MOP    H15   40   2.996   2.595   3.577
    1MOP    H16   41   3.018   2.420   3.606
    1MOP    H17   42   2.939   2.477   3.457
    1MOP    H18   43   3.504   2.815   3.612
    1MOP    H19   44   3.502   2.918   3.389
    2MOP    C23   45   3.139   2.603   3.226
    2MOP     O3   46   3.123   2.707   3.165
    2MOP    C24   47   3.134   2.472   3.157
    2MOP    C25   48   3.011   2.405   3.142
    2MOP    C26   49   3.006   2.277   3.083
    2MOP    C27   50   3.124   2.216   3.034
    2MOP    C28   51   3.121   2.075   2.985
    2MOP    C29   52   3.192   2.029   2.870
    2MOP    C30   53   3.192   1.891   2.838
    2MOP    C31   54   3.122   1.797   2.916
    2MOP     O4   55   3.128   1.664   2.876
    2MOP    C32   56   3.055   1.566   2.954
    2MOP    C33   57   3.050   1.843   3.029
    2MOP    C34   58   3.050   1.980   3.063
    2MOP    C35   59   3.258   2.120   2.773
    2MOP    C36   60   3.398   2.113   2.755
    2MOP    C37   61   3.460   2.187   2.653
    2MOP    C38   62   3.382   2.264   2.564
    2MOP    C39   63   3.241   2.268   2.578
    2MOP    C40   64   3.180   2.199   2.686
    2MOP    C41   65   3.159   2.347   2.475
    2MOP     N2   66   3.154   2.485   2.523
    2MOP    C42   67   3.017   2.290   2.451
    2MOP    C43   68   3.247   2.286   3.045
    2MOP    C44   69   3.252   2.412   3.106
    2MOP    H20   70   2.919   2.451   3.179
    2MOP    H21   71   2.911   2.226   3.074
    2MOP    H22   72   3.245   1.857   2.750
    2MOP    H23   73   3.071   1.468   2.909
    2MOP    H24   74   2.949   1.590   2.953
    2MOP    H25   75   3.094   1.564   3.056
    2MOP    H26   76   2.994   1.775   3.092
    2MOP    H27   77   2.996   2.011   3.152
    2MOP    H28   78   3.458   2.050   2.820
    2MOP    H29   79   3.568   2.182   2.640
    2MOP    H30   80   3.431   2.319   2.484
    2MOP    H31   81   3.073   2.200   2.700
    2MOP    H32   82   3.212   2.343   2.379
    2MOP    H33   83   3.195   2.498   2.615
    2MOP    H34   84   2.955   2.309   2.539
    2MOP    H35   85   3.024   2.183   2.432
    2MOP    H36   86   2.973   2.339   2.364
    2MOP    H37   87   3.339   2.240   3.009
    2MOP    H38   88   3.347   2.463   3.116
    3MOP    C45   89   3.189   2.592   2.445
    3MOP     O5   90   3.264   2.673   2.497
    3MOP    C46   91   3.113   2.630   2.323
    3MOP    C47   92   2.972   2.617   2.319
    3MOP    C48   93   2.900   2.665   2.208
    3MOP    C49   94   2.967   2.730   2.101
    3MOP    C50   95   2.889   2.791   1.990
    3MOP    C51   96   2.907   2.928   1.950
    3MOP    C52   97   2.838   2.975   1.836
    3MOP    C53   98   2.751   2.892   1.763
    3MOP     O6   99   2.689   2.948   1.651
    3MOP    C54  100   2.590   2.867   1.581
    3MOP    C55  101   2.731   2.758   1.805
    3MOP    C56  102   2.801   2.709   1.917
    3MOP    C57  103   2.992   3.024   2.027
    3MOP    C58  104   3.081   3.110   1.959
    3MOP    C59  105   3.165   3.197   2.031
    3MOP    C60  106   3.162   3.198   2.172
    3MOP    C61  107   3.073   3.113   2.243
    3MOP    C62  108   2.985   3.030   2.168
    3MOP    C63  109   3.072   3.106   2.397
    3MOP     N3  110   3.189   3.173   2.457
    3MOP    C64  111   3.084   2.959   2.443
    3MOP    C65  112   3.108   2.739   2.104
    3MOP    C66  113   3.180   2.690   2.215
    3MOP    H39  114   2.919   2.573   2.403
    3MOP    H40  115   2.791   2.657   2.207
    3MOP    H41  116   2.851   3.078   1.804
    3MOP    H42  117   2.549   2.926   1.500
    3MOP    H43  118   2.509   2.839   1.650
    3MOP    H44  119   2.638   2.777   1.540
    3MOP    H45  120   2.666   2.690   1.753
    3MOP    H46  121   2.788   2.605   1.946
    3MOP    H47  122   3.088   3.108   1.851
    3MOP    H48  123   3.234   3.262   1.978
    3MOP    H49  124   3.230   3.264   2.225
    3MOP    H50  125   2.913   2.967   2.220
    3MOP    H51  126   2.979   3.148   2.437
    3MOP    H52  127   3.273   3.117   2.468
    3MOP    H53  128   3.171   2.914   2.395
    3MOP    H54  129   2.993   2.904   2.417
    3MOP    H55  130   3.097   2.955   2.551
    3MOP    H56  131   3.160   2.789   2.023
    3MOP    H57  132   3.288   2.703   2.219
    4MOP    C67  133   3.205   3.298   2.513
    4MOP     O7  134   3.314   3.311   2.566
    4MOP    C68  135   3.108   3.413   2.509
    4MOP    C69  136   2.999   3.420   2.419
    4MOP    C70  137   2.913   3.532   2.418
    4MOP    C71  138   2.936   3.644   2.502
    4MOP    C72  139   2.846   3.766   2.494
    4MOP    C73  140   2.821   3.857   2.603
    4MOP    C74  141   2.734   3.966   2.583
    4MOP    C75  142   2.667   3.988   2.462
    4MOP     O8  143   2.581   4.096   2.456
    4MOP    C76  144   2.489   4.103   2.344
    4MOP    C77  145   2.692   3.901   2.354
    4MOP    C78  146   2.780   3.792   2.370
    4MOP    C79  147   2.874   3.840   2.740
    4MOP    C80  148   2.946   3.947   2.800
    4MOP    C81  149   2.991   3.938   2.933
    4MOP    C82  150   2.963   3.822   3.008
    4MOP    C83  151   2.889   3.716   2.951
    4MOP    C84  152   2.845   3.725   2.817
    4MOP    C85  153   2.854   3.596   3.038
    4MOP     N4  154   2.894   3.470   2.973
    4MOP    C86  155   2.702   3.592   3.066
    4MOP    C87  156   3.049   3.639   2.588
    4MOP    C88  157   3.132   3.525   2.593
    4MOP    H58  158   2.978   3.342   2.347
    4MOP    H59  159   2.829   3.530   2.350
    4MOP    H60  160   2.712   4.033   2.666
    4MOP    H61  161   2.419   4.185   2.362
    4MOP    H62  162   2.432   4.009   2.337
    4MOP    H63  163   2.544   4.122   2.252
    4MOP    H64  164   2.646   3.915   2.257
    4MOP    H65  165   2.799   3.730   2.282
    4MOP    H66  166   2.967   4.037   2.742
    4MOP    H67  167   3.047   4.019   2.978
    4MOP    H68  168   2.999   3.816   3.111
    4MOP    H69  169   2.787   3.645   2.772
    4MOP    H70  170   2.905   3.606   3.135
    4MOP    H71  171   2.834   3.430   2.902
    4MOP    H72  172   2.647   3.580   2.972
    4MOP    H73  173   2.673   3.685   3.115
    4MOP    H74  174   2.681   3.508   3.132
    4MOP    H75  175   3.077   3.724   2.650
    4MOP    H76  176   3.217   3.525   2.660
    5MOP    C89  177   3.003   3.395   3.012
    5MOP     O9  178   3.084   3.443   3.090
    5MOP    C90  179   3.025   3.260   2.953
    5MOP    C91  180   2.982   3.230   2.822
    5MOP    C92  181   2.990   3.098   2.773
    5MOP    C93  182   3.046   2.995   2.853
    5MOP    C94  183   3.033   2.852   2.814
    5MOP    C95  184   3.140   2.759   2.825
    5MOP    C96  185   3.111   2.620   2.817
    5MOP    C97  186   2.980   2.573   2.796
    5MOP    O10  187   2.962   2.436   2.792
    5MOP    C98  188   2.826   2.386   2.785
    5MOP    C99  189   2.876   2.667   2.778
    5MOP   C100  190   2.902   2.805   2.789
    5MOP   C101  191   3.283   2.799   2.841
    5MOP   C102  192   3.365   2.731   2.934
    5MOP   C103  193   3.504   2.756   2.939
    5MOP   C104  194   3.562   2.848   2.851
    5MOP   C105  195   3.482   2.917   2.757
    5MOP   C106  196   3.342   2.894   2.755
    5MOP   C107  197   3.550   3.014   2.661
    5MOP     N5  198   3.522   3.151   2.705
    5MOP   C108  199   3.506   2.993   2.514
    5MOP   C109  200   3.095   3.027   2.982
    5MOP   C110  201   3.082   3.157   3.032
    5MOP    H77  202   2.940   3.307   2.758
    5MOP    H78  203   2.950   3.074   2.676
    5MOP    H79  204   3.190   2.547   2.828
    5MOP    H80  205   2.829   2.277   2.788
    5MOP    H81  206   2.780   2.417   2.690
    5MOP    H82  207   2.768   2.423   2.870
    5MOP    H83  208   2.773   2.637   2.760
    5MOP    H84  209   2.820   2.875   2.784
    5MOP    H85  210   3.321   2.659   3.001
    5MOP    H86  211   3.566   2.703   3.010
    5MOP    H87  212   3.669   2.867   2.856
    5MOP    H88  213   3.280   2.946   2.683
    5MOP    H89  214   3.658   2.997   2.664
    5MOP    H90  215   3.440   3.201   2.669
    5MOP    H91  216   3.399   3.008   2.504
    5MOP    H92  217   3.531   2.891   2.485
    5MOP    H93  218   3.560   3.064   2.451
    5MOP    H94  219   3.135   2.948   3.046
    5MOP    H95  220   3.113   3.177   3.135
    6MOP   C111  221   3.594   3.216   2.804
    6MOP    O11  222   3.700   3.168   2.844
    6MOP   C112  223   3.551   3.349   2.853
    6MOP   C113  224   3.413   3.383   2.855
    6MOP   C114  225   3.373   3.513   2.894
    6MOP   C115  226   3.469   3.610   2.930
    6MOP   C116  227   3.426   3.751   2.949
    6MOP   C117  228   3.474   3.835   3.054
    6MOP   C118  229   3.436   3.972   3.055
    6MOP   C119  230   3.357   4.028   2.953
    6MOP    O12  231   3.329   4.164   2.962
    6MOP   C120  232   3.259   4.225   2.851
    6MOP   C121  233   3.310   3.944   2.849
    6MOP   C122  234   3.344   3.807   2.848
    6MOP   C123  235   3.562   3.787   3.165
    6MOP   C124  236   3.675   3.863   3.202
    6MOP   C125  237   3.755   3.824   3.310
    6MOP   C126  238   3.724   3.708   3.383
    6MOP   C127  239   3.611   3.630   3.349
    6MOP   C128  240   3.530   3.670   3.239
    6MOP   C129  241   3.575   3.511   3.437
    6MOP     N6  242   3.602   3.381   3.374
    6MOP   C130  243   3.428   3.515   3.485
    6MOP   C131  244   3.606   3.575   2.932
    6MOP   C132  245   3.646   3.445   2.895
    6MOP    H96  246   3.337   3.310   2.828
    6MOP    H97  247   3.267   3.538   2.895
    6MOP    H98  248   3.470   4.037   3.134
    6MOP    H99  249   3.249   4.332   2.871
    6MOP   H100  250   3.159   4.182   2.840
    6MOP   H101  251   3.317   4.212   2.759
    6MOP   H102  252   3.249   3.981   2.768
    6MOP   H103  253   3.309   3.746   2.766
    6MOP   H104  254   3.701   3.953   3.147
    6MOP   H105  255   3.842   3.883   3.338
    6MOP   H106  256   3.788   3.678   3.466
    6MOP   H107  257   3.441   3.614   3.213
    6MOP   H108  258   3.636   3.517   3.528
    6MOP   H109  259   3.523   3.322   3.350
    6MOP   H110  260   3.361   3.506   3.400
    6MOP   H111  261   3.410   3.610   3.536
    6MOP   H112  262   3.411   3.433   3.555
    6MOP   H113  263   3.681   3.648   2.959
    6MOP   H114  264   3.752   3.419   2.895
    7MOP   C133  265   3.726   3.320   3.373
    7MOP    O13  266   3.826   3.383   3.408
    7MOP   C134  267   3.739   3.176   3.340
    7MOP   C135  268   3.693   3.124   3.216
    7MOP   C136  269   3.697   2.985   3.193
    7MOP   C137  270   3.750   2.897   3.290
    7MOP   C138  271   3.750   2.750   3.270
    7MOP   C139  272   3.871   2.676   3.268
    7MOP   C140  273   3.866   2.535   3.268
    7MOP   C141  274   3.743   2.466   3.270
    7MOP    O14  275   3.749   2.327   3.270
    7MOP   C142  276   3.624   2.254   3.269
    7MOP   C143  277   3.623   2.540   3.271
    7MOP   C144  278   3.626   2.681   3.271
    7MOP   C145  279   4.004   2.743   3.262
    7MOP   C146  280   4.107   2.706   3.351
    7MOP   C147  281   4.232   2.771   3.346
    7MOP   C148  282   4.255   2.871   3.250
    7MOP   C149  283   4.154   2.907   3.158
    7MOP   C150  284   4.028   2.843   3.165
    7MOP   C151  285   4.184   3.015   3.053
    7MOP     N7  286   4.153   3.147   3.109
    7MOP   C152  287   4.106   2.999   2.921
    7MOP   C153  288   3.800   2.950   3.411
    7MOP   C154  289   3.794   3.088   3.436
    7MOP   H115  290   3.653   3.189   3.139
    7MOP   H116  291   3.658   2.946   3.099
    7MOP   H117  292   3.958   2.477   3.265
    7MOP   H118  293   3.646   2.147   3.266
    7MOP   H119  294   3.566   2.280   3.180
    7MOP   H120  295   3.568   2.276   3.360
    7MOP   H121  296   3.526   2.492   3.273
    7MOP   H122  297   3.533   2.736   3.273
    7MOP   H123  298   4.089   2.629   3.426
    7MOP   H124  299   4.310   2.744   3.416
    7MOP   H125  300   4.351   2.922   3.247
    7MOP   H126  301   3.949   2.870   3.096
    7MOP   H127  302   4.291   3.007   3.028
    7MOP   H128  303   4.056   3.174   3.116
    7MOP   H129  304   3.999   3.018   2.938
    7MOP   H130  305   4.120   2.897   2.883
    7MOP   H131  306   4.144   3.071   2.849
    7MOP   H132  307   3.841   2.883   3.486
    7MOP   H133  308   3.831   3.128   3.530
    8MOP   C155  309   4.247   3.240   3.150
    8MOP    O15  310   4.366   3.209   3.149
    8MOP   C156  311   4.207   3.379   3.188
    8MOP   C157  312   4.071   3.420   3.180
    8MOP   C158  313   4.037   3.555   3.203
    8MOP   C159  314   4.136   3.650   3.234
    8MOP   C160  315   4.100   3.794   3.245
    8MOP   C161  316   4.131   3.874   3.360
    8MOP   C162  317   4.105   4.013   3.356
    8MOP   C163  318   4.047   4.074   3.243
    8MOP    O16  319   4.024   4.211   3.250
    8MOP   C164  320   3.960   4.275   3.137
    8MOP   C165  321   4.016   3.994   3.130
    8MOP   C166  322   4.043   3.856   3.132
    8MOP   C167  323   4.189   3.817   3.486
    8MOP   C168  324   4.288   3.890   3.557
    8MOP   C169  325   4.342   3.840   3.676
    8MOP   C170  326   4.299   3.716   3.727
    8MOP   C171  327   4.200   3.642   3.659
    8MOP   C172  328   4.145   3.693   3.539
    8MOP   C173  329   4.162   3.503   3.711
    8MOP     N8  330   4.222   3.402   3.624
    8MOP   C174  331   4.009   3.480   3.719
    8MOP   C175  332   4.270   3.609   3.248
    8MOP   C176  333   4.306   3.474   3.225
    8MOP   H134  334   3.991   3.351   3.155
    8MOP   H135  335   3.933   3.586   3.195
    8MOP   H136  336   4.126   4.076   3.441
    8MOP   H137  337   3.949   4.381   3.160
    8MOP   H138  338   3.861   4.232   3.122
    8MOP   H139  339   4.022   4.263   3.048
    8MOP   H140  340   3.972   4.037   3.040
    8MOP   H141  341   4.022   3.796   3.043
    8MOP   H142  342   4.325   3.985   3.518
    8MOP   H143  343   4.420   3.895   3.729
    8MOP   H144  344   4.345   3.675   3.816
    8MOP   H145  345   4.068   3.637   3.487
    8MOP   H146  346   4.201   3.492   3.813
    8MOP   H147  347   4.178   3.381   3.535
    8MOP   H148  348   3.965   3.488   3.620
    8MOP   H149  349   3.965   3.553   3.786
    8MOP   H150  350   3.991   3.379   3.759
    8MOP   H151  351   4.347   3.681   3.273
    8MOP   H152  352   4.410   3.444   3.233
    9CAP   C177  353   3.362   3.324   3.170
    9CAP    O17  354   3.338   3.260   3.298
    9CAP   H153  355   3.468   3.322   3.146
    9CAP   H154  356   3.328   3.427   3.176
    9CAP   H155  357   3.307   3.274   3.090
   10CAP   C178  358   4.504   3.068   3.465
   10CAP   C179  359   4.513   3.188   3.563
   10CAP   C180  360   4.550   3.130   3.702
   10CAP   C181  361   4.621   3.285   3.508
   10CAP    O18  362   4.380   3.247   3.555
   10CAP   C182  363   4.348   3.350   3.639
   10CAP    O19  364   4.422   3.400   3.723
   10CAP   H156  365   4.600   3.016   3.461
   10CAP   H157  366   4.426   2.999   3.499
   10CAP   H158  367   4.479   3.105   3.365
   10CAP   H159  368   4.465   3.074   3.741
   10CAP   H160  369   4.577   3.210   3.771
   10CAP   H161  370   4.636   3.063   3.692
   10CAP   H162  371   4.589   3.324   3.411
   10CAP   H163  372   4.636   3.368   3.578
   10CAP   H164  373   4.715   3.231   3.497
   11TCM     c1  374   4.229   0.240   2.516
   11TCM    cl1  375   4.188   0.066   2.528
   11TCM    cl2  376   4.246   0.308   2.682
   11TCM     h1  377   4.323   0.253   2.462
   11TCM    cl3  378   4.098   0.326   2.429
   12TCM     c1  379   1.806   2.658   3.635
   12TCM    cl1  380   1.906   2.759   3.744
   12TCM    cl2  381   1.872   2.492   3.629
   12TCM     h1  382   1.703   2.655   3.672
   12TCM    cl3  383   1.807   2.728   3.469
   13TCM     c1  384   1.778   2.374   0.859
   13TCM    cl1  385   1.899   2.331   0.733
   13TCM    cl2  386   1.614   2.331   0.801
   13TCM     h1  387   1.801   2.319   0.950
   13TCM    cl3  388   1.786   2.550   0.892
   14TCM     c1  389   2.295   0.859   3.629
   14TCM    cl1  390   2.303   0.685   3.586
   14TCM    cl2  391   2.329   0.959   3.484
   14TCM     h1  392   2.196   0.883   3.669
   14TCM    cl3  393   2.420   0.893   3.754
   15TCM     c1  394   1.951   1.599   2.257
   15TCM    cl1  395   1.938   1.458   2.148
   15TCM    cl2  396   2.104   1.591   2.350
   15TCM     h1  397   1.949   1.691   2.197
   15TCM    cl3  398   1.812   1.599   2.371
   16TCM     c1  399   4.860   0.967   0.128
   16TCM    cl1  400   4.812   1.130   0.072
   16TCM    cl2  401   4.732   0.848   0.086
   16TCM     h1  402   4.954   0.938   0.079
   16TCM    cl3  403   4.884   0.970   0.305
   17TCM     c1  404   2.658   0.349   2.167
   17TCM    cl1  405   2.636   0.321   2.342
   17TCM    cl2  406   2.574   0.500   2.120
   17TCM     h1  407   2.764   0.357   2.143
   17TCM    cl3  408   2.586   0.211   2.077
   18TCM     c1  409   3.394   4.086   4.442
   18TCM    cl1  410   3.359   4.217   4.325
   18TCM    cl2  411   3.280   3.950   4.415
   18TCM     h1  412   3.496   4.051   4.429
   18TCM    cl3  413   3.373   4.147   4.610
   19TCM     c1  414   0.426   3.880   3.160
   19TCM    cl1  415   0.443   3.887   3.338
   19TCM    cl2  416   0.525   3.746   3.095
   19TCM     h1  417   0.321   3.864   3.134
   19TCM    cl3  418   0.482   4.035   3.089
   20TCM     c1  419   3.863   1.143   2.488
   20TCM    cl1  420   3.721   1.244   2.444
   20TCM    cl2  421   3.973   1.132   2.347
   20TCM     h1  422   3.916   1.189   2.572
   20TCM    cl3  423   3.807   0.979   2.535
   21TCM     c1  424   4.899   2.946   4.103
   21TCM    cl1  425   4.789   3.053   4.012
   21TCM    cl2  426   4.804   2.820   4.188
   21TCM     h1  427   4.969   2.898   4.035
   21TCM    cl3  428   4.990   3.043   4.224
   22TCM     c1  429   0.285   2.412   1.075
   22TCM    cl1  430   0.170   2.516   1.166
   22TCM    cl2  431   0.277   2.244   1.137
   22TCM     h1  432   0.259   2.413   0.968
   22TCM    cl3  433   0.450   2.477   1.096
   23TCM     c1  434   1.193   1.705   1.978
   23TCM    cl1  435   1.320   1.745   2.099
   23TCM    cl2  436   1.268   1.618   1.841
   23TCM     h1  437   1.117   1.641   2.025
   23TCM    cl3  438   1.117   1.856   1.919
   24TCM     c1  439   4.054   4.194   0.311
   24TCM    cl1  440   3.902   4.101   0.324
   24TCM    cl2  441   4.133   4.204   0.473
   24TCM     h1  442   4.122   4.144   0.242
   24TCM    cl3  443   4.018   4.360   0.252
   25TCM     c1  444   2.500   0.276   3.748
   25TCM    cl1  445   2.584   0.341   3.604
   25TCM    cl2  446   2.505   0.097   3.741
   25TCM     h1  447   2.549   0.311   3.839
   25TCM    cl3  448   2.329   0.331   3.747
   26TCM     c1  449   2.103   1.843   2.752
   26TCM    cl1  450   2.115   1.765   2.912
   26TCM    cl2  451   1.960   1.781   2.664
   26TCM     h1  452   2.094   1.952   2.764
   26TCM    cl3  453   2.251   1.806   2.656
   27TCM     c1  454   0.601   2.691   4.752
   27TCM    cl1  455   0.653   2.703   4.580
   27TCM    cl2  456   0.453   2.789   4.777
   27TCM     h1  457   0.580   2.586   4.776
   27TCM    cl3  458   0.732   2.752   4.858
   28TCM     c1  459   4.587   3.582   1.964
   28TCM    cl1  460   4.484   3.681   1.856
   28TCM    cl2  461   4.760   3.610   1.925
   28TCM     h1  462   4.569   3.609   2.068
   28TCM    cl3  463   4.549   3.408   1.940
   29TCM     c1  464   0.363   3.272   4.786
   29TCM    cl1  465   0.275   3.397   4.879
   29TCM    cl2  466   0.359   3.314   4.612
   29TCM     h1  467   0.467   3.267   4.820
   29TCM    cl3  468   0.283   3.113   4.812
   30TCM     c1  469   1.975   0.903   3.245
   30TCM    cl1  470   1.973   0.800   3.098
   30TCM    cl2  471   2.022   0.805   3.387
   30TCM     h1  472   2.046   0.985   3.231
   30TCM    cl3  473   1.811   0.970   3.274
   31TCM     c1  474   1.090   1.953   2.456
   31TCM    cl1  475   1.184   2.089   2.385
   31TCM    cl2  476   1.065   1.826   2.331
   31TCM     h1  477   1.146   1.911   2.540
   31TCM    cl3  478   0.931   2.012   2.513
   32TCM     c1  479   2.834   4.528   4.703
   32TCM    cl1  480   2.792   4.482   4.535
   32TCM    cl2  481   2.950   4.664   4.701
   32TCM     h1  482   2.743   4.559   4.757
   32TCM    cl3  483   2.908   4.387   4.785
   33TCM     c1  484   2.200   1.740   1.899
   33TCM    cl1  485   2.286   1.897   1.900
   33TCM    cl2  486   2.028   1.766   1.942
   33TCM     h1  487   2.206   1.696   1.799
   33TCM    cl3  488   2.275   1.629   2.019
   34TCM     c1  489   2.755   2.096   0.008
   34TCM    cl1  490   2.647   2.073   0.149
   34TCM    cl2  491   2.915   2.022   0.044
   34TCM     h1  492   2.712   2.048  -0.080
   34TCM    cl3  493   2.776   2.271  -0.024
   35TCM     c1  494   4.922   4.842   1.265
   35TCM    cl1  495   4.934   4.668   1.224
   35TCM    cl2  496   4.817   4.863   1.409
   35TCM     h1  497   5.022   4.882   1.286
   35TCM    cl3  498   4.851   4.930   1.125
   36TCM     c1  499   3.069   0.561   1.038
   36TCM    cl1  500   2.974   0.440   0.944
   36TCM    cl2  501   3.116   0.491   1.196
   36TCM     h1  502   3.159   0.587   0.982
   36TCM    cl3  503   2.970   0.708   1.065
   37TCM     c1  504   3.591   2.782   1.079
   37TCM    cl1  505   3.417   2.749   1.053
   37TCM    cl2  506   3.628   2.775   1.254
   37TCM     h1  507   3.651   2.707   1.026
   37TCM    cl3  508   3.629   2.945   1.016
   38TCM     c1  509   0.911   0.783   3.415
   38TCM    cl1  510   1.075   0.845   3.376
   38TCM    cl2  511   0.818   0.761   3.263
   38TCM     h1  512   0.919   0.688   3.467
   38TCM    cl3  513   0.825   0.902   3.519
   39TCM     c1  514   2.612   3.588   3.737
   39TCM    cl1  515   2.482   3.640   3.849
   39TCM    cl2  516   2.608   3.409   3.719
   39TCM     h1  517   2.598   3.634   3.639
   39TCM    cl3  518   2.772   3.636   3.804
   40TCM     c1  519   0.169   0.846   2.162
   40TCM    cl1  520   0.054   0.821   2.297
   40TCM    cl2  521   0.148   0.716   2.041
   40TCM     h1  522   0.151   0.943   2.115
   40TCM    cl3  523   0.337   0.840   2.226
   41TCM     c1  524   4.717   1.702   1.791
   41TCM    cl1  525   4.752   1.655   1.961
   41TCM    cl2  526   4.555   1.780   1.784
   41TCM     h1  527   4.792   1.773   1.756
   41TCM    cl3  528   4.717   1.557   1.687
   42TCM     c1  529   0.983   3.485   2.024
   42TCM    cl1  530   0.916   3.623   1.930
   42TCM    cl2  531   0.863   3.433   2.147
   42TCM     h1  532   1.004   3.402   1.957
   42TCM    cl3  533   1.133   3.536   2.107
   43TCM     c1  534   3.710   1.194   1.904
   43TCM    cl1  535   3.606   1.049   1.892
   43TCM    cl2  536   3.704   1.260   2.071
   43TCM     h1  537   3.813   1.167   1.879
   43TCM    cl3  538   3.651   1.319   1.788
   44TCM     c1  539   0.670   2.048   1.800
   44TCM    cl1  540   0.709   2.223   1.801
   44TCM    cl2  541   0.568   2.011   1.657
   44TCM     h1  542   0.763   1.990   1.795
   44TCM    cl3  543   0.580   2.004   1.949
   45TCM     c1  544   1.967   3.439   1.617
   45TCM    cl1  545   1.965   3.586   1.719
   45TCM    cl2  546   1.801   3.399   1.563
   45TCM     h1  547   2.031   3.455   1.530
   45TCM    cl3  548   2.032   3.302   1.714
   46TCM     c1  549   0.774   4.272   0.775
   46TCM    cl1  550   0.710   4.106   0.799
   46TCM    cl2  551   0.951   4.263   0.745
   46TCM     h1  552   0.725   4.319   0.689
   46TCM    cl3  553   0.744   4.370   0.923
   47TCM     c1  554   0.286   0.965   4.640
   47TCM    cl1  555   0.164   1.097   4.631
   47TCM    cl2  556   0.413   1.013   4.757
   47TCM     h1  557   0.238   0.873   4.673
   47TCM    cl3  558   0.358   0.941   4.478
   48TCM     c1  559   1.205   3.692   4.349
   48TCM    cl1  560   1.237   3.867   4.376
   48TCM    cl2  561   1.231   3.603   4.503
   48TCM     h1  562   1.102   3.678   4.315
   48TCM    cl3  563   1.319   3.630   4.225
   49TCM     c1  564   0.418   0.504   4.496
   49TCM    cl1  565   0.536   0.461   4.624
   49TCM    cl2  566   0.496   0.607   4.372
   49TCM     h1  567   0.380   0.413   4.449
   49TCM    cl3  568   0.281   0.594   4.569
   50TCM     c1  569   0.967   4.105   1.920
   50TCM    cl1  570   0.815   4.159   1.999
   50TCM    cl2  571   0.930   4.050   1.753
   50TCM     h1  572   1.039   4.187   1.917
   50TCM    cl3  573   1.036   3.968   2.013
   51TCM     c1  574   3.309   3.803   4.762
   51TCM    cl1  575   3.479   3.826   4.709
   51TCM    cl2  576   3.307   3.754   4.935
   51TCM     h1  577   3.254   3.896   4.750
   51TCM    cl3  578   3.232   3.674   4.663
   52TCM     c1  579   1.494   1.481   1.213
   52TCM    cl1  580   1.361   1.480   1.333
   52TCM    cl2  581   1.652   1.488   1.297
   52TCM     h1  582   1.489   1.390   1.152
   52TCM    cl3  583   1.476   1.624   1.106
   53TCM     c1  584   3.344   0.357   2.049
   53TCM    cl1  585   3.209   0.283   1.958
   53TCM    cl2  586   3.439   0.230   2.132
   53TCM     h1  587   3.409   0.412   1.980
   53TCM    cl3  588   3.279   0.471   2.172
   54TCM     c1  589   0.145   0.430   1.697
   54TCM    cl1  590   0.036   0.409   1.838
   54TCM    cl2  591   0.242   0.281   1.673
   54TCM     h1  592   0.086   0.451   1.608
   54TCM    cl3  593   0.257   0.567   1.728
   55TCM     c1  594   3.510   2.390   0.895
   55TCM    cl1  595   3.519   2.388   1.074
   55TCM    cl2  596   3.644   2.491   0.831
   55TCM     h1  597   3.519   2.288   0.856
   55TCM    cl3  598   3.353   2.461   0.844
   56TCM     c1  599   4.810   1.407   3.099
   56TCM    cl1  600   4.706   1.489   2.978
   56TCM    cl2  601   4.916   1.529   3.177
   56TCM     h1  602   4.747   1.359   3.174
   56TCM    cl3  603   4.911   1.284   3.016
   57TCM     c1  604   1.878   3.729   2.044
   57TCM    cl1  605   1.845   3.866   1.932
   57TCM    cl2  606   1.734   3.702   2.148
   57TCM     h1  607   1.899   3.639   1.986
   57TCM    cl3  608   2.020   3.768   2.146
   58TCM     c1  609   0.354   4.985   4.577
   58TCM    cl1  610   0.514   4.938   4.512
   58TCM    cl2  611   0.335   5.162   4.558
   58TCM     h1  612   0.275   4.933   4.522
   58TCM    cl3  613   0.344   4.944   4.751
   59TCM     c1  614   4.236   0.357   4.270
   59TCM    cl1  615   4.146   0.410   4.416
   59TCM    cl2  616   4.300   0.192   4.295
   59TCM     h1  617   4.168   0.357   4.184
   59TCM    cl3  618   4.371   0.471   4.239
   60TCM     c1  619   3.758   4.648   1.550
   60TCM    cl1  620   3.706   4.761   1.680
   60TCM    cl2  621   3.936   4.629   1.554
   60TCM     h1  622   3.711   4.551   1.565
   60TCM    cl3  623   3.708   4.714   1.391
   61TCM     c1  624   4.549   4.600   4.628
   61TCM    cl1  625   4.522   4.766   4.567
   61TCM    cl2  626   4.643   4.505   4.508
   61TCM     h1  627   4.605   4.604   4.722
   61TCM    cl3  628   4.390   4.521   4.655
   62TCM     c1  629   3.777   4.234   1.288
   62TCM    cl1  630   3.670   4.336   1.389
   62TCM    cl2  631   3.803   4.076   1.369
   62TCM     h1  632   3.731   4.218   1.190
   62TCM    cl3  633   3.936   4.316   1.266
   63TCM     c1  634   3.673   3.993   2.794
   63TCM    cl1  635   3.812   3.880   2.791
   63TCM    cl2  636   3.631   4.046   2.628
   63TCM     h1  637   3.587   3.943   2.839
   63TCM    cl3  638   3.716   4.137   2.893
   64TCM     c1  639   0.059   0.655   3.237
   64TCM    cl1  640  -0.014   0.625   3.076
   64TCM    cl2  641   0.152   0.510   3.289
   64TCM     h1  642   0.125   0.742   3.232
   64TCM    cl3  643  -0.072   0.685   3.356
   65TCM     c1  644   2.132   2.977   2.418
   65TCM    cl1  645   2.262   2.892   2.328
   65TCM    cl2  646   1.975   2.896   2.390
   65TCM     h1  647   2.155   2.975   2.525
   65TCM    cl3  648   2.123   3.148   2.362
   66TCM     c1  649   2.644   0.654   3.443
   66TCM    cl1  650   2.630   0.804   3.346
   66TCM    cl2  651   2.685   0.696   3.612
   66TCM     h1  652   2.550   0.599   3.440
   66TCM    cl3  653   2.776   0.554   3.375
   67TCM     c1  654   4.877   0.331   2.155
   67TCM    cl1  655   4.740   0.278   2.053
   67TCM    cl2  656   4.869   0.248   2.313
   67TCM     h1  657   4.971   0.306   2.106
   67TCM    cl3  658   4.868   0.508   2.181
   68TCM     c1  659   0.030   3.606   0.812
   68TCM    cl1  660   0.061   3.515   0.963
   68TCM    cl2  661   0.014   3.780   0.850
   68TCM     h1  662   0.113   3.591   0.742
   68TCM    cl3  663  -0.123   3.548   0.737
   69TCM     c1  664   1.293   3.349   0.602
   69TCM    cl1  665   1.326   3.177   0.563
   69TCM    cl2  666   1.227   3.361   0.769
   69TCM     h1  667   1.386   3.406   0.595
   69TCM    cl3  668   1.173   3.414   0.486
   70TCM     c1  669   4.679   4.757   1.924
   70TCM    cl1  670   4.533   4.680   1.994
   70TCM    cl2  671   4.734   4.888   2.034
   70TCM     h1  672   4.758   4.683   1.913
   70TCM    cl3  673   4.639   4.827   1.764
   71TCM     c1  674   2.713   4.270   3.843
   71TCM    cl1  675   2.562   4.363   3.871
   71TCM    cl2  676   2.850   4.349   3.927
   71TCM     h1  677   2.701   4.169   3.881
   71TCM    cl3  678   2.748   4.265   3.667
   72TCM     c1  679   4.768   1.523   4.981
   72TCM    cl1  680   4.649   1.463   5.101
   72TCM    cl2  681   4.738   1.442   4.824
   72TCM     h1  682   4.757   1.631   4.969
   72TCM    cl3  683   4.934   1.484   5.037
   73TCM     c1  684   2.631   4.702   4.071
   73TCM    cl1  685   2.706   4.571   4.169
   73TCM    cl2  686   2.456   4.668   4.052
   73TCM     h1  687   2.645   4.798   4.122
   73TCM    cl3  688   2.709   4.709   3.910
   74TCM     c1  689   3.637   4.195   1.813
   74TCM    cl1  690   3.783   4.127   1.892
   74TCM    cl2  691   3.594   4.094   1.671
   74TCM     h1  692   3.554   4.196   1.883
   74TCM    cl3  693   3.673   4.363   1.760
   75TCM     c1  694   0.550   0.238   3.132
   75TCM    cl1  695   0.615   0.405   3.118
   75TCM    cl2  696   0.644   0.146   3.254
   75TCM     h1  697   0.445   0.242   3.163
   75TCM    cl3  698   0.563   0.155   2.973
   76TCM     c1  699   0.497   1.177   2.467
   76TCM    cl1  700   0.407   1.046   2.549
   76TCM    cl2  701   0.540   1.125   2.300
   76TCM     h1  702   0.435   1.267   2.462
   76TCM    cl3  703   0.648   1.213   2.558
   77TCM     c1  704   1.002   0.537   2.086
   77TCM    cl1  705   1.028   0.711   2.121
   77TCM    cl2  706   0.841   0.487   2.148
   77TCM     h1  707   1.007   0.520   1.978
   77TCM    cl3  708   1.128   0.439   2.167
   78TCM     c1  709   2.223   1.372   3.333
   78TCM    cl1  710   2.369   1.322   3.426
   78TCM    cl2  711   2.101   1.437   3.448
   78TCM     h1  712   2.250   1.450   3.261
   78TCM    cl3  713   2.156   1.230   3.248
   79TCM     c1  714   4.603   4.673   0.954
   79TCM    cl1  715   4.513   4.753   1.087
   79TCM    cl2  716   4.491   4.633   0.821
   79TCM     h1  717   4.681   4.740   0.918
   79TCM    cl3  718   4.679   4.522   1.015
   80TCM     c1  719   0.364   4.152   0.346
   80TCM    cl1  720   0.381   4.303   0.251
   80TCM    cl2  721   0.494   4.144   0.469
   80TCM     h1  722   0.266   4.151   0.395
   80TCM    cl3  723   0.375   4.010   0.236
   81TCM     c1  724   2.383   3.648   1.616
   81TCM    cl1  725   2.537   3.686   1.534
   81TCM    cl2  726   2.298   3.517   1.528
   81TCM     h1  727   2.404   3.616   1.719
   81TCM    cl3  728   2.279   3.794   1.621
   82TCM     c1  729   0.203   2.822   0.826
   82TCM    cl1  730   0.200   2.904   0.666
   82TCM    cl2  731   0.343   2.881   0.921
   82TCM     h1  732   0.110   2.843   0.879
   82TCM    cl3  733   0.221   2.646   0.800
   83TCM     c1  734   2.961   3.462   0.641
   83TCM    cl1  735   3.100   3.360   0.592
   83TCM    cl2  736   2.948   3.462   0.820
   83TCM     h1  737   2.976   3.564   0.605
   83TCM    cl3  738   2.809   3.396   0.572
   84TCM     c1  739   2.882   3.387   4.420
   84TCM    cl1  740   2.944   3.327   4.263
   84TCM    cl2  741   2.718   3.321   4.448
   84TCM     h1  742   2.949   3.354   4.500
   84TCM    cl3  743   2.875   3.566   4.417
   85TCM     c1  744   0.924   1.093   1.722
   85TCM    cl1  745   1.026   0.963   1.792
   85TCM    cl2  746   0.882   1.212   1.848
   85TCM     h1  747   0.979   1.142   1.641
   85TCM    cl3  748   0.774   1.020   1.657
   86TCM     c1  749   1.578   2.475   4.744
   86TCM    cl1  750   1.741   2.456   4.671
   86TCM    cl2  751   1.589   2.456   4.922
   86TCM     h1  752   1.538   2.574   4.720
   86TCM    cl3  753   1.468   2.349   4.678
   87TCM     c1  754   1.908   3.966   4.250
   87TCM    cl1  755   1.757   3.898   4.179
   87TCM    cl2  756   1.878   4.013   4.420
   87TCM     h1  757   1.987   3.891   4.246
   87TCM    cl3  758   1.958   4.111   4.157
   88TCM     c1  759   0.655   0.122   4.840
   88TCM    cl1  760   0.777   0.083   4.714
   88TCM    cl2  761   0.702   0.274   4.923
   88TCM     h1  762   0.557   0.134   4.794
   88TCM    cl3  763   0.650  -0.011   4.961
   89TCM     c1  764   0.851   0.360   2.851
   89TCM    cl1  765   0.899   0.532   2.858
   89TCM    cl2  766   0.952   0.264   2.965
   89TCM     h1  767   0.746   0.351   2.879
   89TCM    cl3  768   0.874   0.296   2.685
   90TCM     c1  769   2.108   0.057   3.676
   90TCM    cl1  770   1.933   0.020   3.668
   90TCM    cl2  771   2.183   0.027   3.515
   90TCM     h1  772   2.122   0.161   3.703
   90TCM    cl3  773   2.185  -0.049   3.799
   91TCM     c1  774   3.211   4.359   4.950
   91TCM    cl1  775   3.231   4.537   4.940
   91TCM    cl2  776   3.096   4.320   5.082
   91TCM     h1  777   3.173   4.321   4.855
   91TCM    cl3  778   3.369   4.282   4.985
   92TCM     c1  779   1.672   4.940   3.445
   92TCM    cl1  780   1.583   4.899   3.595
   92TCM    cl2  781   1.554   4.979   3.316
   92TCM     h1  782   1.737   5.027   3.463
   92TCM    cl3  783   1.773   4.801   3.394
   93TCM     c1  784   0.862   0.671   3.840
   93TCM    cl1  785   0.782   0.585   3.705
   93TCM    cl2  786   0.770   0.820   3.879
   93TCM     h1  787   0.865   0.606   3.928
   93TCM    cl3  788   1.029   0.715   3.792
   94TCM     c1  789   2.062   0.127   2.197
   94TCM    cl1  790   2.240   0.151   2.186
   94TCM    cl2  791   1.996   0.228   2.330
   94TCM     h1  792   2.016   0.157   2.102
   94TCM    cl3  793   2.028  -0.046   2.229
   95TCM     c1  794   0.981   1.155   2.270
   95TCM    cl1  795   0.863   1.277   2.214
   95TCM    cl2  796   1.070   1.087   2.130
   95TCM     h1  797   1.051   1.201   2.339
   95TCM    cl3  798   0.895   1.021   2.354
   96TCM     c1  799   1.471   1.714   4.860
   96TCM    cl1  800   1.575   1.726   5.006
   96TCM    cl2  801   1.394   1.553   4.856
   96TCM     h1  802   1.395   1.792   4.863
   96TCM    cl3  803   1.573   1.735   4.713
   97TCM     c1  804   1.499   2.803   3.986
   97TCM    cl1  805   1.650   2.900   3.986
   97TCM    cl2  806   1.496   2.700   4.132
   97TCM     h1  807   1.412   2.869   3.986
   97TCM    cl3  808   1.495   2.698   3.840
   98TCM     c1  809   2.870   4.749   1.101
   98TCM    cl1  810   3.035   4.681   1.086
   98TCM    cl2  811   2.837   4.790   1.272
   98TCM     h1  812   2.863   4.839   1.039
   98TCM    cl3  813   2.751   4.627   1.045
   99TCM     c1  814   4.289   1.556   2.778
   99TCM    cl1  815   4.125   1.509   2.834
   99TCM    cl2  816   4.399   1.415   2.796
   99TCM     h1  817   4.285   1.587   2.673
   99TCM    cl3  818   4.348   1.691   2.880
  100TCM     c1  819   4.498   0.017   3.194
  100TCM    cl1  820   4.588  -0.052   3.333
  100TCM    cl2  821   4.486   0.195   3.216
  100TCM     h1  822   4.551  -0.005   3.101
  100TCM    cl3  823   4.334  -0.053   3.188
  101TCM     c1  824   3.872   0.065   2.780
  101TCM    cl1  825   3.838  -0.057   2.653
  101TCM    cl2  826   3.876   0.227   2.703
  101TCM     h1  827   3.793   0.063   2.855
  101TCM    cl3  828   4.030   0.030   2.857
  102TCM     c1  829   1.912   0.086   3.072
  102TCM    cl1  830   1.904   0.247   2.994
  102TCM    cl2  831   1.763  -0.005   3.031
  102TCM     h1  832   2.000   0.031   3.035
  102TCM    cl3  833   1.923   0.105   3.250
  103TCM     c1  834   0.304   4.396   3.246
  103TCM    cl1  835   0.341   4.486   3.397
  103TCM    cl2  836   0.180   4.487   3.153
  103TCM     h1  837   0.394   4.386   3.186
  103TCM    cl3  838   0.241   4.233   3.287
  104TCM     c1  839   0.165   1.679   4.510
  104TCM    cl1  840   0.106   1.755   4.661
  104TCM    cl2  841   0.190   1.503   4.539
  104TCM     h1  842   0.091   1.693   4.430
  104TCM    cl3  843   0.321   1.754   4.462
  105TCM     c1  844   1.043   4.874   4.999
  105TCM    cl1  845   0.942   4.793   4.875
  105TCM    cl2  846   1.059   5.048   4.960
  105TCM     h1  847   0.997   4.862   5.098
  105TCM    cl3  848   1.206   4.799   4.999
  106TCM     c1  849   0.794   2.123   0.782
  106TCM    cl1  850   0.931   2.077   0.889
  106TCM    cl2  851   0.828   2.285   0.711
  106TCM     h1  852   0.782   2.050   0.702
  106TCM    cl3  853   0.642   2.131   0.878
  107TCM     c1  854   4.643   1.364   2.160
  107TCM    cl1  855   4.642   1.228   2.043
  107TCM    cl2  856   4.647   1.299   2.328
  107TCM     h1  857   4.731   1.426   2.143
  107TCM    cl3  858   4.494   1.461   2.138
  108TCM     c1  859   2.595   0.783   2.412
  108TCM    cl1  860   2.539   0.653   2.523
  108TCM    cl2  861   2.470   0.812   2.287
  108TCM     h1  862   2.612   0.874   2.469
  108TCM    cl3  863   2.747   0.732   2.332
  109TCM     c1  864   3.004   0.253   2.392
  109TCM    cl1  865   2.970   0.180   2.231
  109TCM    cl2  866   2.965   0.428   2.388
  109TCM     h1  867   2.943   0.204   2.468
  109TCM    cl3  868   3.178   0.234   2.432
  110TCM     c1  869   2.141   4.464   0.770
  110TCM    cl1  870   1.968   4.491   0.731
  110TCM    cl2  871   2.232   4.618   0.752
  110TCM     h1  872   2.151   4.427   0.873
  110TCM    cl3  873   2.209   4.343   0.656
  111TCM     c1  874   0.356   3.280   3.782
  111TCM    cl1  875   0.347   3.413   3.901
  111TCM    cl2  876   0.528   3.254   3.734
  111TCM     h1  877   0.317   3.188   3.826
  111TCM    cl3  878   0.260   3.323   3.637
  112TCM     c1  879   2.415   4.930   1.665
  112TCM    cl1  880   2.369   5.081   1.752
  112TCM    cl2  881   2.537   4.968   1.540
  112TCM     h1  882   2.456   4.858   1.736
  112TCM    cl3  883   2.269   4.860   1.587
  113TCM     c1  884   2.443   4.772   3.548
  113TCM    cl1  885   2.378   4.731   3.386
  113TCM    cl2  886   2.616   4.816   3.531
  113TCM     h1  887   2.387   4.856   3.590
  113TCM    cl3  888   2.429   4.630   3.657
  114TCM     c1  889   3.364   3.298   4.431
  114TCM    cl1  890   3.315   3.270   4.261
  114TCM    cl2  891   3.440   3.150   4.496
  114TCM     h1  892   3.435   3.381   4.437
  114TCM    cl3  893   3.219   3.337   4.530
  115TCM     c1  894   1.411   4.831   4.645
  115TCM    cl1  895   1.260   4.927   4.661
  115TCM    cl2  896   1.541   4.936   4.579
  115TCM     h1  897   1.441   4.793   4.742
  115TCM    cl3  898   1.384   4.693   4.533
  116TCM     c1  899   3.326   4.027   2.173
  116TCM    cl1  900   3.434   3.980   2.037
  116TCM    cl2  901   3.194   3.907   2.190
  116TCM     h1  902   3.384   4.032   2.265
  116TCM    cl3  903   3.254   4.187   2.137
  117TCM     c1  904   4.990   2.585   1.790
  117TCM    cl1  905   4.993   2.418   1.856
  117TCM    cl2  906   5.157   2.632   1.742
  117TCM     h1  907   4.924   2.589   1.704
  117TCM    cl3  908   4.932   2.699   1.916
  118TCM     c1  909   1.555   0.717   3.329
  118TCM    cl1  910   1.405   0.621   3.351
  118TCM    cl2  911   1.605   0.711   3.157
  118TCM     h1  912   1.537   0.821   3.358
  118TCM    cl3  913   1.685   0.649   3.432
  119TCM     c1  914   1.543   4.527   3.376
  119TCM    cl1  915   1.509   4.364   3.308
  119TCM    cl2  916   1.542   4.519   3.555
  119TCM     h1  917   1.641   4.561   3.341
  119TCM    cl3  918   1.416   4.642   3.321
  120TCM     c1  919   0.957   3.121   3.376
  120TCM    cl1  920   0.862   3.151   3.525
  120TCM    cl2  921   0.849   3.057   3.247
  120TCM     h1  922   1.002   3.215   3.342
  120TCM    cl3  923   1.085   3.001   3.411
  121TCM     c1  924   4.777   2.043   2.151
  121TCM    cl1  925   4.925   1.942   2.144
  121TCM    cl2  926   4.690   2.034   1.994
  121TCM     h1  927   4.711   2.006   2.231
  121TCM    cl3  928   4.821   2.214   2.182
  122TCM     c1  929   2.183   1.340   1.678
  122TCM    cl1  930   2.086   1.328   1.528
  122TCM    cl2  931   2.077   1.384   1.815
  122TCM     h1  932   2.232   1.245   1.698
  122TCM    cl3  933   2.306   1.470   1.657
  123TCM     c1  934   1.189   4.971   3.353
  123TCM    cl1  935   1.111   4.833   3.438
  123TCM    cl2  936   1.239   5.094   3.473
  123TCM     h1  937   1.276   4.935   3.297
  123TCM    cl3  938   1.071   5.044   3.239
  124TCM     c1  939   4.421   3.915   2.182
  124TCM    cl1  940   4.363   3.751   2.224
  124TCM    cl2  941   4.594   3.905   2.134
  124TCM     h1  942   4.362   3.955   2.099
  124TCM    cl3  943   4.405   4.023   2.324
  125TCM     c1  944   4.424   0.950   3.885
  125TCM    cl1  945   4.599   0.910   3.884
  125TCM    cl2  946   4.341   0.851   4.009
  125TCM     h1  947   4.411   1.056   3.908
  125TCM    cl3  948   4.355   0.914   3.723
  126TCM     c1  949   2.708   4.867   2.619
  126TCM    cl1  950   2.612   4.938   2.754
  126TCM    cl2  951   2.709   4.981   2.481
  126TCM     h1  952   2.810   4.849   2.653
  126TCM    cl3  953   2.633   4.711   2.569
  127TCM     c1  954   4.807   4.000   3.065
  127TCM    cl1  955   4.786   4.084   2.908
  127TCM    cl2  956   4.922   4.094   3.166
  127TCM     h1  957   4.711   3.992   3.116
  127TCM    cl3  958   4.874   3.836   3.036
  128TCM     c1  959   0.356   1.901   0.317
  128TCM    cl1  960   0.456   1.833   0.450
  128TCM    cl2  961   0.305   1.770   0.207
  128TCM     h1  962   0.268   1.950   0.360
  128TCM    cl3  963   0.451   2.022   0.225
  129TCM     c1  964   4.136   0.865   3.102
  129TCM    cl1  965   4.047   0.960   2.978
  129TCM    cl2  966   4.257   0.760   3.022
  129TCM     h1  967   4.187   0.933   3.171
  129TCM    cl3  968   4.021   0.762   3.194
  130TCM     c1  969   1.314   2.194   2.787
  130TCM    cl1  970   1.144   2.228   2.743
  130TCM    cl2  971   1.422   2.300   2.690
  130TCM     h1  972   1.329   2.214   2.894
  130TCM    cl3  973   1.353   2.023   2.751
  131TCM     c1  974   0.208   2.852   0.076
  131TCM    cl1  975   0.169   2.680   0.040
  131TCM    cl2  976   0.263   2.865   0.246
  131TCM     h1  977   0.286   2.887   0.009
  131TCM    cl3  978   0.059   2.950   0.054
  132TCM     c1  979   0.634   4.500   4.744
  132TCM    cl1  980   0.623   4.679   4.735
  132TCM    cl2  981   0.682   4.453   4.910
  132TCM     h1  982   0.538   4.456   4.719
  132TCM    cl3  983   0.759   4.442   4.629
  133TCM     c1  984   4.728   4.320   4.958
  133TCM    cl1  985   4.716   4.225   5.110
  133TCM    cl2  986   4.732   4.495   4.996
  133TCM     h1  987   4.819   4.292   4.905
  133TCM    cl3  988   4.586   4.286   4.854
  134TCM     c1  989   0.513   1.444   0.384
  134TCM    cl1  990   0.604   1.292   0.409
  134TCM    cl2  991   0.410   1.475   0.528
  134TCM     h1  992   0.582   1.527   0.371
  134TCM    cl3  993   0.408   1.427   0.239
  135TCM     c1  994   2.317   0.050   2.939
  135TCM    cl1  995   2.258   0.178   3.049
  135TCM    cl2  996   2.186   0.008   2.823
  135TCM     h1  997   2.405   0.085   2.884
  135TCM    cl3  998   2.360  -0.096   3.034
  136TCM     c1  999   0.317   1.259   3.033
  136TCM    cl1 1000   0.285   1.419   3.109
  136TCM    cl2 1001   0.252   1.259   2.865
  136TCM     h1 1002   0.424   1.241   3.030
  136TCM    cl3 1003   0.236   1.130   3.128
  137TCM     c1 1004   0.227   4.245   4.938
  137TCM    cl1 1005   0.306   4.395   4.880
  137TCM    cl2 1006   0.189   4.139   4.799
  137TCM     h1 1007   0.295   4.193   5.006
  137TCM    cl3 1008   0.076   4.287   5.025
  138TCM     c1 1009   4.286   1.178   2.040
  138TCM    cl1 1010   4.260   1.035   1.935
  138TCM    cl2 1011   4.319   1.125   2.208
  138TCM     h1 1012   4.371   1.236   2.003
  138TCM    cl3 1013   4.138   1.281   2.040
  139TCM     c1 1014   1.228   0.649   1.720
  139TCM    cl1 1015   1.302   0.592   1.874
  139TCM    cl2 1016   1.055   0.601   1.717
  139TCM     h1 1017   1.236   0.757   1.714
  139TCM    cl3 1018   1.312   0.573   1.582
  140TCM     c1 1019   4.874   0.269   3.434
  140TCM    cl1 1020   4.730   0.244   3.538
  140TCM    cl2 1021   4.824   0.339   3.276
  140TCM     h1 1022   4.945   0.335   3.483
  140TCM    cl3 1023   4.950   0.109   3.404
  141TCM     c1 1024   1.784   1.425   3.138
  141TCM    cl1 1025   1.654   1.546   3.165
  141TCM    cl2 1026   1.795   1.316   3.280
  141TCM     h1 1027   1.760   1.366   3.048
  141TCM    cl3 1028   1.941   1.508   3.115
  142TCM     c1 1029   2.159   3.625   3.551
  142TCM    cl1 1030   2.213   3.776   3.631
  142TCM    cl2 1031   2.241   3.484   3.627
  142TCM     h1 1032   2.051   3.614   3.561
  142TCM    cl3 1033   2.203   3.633   3.377
  143TCM     c1 1034   0.567   1.190   3.437
  143TCM    cl1 1035   0.567   1.080   3.296
  143TCM    cl2 1036   0.432   1.148   3.547
  143TCM     h1 1037   0.662   1.180   3.491
  143TCM    cl3 1038   0.548   1.359   3.381
  144TCM     c1 1039   0.525   4.440   1.773
  144TCM    cl1 1040   0.470   4.609   1.746
  144TCM    cl2 1041   0.519   4.404   1.949
  144TCM     h1 1042   0.460   4.371   1.719
  144TCM    cl3 1043   0.694   4.422   1.716
  145TCM     c1 1044   3.727   4.272   2.231
  145TCM    cl1 1045   3.705   4.097   2.259
  145TCM    cl2 1046   3.733   4.357   2.389
  145TCM     h1 1047   3.820   4.290   2.176
  145TCM    cl3 1048   3.588   4.333   2.136
  146TCM     c1 1049   0.421   2.265   3.231
  146TCM    cl1 1050   0.309   2.202   3.105
  146TCM    cl2 1051   0.588   2.269   3.168
  146TCM     h1 1052   0.390   2.366   3.259
  146TCM    cl3 1053   0.414   2.159   3.376
  147TCM     c1 1054   1.617   3.796   1.464
  147TCM    cl1 1055   1.646   3.669   1.341
  147TCM    cl2 1056   1.641   3.728   1.628
  147TCM     h1 1057   1.686   3.879   1.447
  147TCM    cl3 1058   1.448   3.854   1.449
  148TCM     c1 1059   1.273   1.480   2.348
  148TCM    cl1 1060   1.177   1.400   2.477
  148TCM    cl2 1061   1.235   1.403   2.190
  148TCM     h1 1062   1.248   1.586   2.345
  148TCM    cl3 1063   1.448   1.459   2.382
  149TCM     c1 1064   3.721   4.890   3.793
  149TCM    cl1 1065   3.829   4.872   3.651
  149TCM    cl2 1066   3.801   4.993   3.916
  149TCM     h1 1067   3.627   4.937   3.761
  149TCM    cl3 1068   3.687   4.728   3.863
  150TCM     c1 1069   4.998   4.379   4.524
  150TCM    cl1 1070   5.177   4.384   4.527
  150TCM    cl2 1071   4.937   4.408   4.690
  150TCM     h1 1072   4.960   4.457   4.457
  150TCM    cl3 1073   4.943   4.218   4.469
  151TCM     c1 1074   0.889   1.566   0.558
  151TCM    cl1 1075   0.762   1.692   0.557
  151TCM    cl2 1076   0.905   1.499   0.392
  151TCM     h1 1077   0.985   1.609   0.590
  151TCM    cl3 1078   0.842   1.434   0.671
  152TCM     c1 1079   2.636   2.794   4.985
  152TCM    cl1 1080   2.553   2.758   4.831
  152TCM    cl2 1081   2.740   2.655   5.028
  152TCM     h1 1082   2.697   2.884   4.974
  152TCM    cl3 1083   2.515   2.818   5.115
  153TCM     c1 1084   4.382   1.093   2.649
  153TCM    cl1 1085   4.208   1.139   2.636
  153TCM    cl2 1086   4.421   0.969   2.526
  153TCM     h1 1087   4.444   1.182   2.633
  153TCM    cl3 1088   4.414   1.027   2.813
  154TCM     c1 1089   3.418   4.990   1.624
  154TCM    cl1 1090   3.480   5.138   1.705
  154TCM    cl2 1091   3.469   4.989   1.452
  154TCM     h1 1092   3.456   4.901   1.675
  154TCM    cl3 1093   3.239   4.991   1.632
  155TCM     c1 1094   4.072   2.810   1.220
  155TCM    cl1 1095   4.239   2.750   1.196
  155TCM    cl2 1096   4.004   2.741   1.371
  155TCM     h1 1097   4.073   2.919   1.226
  155TCM    cl3 1098   3.969   2.759   1.081
  156TCM     c1 1099   2.882   4.288   2.505
  156TCM    cl1 1100   2.930   4.320   2.675
  156TCM    cl2 1101   2.996   4.169   2.434
  156TCM     h1 1102   2.780   4.249   2.502
  156TCM    cl3 1103   2.892   4.442   2.413
  157TCM     c1 1104   4.130   0.684   2.511
  157TCM    cl1 1105   4.120   0.786   2.658
  157TCM    cl2 1106   4.298   0.626   2.490
  157TCM     h1 1107   4.062   0.599   2.522
  157TCM    cl3 1108   4.082   0.780   2.367
  158TCM     c1 1109   0.751   1.964   4.553
  158TCM    cl1 1110   0.767   1.788   4.523
  158TCM    cl2 1111   0.890   2.020   4.653
  158TCM     h1 1112   0.751   2.018   4.458
  158TCM    cl3 1113   0.598   1.996   4.641
  159TCM     c1 1114   2.305   4.335   4.330
  159TCM    cl1 1115   2.473   4.369   4.385
  159TCM    cl2 1116   2.254   4.174   4.391
  159TCM     h1 1117   2.238   4.412   4.369
  159TCM    cl3 1118   2.300   4.336   4.151
  160TCM     c1 1119   2.347   4.896   0.047
  160TCM    cl1 1120   2.403   5.060   0.095
  160TCM    cl2 1121   2.488   4.795  -0.000
  160TCM     h1 1122   2.296   4.849   0.132
  160TCM    cl3 1123   2.235   4.910  -0.092
  161TCM     c1 1124   1.796   1.042   2.892
  161TCM    cl1 1125   1.920   1.144   2.972
  161TCM    cl2 1126   1.776   1.095   2.723
  161TCM     h1 1127   1.827   0.937   2.895
  161TCM    cl3 1128   1.639   1.062   2.978
  162TCM     c1 1129   1.728   2.066   4.956
  162TCM    cl1 1130   1.710   2.155   5.112
  162TCM    cl2 1131   1.851   2.148   4.855
  162TCM     h1 1132   1.759   1.963   4.976
  162TCM    cl3 1133   1.571   2.065   4.870
  163TCM     c1 1134   2.080   1.715   1.469
  163TCM    cl1 1135   1.964   1.665   1.596
  163TCM    cl2 1136   2.171   1.859   1.527
  163TCM     h1 1137   2.150   1.633   1.448
  163TCM    cl3 1138   1.990   1.756   1.319
  164TCM     c1 1139   2.561   2.547   0.543
  164TCM    cl1 1140   2.685   2.419   0.556
  164TCM    cl2 1141   2.626   2.685   0.447
  164TCM     h1 1142   2.472   2.507   0.492
  164TCM    cl3 1143   2.515   2.602   0.707
  165TCM     c1 1144   2.441   1.862   1.251
  165TCM    cl1 1145   2.584   1.868   1.144
  165TCM    cl2 1146   2.427   1.698   1.324
  165TCM     h1 1147   2.451   1.937   1.330
  165TCM    cl3 1148   2.293   1.896   1.155
  166TCM     c1 1149   4.375   4.457   2.251
  166TCM    cl1 1150   4.409   4.338   2.121
  166TCM    cl2 1151   4.419   4.387   2.410
  166TCM     h1 1152   4.434   4.548   2.233
  166TCM    cl3 1153   4.200   4.498   2.249
  167TCM     c1 1154   3.068   0.255   4.514
  167TCM    cl1 1155   3.191   0.313   4.631
  167TCM    cl2 1156   2.973   0.396   4.455
  167TCM     h1 1157   3.118   0.207   4.429
  167TCM    cl3 1158   2.959   0.138   4.594
  168TCM     c1 1159   3.511   3.742   3.837
  168TCM    cl1 1160   3.521   3.838   3.686
  168TCM    cl2 1161   3.593   3.830   3.970
  168TCM     h1 1162   3.406   3.726   3.863
  168TCM    cl3 1163   3.591   3.583   3.813
  169TCM     c1 1164   1.901   1.185   2.367
  169TCM    cl1 1165   1.910   1.007   2.385
  169TCM    cl2 1166   1.998   1.264   2.496
  169TCM     h1 1167   1.940   1.213   2.269
  169TCM    cl3 1168   1.730   1.238   2.381
  170TCM     c1 1169   2.661   0.185   4.825
  170TCM    cl1 1170   2.735   0.046   4.912
  170TCM    cl2 1171   2.644   0.322   4.939
  170TCM     h1 1172   2.725   0.214   4.742
  170TCM    cl3 1173   2.500   0.137   4.764
  171TCM     c1 1174   1.923   2.268   1.739
  171TCM    cl1 1175   2.069   2.165   1.720
  171TCM    cl2 1176   1.888   2.353   1.585
  171TCM     h1 1177   1.837   2.205   1.766
  171TCM    cl3 1178   1.952   2.388   1.869
  172TCM     c1 1179   0.957   4.882   1.284
  172TCM    cl1 1180   0.880   5.040   1.249
  172TCM    cl2 1181   1.114   4.870   1.197
  172TCM     h1 1182   0.974   4.872   1.391
  172TCM    cl3 1183   0.848   4.750   1.228
  173TCM     c1 1184   3.340   2.280   4.320
  173TCM    cl1 1185   3.501   2.227   4.264
  173TCM    cl2 1186   3.221   2.148   4.297
  173TCM     h1 1187   3.344   2.308   4.426
  173TCM    cl3 1188   3.287   2.422   4.223
  174TCM     c1 1189   1.850   4.691   4.790
  174TCM    cl1 1190   1.678   4.642   4.781
  174TCM    cl2 1191   1.872   4.803   4.929
  174TCM     h1 1192   1.913   4.603   4.804
  174TCM    cl3 1193   1.898   4.775   4.639
  175TCM     c1 1194   3.139   3.638   0.269
  175TCM    cl1 1195   3.241   3.491   0.255
  175TCM    cl2 1196   3.155   3.707   0.434
  175TCM     h1 1197   3.171   3.712   0.194
  175TCM    cl3 1198   2.968   3.592   0.241
  176TCM     c1 1199   4.729   0.935   0.668
  176TCM    cl1 1200   4.834   0.909   0.811
  176TCM    cl2 1201   4.566   0.988   0.722
  176TCM     h1 1202   4.773   1.012   0.604
  176TCM    cl3 1203   4.715   0.782   0.576
  177TCM     c1 1204   4.233   1.540   1.777
  177TCM    cl1 1205   4.246   1.653   1.639
  177TCM    cl2 1206   4.246   1.631   1.930
  177TCM     h1 1207   4.137   1.488   1.773
  177TCM    cl3 1208   4.367   1.420   1.769
  178TCM     c1 1209   3.914   1.450   4.940
  178TCM    cl1 1210   3.939   1.285   4.872
  178TCM    cl2 1211   3.738   1.483   4.948
  178TCM     h1 1212   3.957   1.455   5.040
  178TCM    cl3 1213   3.993   1.572   4.835
  179TCM     c1 1214   3.043   2.895   4.668
  179TCM    cl1 1215   2.996   3.066   4.641
  179TCM    cl2 1216   2.978   2.838   4.824
  179TCM     h1 1217   3.004   2.833   4.587
  179TCM    cl3 1218   3.222   2.884   4.670
  180TCM     c1 1219   1.030   0.398   3.372
  180TCM    cl1 1220   1.114   0.462   3.517
  180TCM    cl2 1221   1.073   0.496   3.229
  180TCM     h1 1222   1.059   0.294   3.355
  180TCM    cl3 1223   0.853   0.407   3.400
  181TCM     c1 1224   3.251   0.077   1.175
  181TCM    cl1 1225   3.094   0.039   1.252
  181TCM    cl2 1226   3.223   0.185   1.035
  181TCM     h1 1227   3.316   0.126   1.247
  181TCM    cl3 1228   3.328  -0.075   1.118
  182TCM     c1 1229   1.168   0.238   3.902
  182TCM    cl1 1230   1.319   0.307   3.833
  182TCM    cl2 1231   1.032   0.351   3.875
  182TCM     h1 1232   1.147   0.142   3.853
  182TCM    cl3 1233   1.191   0.211   4.078
  183TCM     c1 1234   2.184   0.078   4.233
  183TCM    cl1 1235   2.275   0.117   4.382
  183TCM    cl2 1236   2.195  -0.098   4.200
  183TCM     h1 1237   2.079   0.107   4.245
  183TCM    cl3 1238   2.254   0.169   4.094
  184TCM     c1 1239   3.229   0.523   0.030
  184TCM    cl1 1240   3.244   0.460   0.198
  184TCM    cl2 1241   3.359   0.453  -0.072
  184TCM     h1 1242   3.132   0.496  -0.010
  184TCM    cl3 1243   3.246   0.702   0.033
  185TCM     c1 1244   1.569   1.885   2.387
  185TCM    cl1 1245   1.664   1.953   2.524
  185TCM    cl2 1246   1.526   2.017   2.274
  185TCM     h1 1247   1.628   1.810   2.335
  185TCM    cl3 1248   1.418   1.811   2.451
  186TCM     c1 1249   4.860   3.908   4.650
  186TCM    cl1 1250   4.846   4.038   4.773
  186TCM    cl2 1251   4.754   3.772   4.699
  186TCM     h1 1252   4.829   3.946   4.553
  186TCM    cl3 1253   5.030   3.851   4.642
  187TCM     c1 1254   0.619   0.739   2.535
  187TCM    cl1 1255   0.631   0.577   2.610
  187TCM    cl2 1256   0.668   0.730   2.363
  187TCM     h1 1257   0.516   0.775   2.542
  187TCM    cl3 1258   0.727   0.852   2.624
  188TCM     c1 1259   4.634   0.890   3.335
  188TCM    cl1 1260   4.706   1.035   3.257
  188TCM    cl2 1261   4.456   0.893   3.312
  188TCM     h1 1262   4.675   0.799   3.289
  188TCM    cl3 1263   4.671   0.891   3.511
  189TCM     c1 1264   4.984   4.557   0.247
  189TCM    cl1 1265   4.962   4.416   0.357
  189TCM    cl2 1266   5.154   4.614   0.258
  189TCM     h1 1267   4.963   4.526   0.144
  189TCM    cl3 1268   4.873   4.688   0.296
  190TCM     c1 1269   0.639   3.181   0.074
  190TCM    cl1 1270   0.721   3.216  -0.082
  190TCM    cl2 1271   0.532   3.039   0.054
  190TCM     h1 1272   0.714   3.159   0.151
  190TCM    cl3 1273   0.541   3.323   0.122
  191TCM     c1 1274   1.002   2.350   4.451
  191TCM    cl1 1275   0.833   2.300   4.414
  191TCM    cl2 1276   1.112   2.212   4.422
  191TCM     h1 1277   1.030   2.434   4.387
  191TCM    cl3 1278   1.013   2.399   4.623
  192TCM     c1 1279   1.510   3.811   4.615
  192TCM    cl1 1280   1.545   3.701   4.752
  192TCM    cl2 1281   1.593   3.752   4.467
  192TCM     h1 1282   1.402   3.814   4.597
  192TCM    cl3 1283   1.569   3.976   4.654
  193TCM     c1 1284   0.477   3.077   0.503
  193TCM    cl1 1285   0.517   3.082   0.678
  193TCM    cl2 1286   0.627   3.048   0.409
  193TCM     h1 1287   0.406   2.996   0.484
  193TCM    cl3 1288   0.405   3.233   0.454
  194TCM     c1 1289   4.138   1.460   2.365
  194TCM    cl1 1290   4.148   1.620   2.285
  194TCM    cl2 1291   4.018   1.468   2.498
  194TCM     h1 1292   4.107   1.384   2.293
  194TCM    cl3 1293   4.298   1.418   2.434
  195TCM     c1 1294   1.833   0.233   3.973
  195TCM    cl1 1295   1.876   0.075   4.046
  195TCM    cl2 1296   1.980   0.304   3.898
  195TCM     h1 1297   1.756   0.219   3.896
  195TCM    cl3 1298   1.772   0.344   4.100
  196TCM     c1 1299   0.326   0.129   2.598
  196TCM    cl1 1300   0.307   0.004   2.725
  196TCM    cl2 1301   0.409   0.272   2.668
  196TCM     h1 1302   0.386   0.089   2.516
  196TCM    cl3 1303   0.165   0.178   2.536
  197TCM     c1 1304   1.737   4.316   3.879
  197TCM    cl1 1305   1.876   4.258   3.781
  197TCM    cl2 1306   1.799   4.409   4.020
  197TCM     h1 1307   1.673   4.380   3.818
  197TCM    cl3 1308   1.643   4.175   3.938
  198TCM     c1 1309   4.312   4.275   1.215
  198TCM    cl1 1310   4.257   4.146   1.102
  198TCM    cl2 1311   4.340   4.425   1.121
  198TCM     h1 1312   4.235   4.293   1.291
  198TCM    cl3 1313   4.464   4.223   1.294
  199TCM     c1 1314   0.976   2.531   0.346
  199TCM    cl1 1315   1.117   2.475   0.251
  199TCM    cl2 1316   0.845   2.408   0.337
  199TCM     h1 1317   1.005   2.545   0.451
  199TCM    cl3 1318   0.917   2.686   0.278
  200TCM     c1 1319   1.262   0.620   4.070
  200TCM    cl1 1320   1.415   0.540   4.119
  200TCM    cl2 1321   1.274   0.797   4.096
  200TCM     h1 1322   1.243   0.600   3.964
  200TCM    cl3 1323   1.126   0.557   4.168
  201TCM     c1 1324   1.447   1.445   0.703
  201TCM    cl1 1325   1.501   1.615   0.725
  201TCM    cl2 1326   1.495   1.349   0.848
  201TCM     h1 1327   1.338   1.442   0.692
  201TCM    cl3 1328   1.525   1.377   0.556
  202TCM     c1 1329   1.035   4.455   1.139
  202TCM    cl1 1330   1.067   4.281   1.108
  202TCM    cl2 1331   1.075   4.550   0.992
  202TCM     h1 1332   0.929   4.469   1.163
  202TCM    cl3 1333   1.136   4.511   1.276
  203TCM     c1 1334   0.140   2.356   2.264
  203TCM    cl1 1335   0.274   2.363   2.384
  203TCM    cl2 1336   0.175   2.229   2.142
  203TCM     h1 1337   0.046   2.334   2.315
  203TCM    cl3 1338   0.128   2.515   2.181
  204TCM     c1 1339   0.553   2.526   0.163
  204TCM    cl1 1340   0.466   2.498   0.010
  204TCM    cl2 1341   0.460   2.454   0.298
  204TCM     h1 1342   0.652   2.480   0.158
  204TCM    cl3 1343   0.570   2.703   0.191
  205TCM     c1 1344   3.517   4.597   3.145
  205TCM    cl1 1345   3.683   4.559   3.090
  205TCM    cl2 1346   3.403   4.471   3.087
  205TCM     h1 1347   3.515   4.600   3.254
  205TCM    cl3 1348   3.466   4.756   3.080
  206TCM     c1 1349   1.993   0.627   2.328
  206TCM    cl1 1350   1.881   0.632   2.468
  206TCM    cl2 1351   2.140   0.722   2.366
  206TCM     h1 1352   2.021   0.524   2.308
  206TCM    cl3 1353   1.913   0.697   2.183
  207TCM     c1 1354   0.520   4.501   4.266
  207TCM    cl1 1355   0.432   4.593   4.392
  207TCM    cl2 1356   0.432   4.515   4.110
  207TCM     h1 1357   0.621   4.542   4.254
  207TCM    cl3 1358   0.531   4.328   4.313
  208TCM     c1 1359   2.006   4.587   3.704
  208TCM    cl1 1360   2.109   4.596   3.851
  208TCM    cl2 1361   2.078   4.684   3.572
  208TCM     h1 1362   1.999   4.483   3.672
  208TCM    cl3 1363   1.842   4.649   3.740
  209TCM     c1 1364   0.946   0.077   0.846
  209TCM    cl1 1365   0.913  -0.094   0.887
  209TCM    cl2 1366   1.092   0.132   0.935
  209TCM     h1 1367   0.962   0.087   0.739
  209TCM    cl3 1368   0.806   0.179   0.894
  210TCM     c1 1369   2.399   3.054   0.857
  210TCM    cl1 1370   2.329   2.912   0.773
  210TCM    cl2 1371   2.369   3.040   1.033
  210TCM     h1 1372   2.507   3.059   0.838
  210TCM    cl3 1373   2.321   3.203   0.795
  211TCM     c1 1374   0.850   3.377   0.673
  211TCM    cl1 1375   0.683   3.411   0.618
  211TCM    cl2 1376   0.888   3.204   0.646
  211TCM     h1 1377   0.920   3.440   0.617
  211TCM    cl3 1378   0.862   3.415   0.848
  212TCM     c1 1379   3.847   1.844   2.247
  212TCM    cl1 1380   3.794   1.720   2.366
  212TCM    cl2 1381   3.872   2.001   2.330
  212TCM     h1 1382   3.940   1.812   2.200
  212TCM    cl3 1383   3.719   1.863   2.122
  213TCM     c1 1384   2.467   2.313   0.952
  213TCM    cl1 1385   2.331   2.261   0.847
  213TCM    cl2 1386   2.619   2.238   0.894
  213TCM     h1 1387   2.477   2.422   0.949
  213TCM    cl3 1388   2.435   2.260   1.121
  214TCM     c1 1389   2.485   3.306   4.141
  214TCM    cl1 1390   2.597   3.446   4.133
  214TCM    cl2 1391   2.379   3.306   3.996
  214TCM     h1 1392   2.543   3.213   4.144
  214TCM    cl3 1393   2.383   3.317   4.288
  215TCM     c1 1394   0.558   2.953   3.510
  215TCM    cl1 1395   0.665   2.849   3.610
  215TCM    cl2 1396   0.394   2.957   3.583
  215TCM     h1 1397   0.599   3.054   3.506
  215TCM    cl3 1398   0.546   2.886   3.344
  216TCM     c1 1399   1.273   2.634   2.798
  216TCM    cl1 1400   1.272   2.810   2.765
  216TCM    cl2 1401   1.114   2.585   2.864
  216TCM     h1 1402   1.294   2.579   2.706
  216TCM    cl3 1403   1.401   2.597   2.919
  217TCM     c1 1404   3.793   4.502   3.587
  217TCM    cl1 1405   3.920   4.410   3.500
  217TCM    cl2 1406   3.696   4.389   3.688
  217TCM     h1 1407   3.840   4.577   3.650
  217TCM    cl3 1408   3.685   4.581   3.468
  218TCM     c1 1409   0.002   3.241   0.274
  218TCM    cl1 1410  -0.076   3.366   0.376
  218TCM    cl2 1411   0.040   3.098   0.376
  218TCM     h1 1412  -0.066   3.211   0.194
  218TCM    cl3 1413   0.154   3.305   0.204
  219TCM     c1 1414   1.177   2.218   0.004
  219TCM    cl1 1415   1.199   2.153  -0.162
  219TCM    cl2 1416   1.332   2.213   0.093
  219TCM     h1 1417   1.142   2.322  -0.002
  219TCM    cl3 1418   1.055   2.119   0.091
  220TCM     c1 1419   0.379   1.661   2.677
  220TCM    cl1 1420   0.385   1.497   2.605
  220TCM    cl2 1421   0.497   1.767   2.593
  220TCM     h1 1422   0.278   1.703   2.666
  220TCM    cl3 1423   0.422   1.650   2.851
  221TCM     c1 1424   3.500   4.982   4.716
  221TCM    cl1 1425   3.354   4.996   4.613
  221TCM    cl2 1426   3.469   4.864   4.847
  221TCM     h1 1427   3.585   4.947   4.656
  221TCM    cl3 1428   3.538   5.142   4.787
  222TCM     c1 1429   1.471   2.317   1.839
  222TCM    cl1 1430   1.436   2.210   1.979
  222TCM    cl2 1431   1.546   2.221   1.707
  222TCM     h1 1432   1.378   2.363   1.804
  222TCM    cl3 1433   1.585   2.446   1.891
  223TCM     c1 1434   4.313   0.014   3.584
  223TCM    cl1 1435   4.168   0.083   3.666
  223TCM    cl2 1436   4.287  -0.161   3.555
  223TCM     h1 1437   4.328   0.065   3.488
  223TCM    cl3 1438   4.457   0.038   3.688
  224TCM     c1 1439   0.177   3.462   1.318
  224TCM    cl1 1440   0.296   3.596   1.307
  224TCM    cl2 1441   0.012   3.530   1.331
  224TCM     h1 1442   0.184   3.400   1.228
  224TCM    cl3 1443   0.212   3.363   1.463
  225TCM     c1 1444   0.105   1.278   0.541
  225TCM    cl1 1445   0.046   1.113   0.582
  225TCM    cl2 1446   0.044   1.394   0.664
  225TCM     h1 1447   0.215   1.278   0.542
  225TCM    cl3 1448   0.047   1.325   0.378
  226TCM     c1 1449   3.733   2.382   2.858
  226TCM    cl1 1450   3.839   2.520   2.904
  226TCM    cl2 1451   3.567   2.411   2.920
  226TCM     h1 1452   3.730   2.374   2.749
  226TCM    cl3 1453   3.797   2.230   2.929
  227TCM     c1 1454   0.220   4.655   2.649
  227TCM    cl1 1455   0.283   4.501   2.580
  227TCM    cl2 1456   0.091   4.619   2.769
  227TCM     h1 1457   0.301   4.709   2.697
  227TCM    cl3 1458   0.152   4.755   2.516
  228TCM     c1 1459   0.059   4.562   2.125
  228TCM    cl1 1460   0.037   4.734   2.169
  228TCM    cl2 1461   0.193   4.547   2.007
  228TCM     h1 1462   0.083   4.504   2.214
  228TCM    cl3 1463  -0.091   4.499   2.049
  229TCM     c1 1464   0.417   2.443   1.949
  229TCM    cl1 1465   0.355   2.323   1.832
  229TCM    cl2 1466   0.525   2.558   1.863
  229TCM     h1 1467   0.334   2.498   1.994
  229TCM    cl3 1468   0.510   2.359   2.078
  230TCM     c1 1469   0.399   3.779   2.542
  230TCM    cl1 1470   0.223   3.799   2.510
  230TCM    cl2 1471   0.452   3.617   2.486
  230TCM     h1 1472   0.455   3.856   2.488
  230TCM    cl3 1473   0.429   3.796   2.718
  231TCM     c1 1474   2.307   0.601   4.124
  231TCM    cl1 1475   2.368   0.479   4.240
  231TCM    cl2 1476   2.137   0.562   4.083
  231TCM     h1 1477   2.312   0.700   4.168
  231TCM    cl3 1478   2.407   0.595   3.975
  232TCM     c1 1479   1.693   1.863   1.914
  232TCM    cl1 1480   1.528   1.881   1.845
  232TCM    cl2 1481   1.684   1.767   2.066
  232TCM     h1 1482   1.757   1.811   1.842
  232TCM    cl3 1483   1.760   2.025   1.950
  233TCM     c1 1484   0.814   3.049   1.991
  233TCM    cl1 1485   0.900   3.070   2.147
  233TCM    cl2 1486   0.876   3.169   1.872
  233TCM     h1 1487   0.831   2.948   1.953
  233TCM    cl3 1488   0.638   3.075   2.016
  234TCM     c1 1489   4.730   3.739   2.635
  234TCM    cl1 1490   4.635   3.792   2.493
  234TCM    cl2 1491   4.631   3.757   2.783
  234TCM     h1 1492   4.758   3.633   2.622
  234TCM    cl3 1493   4.879   3.839   2.648
  235TCM     c1 1494   3.999   0.734   4.276
  235TCM    cl1 1495   4.152   0.805   4.336
  235TCM    cl2 1496   4.036   0.625   4.137
  235TCM     h1 1497   3.951   0.677   4.356
  235TCM    cl3 1498   3.890   0.865   4.221
  236TCM     c1 1499   0.094   2.863   4.522
  236TCM    cl1 1500   0.257   2.929   4.484
  236TCM    cl2 1501   0.081   2.833   4.699
  236TCM     h1 1502   0.018   2.935   4.492
  236TCM    cl3 1503   0.071   2.709   4.435
  237TCM     c1 1504   0.809   1.746   0.079
  237TCM    cl1 1505   0.938   1.786   0.196
  237TCM    cl2 1506   0.779   1.886  -0.029
  237TCM     h1 1507   0.839   1.659   0.020
  237TCM    cl3 1508   0.659   1.707   0.169
  238TCM     c1 1509   1.645   1.927   1.473
  238TCM    cl1 1510   1.617   1.759   1.528
  238TCM    cl2 1511   1.670   1.927   1.295
  238TCM     h1 1512   1.559   1.989   1.498
  238TCM    cl3 1513   1.792   1.990   1.555
  239TCM     c1 1514   2.392   4.292   3.542
  239TCM    cl1 1515   2.216   4.321   3.557
  239TCM    cl2 1516   2.452   4.367   3.391
  239TCM     h1 1517   2.444   4.335   3.628
  239TCM    cl3 1518   2.423   4.115   3.537
  240TCM     c1 1519   3.125   0.326   1.590
  240TCM    cl1 1520   3.075   0.497   1.611
  240TCM    cl2 1521   3.255   0.316   1.467
  240TCM     h1 1522   3.161   0.287   1.685
  240TCM    cl3 1523   2.984   0.230   1.535
  241TCM     c1 1524   2.324   4.648   4.675
  241TCM    cl1 1525   2.187   4.568   4.759
  241TCM    cl2 1526   2.291   4.658   4.499
  241TCM     h1 1527   2.338   4.749   4.715
  241TCM    cl3 1528   2.473   4.552   4.704
  242TCM     c1 1529   2.238   0.985   2.693
  242TCM    cl1 1530   2.282   1.016   2.522
  242TCM    cl2 1531   2.083   0.894   2.702
  242TCM     h1 1532   2.316   0.927   2.741
  242TCM    cl3 1533   2.220   1.142   2.779
  243TCM     c1 1534   0.450   1.644   4.793
  243TCM    cl1 1535   0.355   1.511   4.867
  243TCM    cl2 1536   0.625   1.609   4.811
  243TCM     h1 1537   0.426   1.652   4.687
  243TCM    cl3 1538   0.412   1.799   4.875
  244TCM     c1 1539   3.053   0.716   2.648
  244TCM    cl1 1540   2.879   0.680   2.666
  244TCM    cl2 1541   3.094   0.858   2.749
  244TCM     h1 1542   3.112   0.630   2.680
  244TCM    cl3 1543   3.090   0.752   2.476
  245TCM     c1 1544   3.527   0.486   1.308
  245TCM    cl1 1545   3.479   0.414   1.151
  245TCM    cl2 1546   3.643   0.620   1.280
  245TCM     h1 1547   3.438   0.524   1.359
  245TCM    cl3 1548   3.605   0.361   1.409
  246TCM     c1 1549   0.396   0.084   0.329
  246TCM    cl1 1550   0.473   0.198   0.214
  246TCM    cl2 1551   0.419   0.145   0.496
  246TCM     h1 1552   0.290   0.075   0.307
  246TCM    cl3 1553   0.475  -0.077   0.314
  247TCM     c1 1554   0.700   3.582   3.380
  247TCM    cl1 1555   0.785   3.740   3.383
  247TCM    cl2 1556   0.642   3.543   3.546
  247TCM     h1 1557   0.614   3.588   3.312
  247TCM    cl3 1558   0.812   3.454   3.324
  248TCM     c1 1559   0.232   4.072   4.230
  248TCM    cl1 1560   0.287   4.054   4.400
  248TCM    cl2 1561   0.193   4.245   4.197
  248TCM     h1 1562   0.310   4.038   4.162
  248TCM    cl3 1563   0.084   3.974   4.206
  249TCM     c1 1564   3.265   1.719   0.768
  249TCM    cl1 1565   3.127   1.789   0.678
  249TCM    cl2 1566   3.244   1.750   0.944
  249TCM     h1 1567   3.269   1.611   0.750
  249TCM    cl3 1568   3.418   1.794   0.712
  250TCM     c1 1569   3.273   4.291   3.824
  250TCM    cl1 1570   3.191   4.240   3.976
  250TCM    cl2 1571   3.149   4.309   3.695
  250TCM     h1 1572   3.323   4.386   3.841
  250TCM    cl3 1573   3.392   4.166   3.777
  251TCM     c1 1574   1.549   4.604   2.953
  251TCM    cl1 1575   1.547   4.425   2.939
  251TCM    cl2 1576   1.586   4.676   2.793
  251TCM     h1 1577   1.451   4.639   2.987
  251TCM    cl3 1578   1.674   4.654   3.070
  252TCM     c1 1579   2.382   0.322   2.570
  252TCM    cl1 1580   2.303   0.358   2.728
  252TCM    cl2 1581   2.291   0.403   2.439
  252TCM     h1 1582   2.485   0.359   2.572
  252TCM    cl3 1583   2.382   0.145   2.543
  253TCM     c1 1584   2.141   0.984   4.095
  253TCM    cl1 1585   2.050   0.905   4.228
  253TCM    cl2 1586   2.120   0.889   3.945
  253TCM     h1 1587   2.103   1.086   4.080
  253TCM    cl3 1588   2.315   0.989   4.136
  254TCM     c1 1589   2.935   2.466   0.255
  254TCM    cl1 1590   3.048   2.472   0.115
  254TCM    cl2 1591   3.000   2.567   0.388
  254TCM     h1 1592   2.838   2.505   0.225
  254TCM    cl3 1593   2.917   2.297   0.310
  255TCM     c1 1594   1.474   0.311   4.563
  255TCM    cl1 1595   1.361   0.423   4.479
  255TCM    cl2 1596   1.403   0.262   4.720
  255TCM     h1 1597   1.491   0.223   4.500
  255TCM    cl3 1598   1.631   0.394   4.592
  256TCM     c1 1599   0.630   1.594   1.598
  256TCM    cl1 1600   0.587   1.661   1.759
  256TCM    cl2 1601   0.733   1.449   1.620
  256TCM     h1 1602   0.539   1.567   1.544
  256TCM    cl3 1603   0.721   1.717   1.504
  257TCM     c1 1604   4.694   2.957   0.171
  257TCM    cl1 1605   4.542   2.871   0.129
  257TCM    cl2 1606   4.706   2.974   0.349
  257TCM     h1 1607   4.780   2.900   0.134
  257TCM    cl3 1608   4.691   3.120   0.096
  258TCM     c1 1609   0.472   1.579   3.663
  258TCM    cl1 1610   0.484   1.455   3.792
  258TCM    cl2 1611   0.500   1.742   3.735
  258TCM     h1 1612   0.548   1.560   3.587
  258TCM    cl3 1613   0.309   1.573   3.590
  259TCM     c1 1614   0.656   0.721   0.172
  259TCM    cl1 1615   0.574   0.796   0.031
  259TCM    cl2 1616   0.629   0.544   0.170
  259TCM     h1 1617   0.763   0.742   0.167
  259TCM    cl3 1618   0.587   0.790   0.323
  260TCM     c1 1619   3.275   4.639   4.565
  260TCM    cl1 1620   3.451   4.652   4.534
  260TCM    cl2 1621   3.231   4.467   4.590
  260TCM     h1 1622   3.249   4.697   4.655
  260TCM    cl3 1623   3.184   4.703   4.424
  261TCM     c1 1624   2.949   4.261   3.239
  261TCM    cl1 1625   3.075   4.140   3.280
  261TCM    cl2 1626   2.787   4.191   3.273
  261TCM     h1 1627   2.963   4.351   3.299
  261TCM    cl3 1628   2.960   4.303   3.065
  262TCM     c1 1629   2.615   4.275   2.937
  262TCM    cl1 1630   2.640   4.098   2.943
  262TCM    cl2 1631   2.468   4.317   3.031
  262TCM     h1 1632   2.702   4.326   2.980
  262TCM    cl3 1633   2.593   4.327   2.766
  263TCM     c1 1634   3.434   1.034   2.544
  263TCM    cl1 1635   3.446   0.856   2.564
  263TCM    cl2 1636   3.481   1.114   2.697
  263TCM     h1 1637   3.501   1.066   2.463
  263TCM    cl3 1638   3.265   1.079   2.503
  264TCM     c1 1639   4.265   1.821   0.173
  264TCM    cl1 1640   4.130   1.704   0.186
  264TCM    cl2 1641   4.264   1.893   0.009
  264TCM     h1 1642   4.253   1.900   0.248
  264TCM    cl3 1643   4.421   1.737   0.200
  265TCM     c1 1644   2.821   2.002   0.484
  265TCM    cl1 1645   2.972   1.956   0.399
  265TCM    cl2 1646   2.862   2.084   0.639
  265TCM     h1 1647   2.763   2.071   0.421
  265TCM    cl3 1648   2.725   1.855   0.518
  266TCM     c1 1649   4.492   4.571   1.532
  266TCM    cl1 1650   4.595   4.555   1.386
  266TCM    cl2 1651   4.563   4.472   1.664
  266TCM     h1 1652   4.488   4.675   1.563
  266TCM    cl3 1653   4.327   4.511   1.496
  267TCM     c1 1654   4.530   0.474   2.971
  267TCM    cl1 1655   4.649   0.351   2.919
  267TCM    cl2 1656   4.461   0.555   2.826
  267TCM     h1 1657   4.450   0.426   3.028
  267TCM    cl3 1658   4.612   0.597   3.074
  268TCM     c1 1659   3.284   1.984   0.189
  268TCM    cl1 1660   3.250   2.153   0.239
  268TCM    cl2 1661   3.323   1.886   0.334
  268TCM     h1 1662   3.196   1.942   0.139
  268TCM    cl3 1663   3.424   1.982   0.077
  269TCM     c1 1664   1.648   0.012   2.697
  269TCM    cl1 1665   1.661   0.190   2.717
  269TCM    cl2 1666   1.810  -0.055   2.657
  269TCM     h1 1667   1.612  -0.033   2.790
  269TCM    cl3 1668   1.533  -0.023   2.564
  270TCM     c1 1669   1.046   4.437   4.883
  270TCM    cl1 1670   1.024   4.260   4.869
  270TCM    cl2 1671   1.210   4.482   4.825
  270TCM     h1 1672   0.971   4.488   4.823
  270TCM    cl3 1673   1.029   4.485   5.055
  271TCM     c1 1674   0.050   0.131   4.360
  271TCM    cl1 1675   0.138  -0.001   4.277
  271TCM    cl2 1676  -0.014   0.070   4.516
  271TCM     h1 1677   0.117   0.215   4.378
  271TCM    cl3 1678  -0.086   0.187   4.256
  272TCM     c1 1679   4.295   4.600   0.001
  272TCM    cl1 1680   4.185   4.689   0.112
  272TCM    cl2 1681   4.343   4.445   0.075
  272TCM     h1 1682   4.243   4.581  -0.093
  272TCM    cl3 1683   4.441   4.700  -0.031
  273TCM     c1 1684   0.596   2.419   3.562
  273TCM    cl1 1685   0.528   2.538   3.446
  273TCM    cl2 1686   0.612   2.494   3.724
  273TCM     h1 1687   0.530   2.333   3.568
  273TCM    cl3 1688   0.758   2.366   3.505
  274TCM     c1 1689   4.074   1.215   1.551
  274TCM    cl1 1690   4.111   1.363   1.456
  274TCM    cl2 1691   4.005   1.263   1.709
  274TCM     h1 1692   4.001   1.154   1.496
  274TCM    cl3 1693   4.224   1.122   1.577
  275TCM     c1 1694   1.467   4.547   0.087
  275TCM    cl1 1695   1.594   4.660   0.146
  275TCM    cl2 1696   1.360   4.502   0.224
  275TCM     h1 1697   1.408   4.595   0.009
  275TCM    cl3 1698   1.544   4.399   0.021
  276TCM     c1 1699   2.692   1.314   3.243
  276TCM    cl1 1700   2.589   1.443   3.173
  276TCM    cl2 1701   2.857   1.328   3.175
  276TCM     h1 1702   2.697   1.325   3.352
  276TCM    cl3 1703   2.622   1.154   3.203
  277TCM     c1 1704   1.426   1.927   0.899
  277TCM    cl1 1705   1.382   1.978   0.732
  277TCM    cl2 1706   1.310   1.998   1.015
  277TCM     h1 1707   1.422   1.818   0.906
  277TCM    cl3 1708   1.592   1.984   0.937
  278TCM     c1 1709   1.163   0.690   0.274
  278TCM    cl1 1710   0.992   0.717   0.321
  278TCM    cl2 1711   1.267   0.700   0.420
  278TCM     h1 1712   1.173   0.591   0.229
  278TCM    cl3 1713   1.213   0.815   0.155
  279TCM     c1 1714   1.045   1.737   0.985
  279TCM    cl1 1715   1.072   1.633   1.129
  279TCM    cl2 1716   0.875   1.720   0.931
  279TCM     h1 1717   1.065   1.842   1.011
  279TCM    cl3 1718   1.154   1.685   0.853
  280TCM     c1 1719   0.292   0.986   0.170
  280TCM    cl1 1720   0.197   1.099   0.067
  280TCM    cl2 1721   0.203   0.830   0.185
  280TCM     h1 1722   0.389   0.968   0.124
  280TCM    cl3 1723   0.314   1.058   0.333
  281TCM     c1 1724   1.604   2.721   0.611
  281TCM    cl1 1725   1.721   2.604   0.541
  281TCM    cl2 1726   1.438   2.654   0.598
  281TCM     h1 1727   1.628   2.740   0.716
  281TCM    cl3 1728   1.613   2.876   0.519
  282TCM     c1 1729   0.988   1.062   4.914
  282TCM    cl1 1730   0.901   0.965   5.037
  282TCM    cl2 1731   1.103   0.957   4.826
  282TCM     h1 1732   0.916   1.104   4.843
  282TCM    cl3 1733   1.078   1.195   4.994
  283TCM     c1 1734   3.031   0.020   0.670
  283TCM    cl1 1735   3.086   0.190   0.679
  283TCM    cl2 1736   3.073  -0.065   0.822
  283TCM     h1 1737   2.923   0.017   0.656
  283TCM    cl3 1738   3.110  -0.062   0.531
  284TCM     c1 1739   1.793   3.396   0.815
  284TCM    cl1 1740   1.683   3.373   0.674
  284TCM    cl2 1741   1.704   3.479   0.947
  284TCM     h1 1742   1.827   3.298   0.850
  284TCM    cl3 1743   1.934   3.495   0.766
  285TCM     c1 1744   2.431   3.979   1.889
  285TCM    cl1 1745   2.543   3.839   1.881
  285TCM    cl2 1746   2.525   4.131   1.905
  285TCM     h1 1747   2.371   3.983   1.798
  285TCM    cl3 1748   2.323   3.959   2.031
  286TCM     c1 1749   4.663   0.280   3.967
  286TCM    cl1 1750   4.813   0.214   3.895
  286TCM    cl2 1751   4.703   0.424   4.066
  286TCM     h1 1752   4.594   0.307   3.887
  286TCM    cl3 1753   4.587   0.156   4.073
  287TCM     c1 1754   2.063   0.451   3.422
  287TCM    cl1 1755   2.216   0.361   3.399
  287TCM    cl2 1756   1.956   0.363   3.536
  287TCM     h1 1757   2.085   0.550   3.463
  287TCM    cl3 1758   1.979   0.469   3.264
  288TCM     c1 1759   0.738   4.663   2.074
  288TCM    cl1 1760   0.729   4.782   1.940
  288TCM    cl2 1761   0.779   4.749   2.226
  288TCM     h1 1762   0.641   4.613   2.086
  288TCM    cl3 1763   0.864   4.541   2.038
  289TCM     c1 1764   4.981   0.101   0.040
  289TCM    cl1 1765   4.846  -0.011   0.078
  289TCM    cl2 1766   4.976   0.146  -0.133
  289TCM     h1 1767   4.971   0.192   0.101
  289TCM    cl3 1768   5.137   0.020   0.076
  290TCM     c1 1769   4.401   0.523   3.460
  290TCM    cl1 1770   4.320   0.537   3.301
  290TCM    cl2 1771   4.577   0.552   3.441
  290TCM     h1 1772   4.359   0.597   3.529
  290TCM    cl3 1773   4.374   0.359   3.526
  291TCM     c1 1774   3.366   4.912   4.193
  291TCM    cl1 1775   3.240   5.030   4.243
  291TCM    cl2 1776   3.516   4.942   4.287
  291TCM     h1 1777   3.331   4.811   4.212
  291TCM    cl3 1778   3.400   4.931   4.018
  292TCM     c1 1779   1.262   1.807   1.517
  292TCM    cl1 1780   1.305   1.838   1.345
  292TCM    cl2 1781   1.094   1.745   1.526
  292TCM     h1 1782   1.331   1.733   1.559
  292TCM    cl3 1783   1.276   1.961   1.608
  293TCM     c1 1784   3.028   0.729   2.018
  293TCM    cl1 1785   2.917   0.842   1.933
  293TCM    cl2 1786   3.162   0.683   1.907
  293TCM     h1 1787   3.069   0.778   2.107
  293TCM    cl3 1788   2.938   0.582   2.066
  294TCM     c1 1789   3.555   0.157   0.300
  294TCM    cl1 1790   3.569   0.288   0.178
  294TCM    cl2 1791   3.414   0.188   0.407
  294TCM     h1 1792   3.542   0.061   0.249
  294TCM    cl3 1793   3.705   0.152   0.398
  295TCM     c1 1794   0.476   1.194   1.934
  295TCM    cl1 1795   0.533   1.353   1.993
  295TCM    cl2 1796   0.471   1.195   1.755
  295TCM     h1 1797   0.544   1.116   1.968
  295TCM    cl3 1798   0.311   1.161   1.997
  296TCM     c1 1799   2.682   3.649   0.994
  296TCM    cl1 1800   2.604   3.503   0.925
  296TCM    cl2 1801   2.698   3.630   1.172
  296TCM     h1 1802   2.781   3.662   0.949
  296TCM    cl3 1803   2.580   3.792   0.959
  297TCM     c1 1804   2.360   2.790   4.181
  297TCM    cl1 1805   2.367   2.964   4.222
  297TCM    cl2 1806   2.300   2.698   4.323
  297TCM     h1 1807   2.293   2.775   4.096
  297TCM    cl3 1808   2.525   2.731   4.139
  298TCM     c1 1809   0.337   2.269   0.584
  298TCM    cl1 1810   0.495   2.193   0.545
  298TCM    cl2 1811   0.293   2.228   0.753
  298TCM     h1 1812   0.344   2.377   0.572
  298TCM    cl3 1813   0.211   2.205   0.473
  299TCM     c1 1814   2.341   0.263   1.436
  299TCM    cl1 1815   2.387   0.217   1.269
  299TCM    cl2 1816   2.171   0.215   1.467
  299TCM     h1 1817   2.407   0.212   1.507
  299TCM    cl3 1818   2.358   0.440   1.456
  300TCM     c1 1819   2.328   3.667   4.902
  300TCM    cl1 1820   2.397   3.526   4.988
  300TCM    cl2 1821   2.217   3.752   5.014
  300TCM     h1 1822   2.409   3.735   4.872
  300TCM    cl3 1823   2.238   3.612   4.758
  301TCM     c1 1824   4.954   3.334   4.725
  301TCM    cl1 1825   5.000   3.208   4.607
  301TCM    cl2 1826   4.944   3.262   4.889
  301TCM     h1 1827   5.029   3.414   4.725
  301TCM    cl3 1828   4.794   3.403   4.681
  302TCM     c1 1829   3.844   1.672   1.829
  302TCM    cl1 1830   3.865   1.598   1.667
  302TCM    cl2 1831   3.948   1.818   1.841
  302TCM     h1 1832   3.739   1.700   1.843
  302TCM    cl3 1833   3.893   1.555   1.956
  303TCM     c1 1834   1.685   2.767   2.606
  303TCM    cl1 1835   1.836   2.681   2.648
  303TCM    cl2 1836   1.636   2.873   2.742
  303TCM     h1 1837   1.701   2.828   2.516
  303TCM    cl3 1838   1.556   2.646   2.575
  304TCM     c1 1839   4.568   2.501   0.384
  304TCM    cl1 1840   4.536   2.664   0.450
  304TCM    cl2 1841   4.592   2.511   0.207
  304TCM     h1 1842   4.659   2.460   0.431
  304TCM    cl3 1843   4.429   2.394   0.419
  305TCM     c1 1844   4.909   4.386   1.474
  305TCM    cl1 1845   5.058   4.349   1.382
  305TCM    cl2 1846   4.931   4.538   1.568
  305TCM     h1 1847   4.825   4.398   1.405
  305TCM    cl3 1848   4.873   4.252   1.589
  306TCM     c1 1849   2.831   1.030   3.580
  306TCM    cl1 1850   2.884   1.051   3.750
  306TCM    cl2 1851   2.937   1.126   3.472
  306TCM     h1 1852   2.835   0.924   3.553
  306TCM    cl3 1853   2.663   1.090   3.565
  307TCM     c1 1854   0.739   3.849   2.206
  307TCM    cl1 1855   0.620   3.725   2.153
  307TCM    cl2 1856   0.871   3.770   2.298
  307TCM     h1 1857   0.780   3.899   2.119
  307TCM    cl3 1858   0.656   3.968   2.312
  308TCM     c1 1859   2.905   4.136   2.001
  308TCM    cl1 1860   2.800   4.204   2.129
  308TCM    cl2 1861   2.872   4.221   1.846
  308TCM     h1 1862   3.010   4.150   2.028
  308TCM    cl3 1863   2.871   3.961   1.982
  309TCM     c1 1864   1.176   2.777   1.986
  309TCM    cl1 1865   1.093   2.860   1.851
  309TCM    cl2 1866   1.259   2.630   1.924
  309TCM     h1 1867   1.249   2.844   2.032
  309TCM    cl3 1868   1.054   2.729   2.109
  310TCM     c1 1869   4.547   0.260   4.922
  310TCM    cl1 1870   4.686   0.372   4.929
  310TCM    cl2 1871   4.498   0.216   5.089
  310TCM     h1 1872   4.463   0.308   4.871
  310TCM    cl3 1873   4.594   0.111   4.834
  311TCM     c1 1874   3.807   4.733   2.259
  311TCM    cl1 1875   3.833   4.619   2.123
  311TCM    cl2 1876   3.915   4.688   2.395
  311TCM     h1 1877   3.830   4.835   2.226
  311TCM    cl3 1878   3.637   4.724   2.313
  312TCM     c1 1879   1.234   4.884   2.943
  312TCM    cl1 1880   1.177   4.749   3.047
  312TCM    cl2 1881   1.246   4.826   2.774
  312TCM     h1 1882   1.164   4.967   2.949
  312TCM    cl3 1883   1.396   4.935   3.000
  313TCM     c1 1884   3.324   4.736   3.579
  313TCM    cl1 1885   3.442   4.871   3.567
  313TCM    cl2 1886   3.391   4.608   3.685
  313TCM     h1 1887   3.230   4.772   3.620
  313TCM    cl3 1888   3.295   4.669   3.415
  314TCM     c1 1889   3.062   2.269   4.752
  314TCM    cl1 1890   2.979   2.125   4.685
  314TCM    cl2 1891   3.149   2.355   4.621
  314TCM     h1 1892   2.988   2.337   4.797
  314TCM    cl3 1893   3.180   2.217   4.877
  315TCM     c1 1894   4.795   4.104   2.368
  315TCM    cl1 1895   4.740   4.224   2.246
  315TCM    cl2 1896   4.733   4.153   2.529
  315TCM     h1 1897   4.756   4.005   2.342
  315TCM    cl3 1898   4.974   4.099   2.370
  316TCM     c1 1899   4.839   3.071   1.990
  316TCM    cl1 1900   4.748   3.066   1.836
  316TCM    cl2 1901   4.740   2.997   2.120
  316TCM     h1 1902   4.933   3.016   1.979
  316TCM    cl3 1903   4.876   3.242   2.033
  317TCM     c1 1904   1.020   2.024   0.440
  317TCM    cl1 1905   1.102   2.179   0.477
  317TCM    cl2 1906   0.844   2.052   0.419
  317TCM     h1 1907   1.062   1.981   0.349
  317TCM    cl3 1908   1.045   1.911   0.577
  318TCM     c1 1909   0.854   1.683   3.790
  318TCM    cl1 1910   0.802   1.629   3.953
  318TCM    cl2 1911   0.842   1.546   3.674
  318TCM     h1 1912   0.789   1.764   3.756
  318TCM    cl3 1913   1.023   1.742   3.799
  319TCM     c1 1914   3.845   3.199   1.159
  319TCM    cl1 1915   3.967   3.134   1.045
  319TCM    cl2 1916   3.896   3.363   1.213
  319TCM     h1 1917   3.748   3.205   1.110
  319TCM    cl3 1918   3.835   3.090   1.302
  320TCM     c1 1919   0.061   4.991   1.808
  320TCM    cl1 1920  -0.065   5.072   1.709
  320TCM    cl2 1921   0.029   4.815   1.811
  320TCM     h1 1922   0.160   5.009   1.764
  320TCM    cl3 1923   0.057   5.057   1.975
  321TCM     c1 1924   0.984   2.182   1.425
  321TCM    cl1 1925   1.056   2.093   1.287
  321TCM    cl2 1926   1.109   2.284   1.503
  321TCM     h1 1927   0.902   2.245   1.389
  321TCM    cl3 1928   0.920   2.065   1.545
  322TCM     c1 1929   0.721   2.096   3.762
  322TCM    cl1 1930   0.767   2.004   3.615
  322TCM    cl2 1931   0.765   2.000   3.907
  322TCM     h1 1932   0.774   2.191   3.763
  322TCM    cl3 1933   0.544   2.125   3.761
  323TCM     c1 1934   0.848   0.736   4.688
  323TCM    cl1 1935   0.835   0.660   4.526
  323TCM    cl2 1936   0.789   0.622   4.813
  323TCM     h1 1937   0.952   0.761   4.708
  323TCM    cl3 1938   0.748   0.886   4.692
  324TCM     c1 1939   3.347   2.849   0.702
  324TCM    cl1 1940   3.324   3.026   0.687
  324TCM    cl2 1941   3.521   2.809   0.687
  324TCM     h1 1942   3.311   2.816   0.800
  324TCM    cl3 1943   3.255   2.765   0.573
  325TCM     c1 1944   3.355   4.888   2.478
  325TCM    cl1 1945   3.472   5.023   2.496
  325TCM    cl2 1946   3.272   4.901   2.319
  325TCM     h1 1947   3.409   4.793   2.482
  325TCM    cl3 1948   3.234   4.895   2.610
  326TCM     c1 1949   4.343   3.067   4.880
  326TCM    cl1 1950   4.363   3.232   4.946
  326TCM    cl2 1951   4.306   3.077   4.704
  326TCM     h1 1952   4.435   3.010   4.895
  326TCM    cl3 1953   4.208   2.984   4.964
  327TCM     c1 1954   2.866   1.115   2.338
  327TCM    cl1 1955   2.707   1.102   2.255
  327TCM    cl2 1956   2.991   1.031   2.240
  327TCM     h1 1957   2.893   1.220   2.350
  327TCM    cl3 1958   2.855   1.038   2.500
  328TCM     c1 1959   1.971   4.355   3.278
  328TCM    cl1 1960   1.862   4.350   3.135
  328TCM    cl2 1961   1.878   4.415   3.419
  328TCM     h1 1962   2.009   4.255   3.298
  328TCM    cl3 1963   2.108   4.466   3.244
  329TCM     c1 1964   3.240   2.141   0.640
  329TCM    cl1 1965   3.163   2.292   0.581
  329TCM    cl2 1966   3.208   2.123   0.816
  329TCM     h1 1967   3.199   2.055   0.586
  329TCM    cl3 1968   3.417   2.152   0.613
  330TCM     c1 1969   2.080   1.959   2.371
  330TCM    cl1 1970   2.074   2.101   2.481
  330TCM    cl2 1971   2.224   1.970   2.264
  330TCM     h1 1972   2.087   1.867   2.430
  330TCM    cl3 1973   1.932   1.955   2.271
  331TCM     c1 1974   2.251   2.463   3.918
  331TCM    cl1 1975   2.127   2.574   3.986
  331TCM    cl2 1976   2.385   2.560   3.848
  331TCM     h1 1977   2.290   2.399   3.997
  331TCM    cl3 1978   2.176   2.362   3.790
  332TCM     c1 1979   4.943   1.659   1.334
  332TCM    cl1 1980   4.949   1.799   1.447
  332TCM    cl2 1981   4.775   1.640   1.274
  332TCM     h1 1982   5.010   1.678   1.250
  332TCM    cl3 1983   4.994   1.510   1.420
  333TCM     c1 1984   1.442   1.224   3.254
  333TCM    cl1 1985   1.315   1.302   3.154
  333TCM    cl2 1986   1.412   1.047   3.262
  333TCM     h1 1987   1.540   1.243   3.210
  333TCM    cl3 1988   1.438   1.291   3.421
  334TCM     c1 1989   3.204   4.220   1.692
  334TCM    cl1 1990   3.300   4.326   1.801
  334TCM    cl2 1991   3.201   4.054   1.759
  334TCM     h1 1992   3.102   4.258   1.685
  334TCM    cl3 1993   3.278   4.218   1.529
  335TCM     c1 1994   2.023   3.232   0.428
  335TCM    cl1 1995   2.011   3.187   0.601
  335TCM    cl2 1996   1.970   3.402   0.407
  335TCM     h1 1997   2.127   3.223   0.395
  335TCM    cl3 1998   1.919   3.125   0.330
  336TCM     c1 1999   4.592   1.963   2.959
  336TCM    cl1 2000   4.636   1.884   2.804
  336TCM    cl2 2001   4.693   2.110   2.980
  336TCM     h1 2002   4.486   1.991   2.958
  336TCM    cl3 2003   4.625   1.849   3.094
  337TCM     c1 2004   2.258   3.856   1.111
  337TCM    cl1 2005   2.089   3.809   1.071
  337TCM    cl2 2006   2.319   3.754   1.245
  337TCM     h1 2007   2.321   3.843   1.023
  337TCM    cl3 2008   2.262   4.028   1.162
  338TCM     c1 2009   0.899   4.794   4.501
  338TCM    cl1 2010   1.022   4.672   4.545
  338TCM    cl2 2011   0.784   4.723   4.383
  338TCM     h1 2012   0.845   4.826   4.590
  338TCM    cl3 2013   0.979   4.936   4.426
  339TCM     c1 2014   2.870   3.039   3.482
  339TCM    cl1 2015   2.973   2.892   3.473
  339TCM    cl2 2016   2.920   3.157   3.357
  339TCM     h1 2017   2.765   3.011   3.465
  339TCM    cl3 2018   2.887   3.114   3.644
  340TCM     c1 2019   3.231   3.885   0.749
  340TCM    cl1 2020   3.185   3.731   0.829
  340TCM    cl2 2021   3.393   3.868   0.674
  340TCM     h1 2022   3.158   3.910   0.672
  340TCM    cl3 2023   3.236   4.017   0.872
  341TCM     c1 2024   2.400   1.266   3.775
  341TCM    cl1 2025   2.393   1.445   3.764
  341TCM    cl2 2026   2.238   1.206   3.824
  341TCM     h1 2027   2.426   1.224   3.678
  341TCM    cl3 2028   2.522   1.218   3.897
  342TCM     c1 2029   1.940   3.466   4.663
  342TCM    cl1 2030   1.899   3.630   4.604
  342TCM    cl2 2031   2.038   3.381   4.538
  342TCM     h1 2032   1.997   3.474   4.756
  342TCM    cl3 2033   1.789   3.374   4.692
  343TCM     c1 2034   4.905   3.563   2.287
  343TCM    cl1 2035   4.976   3.526   2.448
  343TCM    cl2 2036   4.911   3.740   2.259
  343TCM     h1 2037   4.962   3.511   2.209
  343TCM    cl3 2038   4.735   3.507   2.284
  344TCM     c1 2039   3.084   1.169   4.639
  344TCM    cl1 2040   2.994   1.088   4.507
  344TCM    cl2 2041   3.136   1.046   4.759
  344TCM     h1 2042   3.171   1.220   4.598
  344TCM    cl3 2043   2.977   1.289   4.720
  345TCM     c1 2044   0.394   0.344   3.728
  345TCM    cl1 2045   0.451   0.447   3.864
  345TCM    cl2 2046   0.530   0.315   3.615
  345TCM     h1 2047   0.359   0.248   3.767
  345TCM    cl3 2048   0.260   0.427   3.642
  346TCM     c1 2049   3.449   0.711   1.670
  346TCM    cl1 2050   3.443   0.539   1.719
  346TCM    cl2 2051   3.346   0.734   1.525
  346TCM     h1 2052   3.412   0.774   1.752
  346TCM    cl3 2053   3.618   0.756   1.631
  347TCM     c1 2054   2.482   4.885   2.195
  347TCM    cl1 2055   2.377   4.815   2.323
  347TCM    cl2 2056   2.402   4.866   2.036
  347TCM     h1 2057   2.499   4.991   2.216
  347TCM    cl3 2058   2.638   4.797   2.191
  348TCM     c1 2059   2.434   4.480   2.147
  348TCM    cl1 2060   2.514   4.513   1.991
  348TCM    cl2 2061   2.558   4.449   2.273
  348TCM     h1 2062   2.373   4.566   2.176
  348TCM    cl3 2063   2.329   4.336   2.129
  349TCM     c1 2064   0.644   0.794   1.987
  349TCM    cl1 2065   0.731   0.943   2.036
  349TCM    cl2 2066   0.747   0.700   1.875
  349TCM     h1 2067   0.622   0.735   2.076
  349TCM    cl3 2068   0.492   0.838   1.903
  350TCM     c1 2069   2.242   4.239   2.758
  350TCM    cl1 2070   2.121   4.220   2.889
  350TCM    cl2 2071   2.161   4.288   2.606
  350TCM     h1 2072   2.314   4.317   2.787
  350TCM    cl3 2073   2.328   4.084   2.733
  351TCM     c1 2074   3.744   1.248   4.573
  351TCM    cl1 2075   3.706   1.176   4.413
  351TCM    cl2 2076   3.604   1.227   4.683
  351TCM     h1 2077   3.832   1.199   4.616
  351TCM    cl3 2078   3.777   1.423   4.553
  352TCM     c1 2079   0.296   0.437   0.009
  352TCM    cl1 2080   0.131   0.424   0.079
  352TCM    cl2 2081   0.312   0.592  -0.078
  352TCM     h1 2082   0.370   0.431   0.089
  352TCM    cl3 2083   0.321   0.301  -0.106
  353TCM     c1 2084   3.631   3.539   4.866
  353TCM    cl1 2085   3.801   3.481   4.861
  353TCM    cl2 2086   3.553   3.482   5.017
  353TCM     h1 2087   3.630   3.648   4.863
  353TCM    cl3 2088   3.543   3.474   4.723
  354TCM     c1 2089   1.707   2.380   2.347
  354TCM    cl1 2090   1.742   2.304   2.506
  354TCM    cl2 2091   1.530   2.381   2.319
  354TCM     h1 2092   1.744   2.483   2.348
  354TCM    cl3 2093   1.787   2.288   2.216
  355TCM     c1 2094   1.993   3.929   1.425
  355TCM    cl1 2095   1.889   4.003   1.299
  355TCM    cl2 2096   1.990   3.750   1.408
  355TCM     h1 2097   2.096   3.965   1.414
  355TCM    cl3 2098   1.931   3.973   1.587
  356TCM     c1 2099   4.577   1.213   0.344
  356TCM    cl1 2100   4.429   1.313   0.361
  356TCM    cl2 2101   4.533   1.040   0.357
  356TCM     h1 2102   4.623   1.231   0.246
  356TCM    cl3 2103   4.694   1.255   0.474
  357TCM     c1 2104   2.361   4.376   0.333
  357TCM    cl1 2105   2.350   4.362   0.154
  357TCM    cl2 2106   2.376   4.548   0.380
  357TCM     h1 2107   2.270   4.334   0.378
  357TCM    cl3 2108   2.504   4.285   0.392
  358TCM     c1 2109   2.385   2.403   0.100
  358TCM    cl1 2110   2.524   2.412   0.214
  358TCM    cl2 2111   2.445   2.416  -0.068
  358TCM     h1 2112   2.333   2.308   0.113
  358TCM    cl3 2113   2.273   2.539   0.133
  359TCM     c1 2114   1.281   3.195   2.186
  359TCM    cl1 2115   1.248   3.046   2.280
  359TCM    cl2 2116   1.226   3.172   2.017
  359TCM     h1 2117   1.227   3.279   2.231
  359TCM    cl3 2118   1.457   3.229   2.188
  360TCM     c1 2119   0.526   4.041   4.756
  360TCM    cl1 2120   0.651   3.928   4.696
  360TCM    cl2 2121   0.517   4.183   4.648
  360TCM     h1 2122   0.429   3.991   4.758
  360TCM    cl3 2123   0.569   4.096   4.922
  361TCM     c1 2124   4.988   2.309   1.417
  361TCM    cl1 2125   5.006   2.141   1.355
  361TCM    cl2 2126   5.137   2.356   1.505
  361TCM     h1 2127   4.971   2.377   1.334
  361TCM    cl3 2128   4.849   2.315   1.531
  362TCM     c1 2129   4.316   0.528   3.879
  362TCM    cl1 2130   4.301   0.351   3.904
  362TCM    cl2 2131   4.190   0.582   3.763
  362TCM     h1 2132   4.303   0.580   3.974
  362TCM    cl3 2133   4.479   0.564   3.812
  363TCM     c1 2134   3.863   0.670   0.179
  363TCM    cl1 2135   3.691   0.646   0.132
  363TCM    cl2 2136   3.878   0.820   0.276
  363TCM     h1 2137   3.897   0.585   0.238
  363TCM    cl3 2138   3.965   0.685   0.032
  364TCM     c1 2139   1.619   1.669   3.586
  364TCM    cl1 2140   1.714   1.520   3.556
  364TCM    cl2 2141   1.572   1.674   3.759
  364TCM     h1 2142   1.680   1.757   3.563
  364TCM    cl3 2143   1.473   1.668   3.483
  365TCM     c1 2144   0.230   1.612   1.785
  365TCM    cl1 2145   0.274   1.480   1.672
  365TCM    cl2 2146   0.240   1.554   1.954
  365TCM     h1 2147   0.297   1.697   1.771
  365TCM    cl3 2148   0.061   1.662   1.752
  366TCM     c1 2149   1.528   0.282   3.112
  366TCM    cl1 2150   1.627   0.330   3.254
  366TCM    cl2 2151   1.542   0.406   2.984
  366TCM     h1 2152   1.563   0.186   3.074
  366TCM    cl3 2153   1.356   0.269   3.163
  367TCM     c1 2154   2.103   4.011   0.730
  367TCM    cl1 2155   2.019   4.094   0.865
  367TCM    cl2 2156   2.030   3.849   0.702
  367TCM     h1 2157   2.092   4.071   0.640
  367TCM    cl3 2158   2.277   3.992   0.770
  368TCM     c1 2159   2.800   1.409   3.744
  368TCM    cl1 2160   2.753   1.529   3.868
  368TCM    cl2 2161   2.976   1.419   3.712
  368TCM     h1 2162   2.775   1.308   3.779
  368TCM    cl3 2163   2.711   1.443   3.591
  369TCM     c1 2164   1.850   3.733   3.880
  369TCM    cl1 2165   2.014   3.776   3.939
  369TCM    cl2 2166   1.860   3.584   3.781
  369TCM     h1 2167   1.783   3.717   3.964
  369TCM    cl3 2168   1.789   3.868   3.778
  370TCM     c1 2169   2.989   0.705   4.719
  370TCM    cl1 2170   2.932   0.554   4.797
  370TCM    cl2 2171   2.895   0.736   4.569
  370TCM     h1 2172   2.977   0.789   4.788
  370TCM    cl3 2173   3.163   0.686   4.677
  371TCM     c1 2174   1.423   2.370   4.323
  371TCM    cl1 2175   1.598   2.407   4.329
  371TCM    cl2 2176   1.375   2.343   4.152
  371TCM     h1 2177   1.402   2.280   4.381
  371TCM    cl3 2178   1.329   2.508   4.390
  372TCM     c1 2179   4.833   4.096   0.486
  372TCM    cl1 2180   4.979   4.053   0.391
  372TCM    cl2 2181   4.856   4.046   0.657
  372TCM     h1 2182   4.815   4.203   0.481
  372TCM    cl3 2183   4.691   4.009   0.419
  373TCM     c1 2184   1.844   2.693   4.273
  373TCM    cl1 2185   1.951   2.557   4.321
  373TCM    cl2 2186   1.942   2.823   4.197
  373TCM     h1 2187   1.769   2.658   4.202
  373TCM    cl3 2188   1.762   2.757   4.419
  374TCM     c1 2189   2.314   3.975   3.917
  374TCM    cl1 2190   2.486   3.997   3.869
  374TCM    cl2 2191   2.214   4.107   3.849
  374TCM     h1 2192   2.278   3.879   3.880
  374TCM    cl3 2193   2.301   3.978   4.096
  375TCM     c1 2194   4.435   4.965   2.235
  375TCM    cl1 2195   4.512   5.105   2.317
  375TCM    cl2 2196   4.272   5.014   2.176
  375TCM     h1 2197   4.496   4.934   2.150
  375TCM    cl3 2198   4.418   4.829   2.351
  376TCM     c1 2199   1.578   3.412   1.842
  376TCM    cl1 2200   1.514   3.248   1.812
  376TCM    cl2 2201   1.733   3.400   1.932
  376TCM     h1 2202   1.595   3.463   1.747
  376TCM    cl3 2203   1.462   3.507   1.940
  377TCM     c1 2204   3.299   0.472   0.604
  377TCM    cl1 2205   3.150   0.564   0.564
  377TCM    cl2 2206   3.324   0.477   0.782
  377TCM     h1 2207   3.287   0.368   0.572
  377TCM    cl3 2208   3.440   0.545   0.521
  378TCM     c1 2209   0.121   3.598   2.820
  378TCM    cl1 2210   0.226   3.470   2.753
  378TCM    cl2 2211   0.180   3.644   2.983
  378TCM     h1 2212   0.123   3.686   2.755
  378TCM    cl3 2213  -0.047   3.536   2.833
  379TCM     c1 2214   2.631   2.452   4.627
  379TCM    cl1 2215   2.794   2.511   4.676
  379TCM    cl2 2216   2.625   2.274   4.642
  379TCM     h1 2217   2.555   2.498   4.691
  379TCM    cl3 2218   2.599   2.499   4.457
  380TCM     c1 2219   2.141   0.267   4.888
  380TCM    cl1 2220   2.049   0.195   5.024
  380TCM    cl2 2221   2.261   0.384   4.953
  380TCM     h1 2222   2.193   0.189   4.832
  380TCM    cl3 2223   2.027   0.354   4.779
  381TCM     c1 2224   2.865   4.978   1.773
  381TCM    cl1 2225   2.998   4.979   1.894
  381TCM    cl2 2226   2.710   4.947   1.857
  381TCM     h1 2227   2.861   5.076   1.724
  381TCM    cl3 2228   2.894   4.851   1.650
  382TCM     c1 2229   1.697   3.424   4.329
  382TCM    cl1 2230   1.545   3.396   4.420
  382TCM    cl2 2231   1.660   3.507   4.174
  382TCM     h1 2232   1.764   3.486   4.389
  382TCM    cl3 2233   1.776   3.266   4.294
  383TCM     c1 2234   0.595   2.670   0.680
  383TCM    cl1 2235   0.763   2.660   0.618
  383TCM    cl2 2236   0.544   2.509   0.741
  383TCM     h1 2237   0.590   2.743   0.761
  383TCM    cl3 2238   0.485   2.720   0.547
  384TCM     c1 2239   2.606   0.230   3.223
  384TCM    cl1 2240   2.648   0.167   3.060
  384TCM    cl2 2241   2.502   0.112   3.310
  384TCM     h1 2242   2.698   0.246   3.280
  384TCM    cl3 2243   2.520   0.386   3.204
  385TCM     c1 2244   1.986   2.972   0.884
  385TCM    cl1 2245   2.004   3.127   0.973
  385TCM    cl2 2246   1.815   2.954   0.830
  385TCM     h1 2247   2.052   2.972   0.797
  385TCM    cl3 2248   2.029   2.836   0.992
  386TCM     c1 2249   3.035   0.062   3.898
  386TCM    cl1 2250   3.105   0.221   3.943
  386TCM    cl2 2251   3.138  -0.014   3.772
  386TCM     h1 2252   3.032  -0.002   3.987
  386TCM    cl3 2253   2.869   0.084   3.834
  387TCM     c1 2254   2.480   3.147   4.756
  387TCM    cl1 2255   2.627   3.072   4.685
  387TCM    cl2 2256   2.471   3.319   4.707
  387TCM     h1 2257   2.391   3.094   4.720
  387TCM    cl3 2258   2.488   3.135   4.935
  388TCM     c1 2259   0.211   0.443   4.129
  388TCM    cl1 2260   0.103   0.504   4.258
  388TCM    cl2 2261   0.113   0.368   3.999
  388TCM     h1 2262   0.270   0.525   4.088
  388TCM    cl3 2263   0.321   0.320   4.199
  389TCM     c1 2264   3.004   2.808   3.893
  389TCM    cl1 2265   2.974   2.969   3.965
  389TCM    cl2 2266   2.860   2.757   3.799
  389TCM     h1 2267   3.091   2.813   3.827
  389TCM    cl3 2268   3.034   2.688   4.023
  390TCM     c1 2269   0.639   1.297   4.985
  390TCM    cl1 2270   0.775   1.376   5.070
  390TCM    cl2 2271   0.592   1.148   5.073
  390TCM     h1 2272   0.553   1.365   4.981
  390TCM    cl3 2273   0.689   1.254   4.818
  391TCM     c1 2274   4.561   2.844   1.592
  391TCM    cl1 2275   4.397   2.781   1.556
  391TCM    cl2 2276   4.638   2.900   1.440
  391TCM     h1 2277   4.554   2.927   1.662
  391TCM    cl3 2278   4.661   2.713   1.664
  392TCM     c1 2279   2.981   3.037   0.333
  392TCM    cl1 2280   2.854   2.936   0.257
  392TCM    cl2 2281   2.975   3.014   0.511
  392TCM     h1 2282   3.079   3.007   0.296
  392TCM    cl3 2283   2.952   3.210   0.294
  393TCM     c1 2284   2.411   4.743   1.233
  393TCM    cl1 2285   2.504   4.885   1.175
  393TCM    cl2 2286   2.506   4.656   1.359
  393TCM     h1 2287   2.316   4.776   1.276
  393TCM    cl3 2288   2.380   4.632   1.096
  394TCM     c1 2289   2.575   3.728   4.575
  394TCM    cl1 2290   2.460   3.859   4.619
  394TCM    cl2 2291   2.489   3.606   4.477
  394TCM     h1 2292   2.658   3.770   4.517
  394TCM    cl3 2293   2.637   3.652   4.725
  395TCM     c1 2294   1.666   1.460   2.717
  395TCM    cl1 2295   1.564   1.395   2.850
  395TCM    cl2 2296   1.838   1.454   2.767
  395TCM     h1 2297   1.651   1.400   2.626
  395TCM    cl3 2298   1.618   1.630   2.686
  396TCM     c1 2299   2.309   1.100   2.112
  396TCM    cl1 2300   2.353   1.177   1.956
  396TCM    cl2 2301   2.203   0.959   2.082
  396TCM     h1 2302   2.399   1.068   2.164
  396TCM    cl3 2303   2.221   1.221   2.211
  397TCM     c1 2304   4.815   2.187   0.461
  397TCM    cl1 2305   4.772   2.270   0.615
  397TCM    cl2 2306   4.874   2.310   0.344
  397TCM     h1 2307   4.894   2.113   0.479
  397TCM    cl3 2308   4.669   2.106   0.396
  398TCM     c1 2309   4.025   0.412   3.052
  398TCM    cl1 2310   4.176   0.315   3.047
  398TCM    cl2 2311   3.884   0.303   3.069
  398TCM     h1 2312   4.029   0.480   3.137
  398TCM    cl3 2313   4.010   0.506   2.900
  399TCM     c1 2314   4.717   2.042   4.882
  399TCM    cl1 2315   4.741   2.119   5.042
  399TCM    cl2 2316   4.626   2.153   4.775
  399TCM     h1 2317   4.815   2.021   4.837
  399TCM    cl3 2318   4.626   1.889   4.902
  400TCM     c1 2319   3.289   0.904   1.021
  400TCM    cl1 2320   3.352   0.773   1.125
  400TCM    cl2 2321   3.250   0.838   0.859
  400TCM     h1 2322   3.198   0.946   1.067
  400TCM    cl3 2323   3.412   1.033   1.005
  401TCM     c1 2324   2.588   4.024   4.288
  401TCM    cl1 2325   2.632   3.859   4.233
  401TCM    cl2 2326   2.636   4.143   4.163
  401TCM     h1 2327   2.480   4.030   4.305
  401TCM    cl3 2328   2.675   4.061   4.440
  402TCM     c1 2329   1.355   4.925   0.299
  402TCM    cl1 2330   1.326   5.087   0.228
  402TCM    cl2 2331   1.198   4.854   0.349
  402TCM     h1 2332   1.402   4.860   0.224
  402TCM    cl3 2333   1.464   4.940   0.440
  403TCM     c1 2334   1.363   3.107   4.256
  403TCM    cl1 2335   1.505   3.017   4.318
  403TCM    cl2 2336   1.249   2.992   4.179
  403TCM     h1 2337   1.314   3.159   4.338
  403TCM    cl3 2338   1.418   3.226   4.133
  404TCM     c1 2339   1.087   2.193   2.047
  404TCM    cl1 2340   0.927   2.133   2.102
  404TCM    cl2 2341   1.127   2.346   2.131
  404TCM     h1 2342   1.163   2.118   2.069
  404TCM    cl3 2343   1.082   2.222   1.870
  405TCM     c1 2344   1.141   1.227   0.353
  405TCM    cl1 2345   1.166   1.298   0.516
  405TCM    cl2 2346   1.019   1.096   0.365
  405TCM     h1 2347   1.104   1.304   0.284
  405TCM    cl3 2348   1.296   1.161   0.293
  406TCM     c1 2349   0.112   0.298   2.991
  406TCM    cl1 2350   0.014   0.292   2.842
  406TCM    cl2 2351   0.255   0.403   2.963
  406TCM     h1 2352   0.052   0.339   3.073
  406TCM    cl3 2353   0.169   0.133   3.034
  407TCM     c1 2354   2.545   3.752   0.244
  407TCM    cl1 2355   2.648   3.688   0.376
  407TCM    cl2 2356   2.643   3.774   0.096
  407TCM     h1 2357   2.463   3.682   0.224
  407TCM    cl3 2358   2.478   3.910   0.293
  408TCM     c1 2359   0.005   1.760   0.616
  408TCM    cl1 2360   0.042   1.935   0.635
  408TCM    cl2 2361   0.103   1.694   0.482
  408TCM     h1 2362   0.028   1.707   0.709
  408TCM    cl3 2363  -0.169   1.740   0.577
  409TCM     c1 2364   3.086   4.611   4.010
  409TCM    cl1 2365   3.027   4.755   4.098
  409TCM    cl2 2366   3.261   4.589   4.045
  409TCM     h1 2367   3.031   4.522   4.042
  409TCM    cl3 2368   3.064   4.637   3.834
  410TCM     c1 2369   0.146   2.978   3.232
  410TCM    cl1 2370   0.179   2.816   3.303
  410TCM    cl2 2371   0.278   3.024   3.120
  410TCM     h1 2372   0.051   2.976   3.179
  410TCM    cl3 2373   0.139   3.099   3.365
  411TCM     c1 2374   2.694   0.397   1.783
  411TCM    cl1 2375   2.647   0.305   1.636
  411TCM    cl2 2376   2.727   0.567   1.739
  411TCM     h1 2377   2.612   0.393   1.855
  411TCM    cl3 2378   2.841   0.323   1.854
  412TCM     c1 2379   4.731   4.845   4.232
  412TCM    cl1 2380   4.835   4.779   4.363
  412TCM    cl2 2381   4.613   4.720   4.181
  412TCM     h1 2382   4.678   4.933   4.268
  412TCM    cl3 2383   4.835   4.891   4.093
  413TCM     c1 2384   3.965   0.835   1.903
  413TCM    cl1 2385   3.925   0.919   1.749
  413TCM    cl2 2386   3.867   0.686   1.917
  413TCM     h1 2387   4.071   0.810   1.904
  413TCM    cl3 2388   3.927   0.943   2.041
  414TCM     c1 2389   2.019   4.578   2.144
  414TCM    cl1 2390   1.971   4.412   2.094
  414TCM    cl2 2391   2.131   4.646   2.022
  414TCM     h1 2392   1.930   4.641   2.152
  414TCM    cl3 2393   2.102   4.571   2.304
  415TCM     c1 2394   2.095   2.673   0.539
  415TCM    cl1 2395   2.009   2.830   0.546
  415TCM    cl2 2396   2.126   2.615   0.706
  415TCM     h1 2397   2.033   2.600   0.486
  415TCM    cl3 2398   2.250   2.695   0.453
  416TCM     c1 2399   1.971   4.541   0.184
  416TCM    cl1 2400   2.020   4.434   0.320
  416TCM    cl2 2401   1.932   4.441   0.041
  416TCM     h1 2402   1.884   4.600   0.213
  416TCM    cl3 2403   2.108   4.649   0.144
  417TCM     c1 2404   3.498   0.784   2.203
  417TCM    cl1 2405   3.327   0.836   2.219
  417TCM    cl2 2406   3.606   0.925   2.231
  417TCM     h1 2407   3.519   0.707   2.277
  417TCM    cl3 2408   3.524   0.719   2.038
  418TCM     c1 2409   3.645   3.860   0.196
  418TCM    cl1 2410   3.780   3.752   0.149
  418TCM    cl2 2411   3.508   3.760   0.258
  418TCM     h1 2412   3.678   3.929   0.274
  418TCM    cl3 2413   3.591   3.952   0.052
  419TCM     c1 2414   1.440   3.979   1.797
  419TCM    cl1 2415   1.592   4.065   1.758
  419TCM    cl2 2416   1.305   4.097   1.800
  419TCM     h1 2417   1.420   3.903   1.722
  419TCM    cl3 2418   1.455   3.901   1.958
  420TCM     c1 2419   4.726   2.182   2.611
  420TCM    cl1 2420   4.724   2.043   2.498
  420TCM    cl2 2421   4.557   2.226   2.654
  420TCM     h1 2422   4.781   2.155   2.702
  420TCM    cl3 2423   4.806   2.322   2.532
  421TCM     c1 2424   1.435   1.078   2.056
  421TCM    cl1 2425   1.568   1.001   2.148
  421TCM    cl2 2426   1.364   0.957   1.944
  421TCM     h1 2427   1.358   1.113   2.125
  421TCM    cl3 2428   1.499   1.216   1.961
  422TCM     c1 2429   0.209   0.110   1.349
  422TCM    cl1 2430   0.221   0.049   1.181
  422TCM    cl2 2431   0.219  -0.029   1.463
  422TCM     h1 2432   0.291   0.180   1.369
  422TCM    cl3 2433   0.051   0.193   1.371
  423TCM     c1 2434   0.833   4.152   0.188
  423TCM    cl1 2435   0.772   4.298   0.271
  423TCM    cl2 2436   0.750   4.007   0.254
  423TCM     h1 2437   0.814   4.159   0.080
  423TCM    cl3 2438   1.010   4.136   0.217
  424TCM     c1 2439   3.006   2.597   0.771
  424TCM    cl1 2440   2.875   2.697   0.702
  424TCM    cl2 2441   2.938   2.443   0.835
  424TCM     h1 2442   3.080   2.574   0.693
  424TCM    cl3 2443   3.083   2.689   0.904
  425TCM     c1 2444   0.291   1.764   2.252
  425TCM    cl1 2445   0.358   1.930   2.268
  425TCM    cl2 2446   0.181   1.731   2.390
  425TCM     h1 2447   0.236   1.756   2.158
  425TCM    cl3 2448   0.426   1.645   2.253
  426TCM     c1 2449   2.447   0.543   4.591
  426TCM    cl1 2450   2.618   0.492   4.610
  426TCM    cl2 2451   2.403   0.655   4.724
  426TCM     h1 2452   2.434   0.594   4.495
  426TCM    cl3 2453   2.341   0.399   4.596
  427TCM     c1 2454   0.327   4.220   3.823
  427TCM    cl1 2455   0.455   4.158   3.932
  427TCM    cl2 2456   0.174   4.132   3.856
  427TCM     h1 2457   0.312   4.327   3.841
  427TCM    cl3 2458   0.373   4.193   3.652
  428TCM     c1 2459   4.902   4.010   1.122
  428TCM    cl1 2460   4.810   4.090   1.254
  428TCM    cl2 2461   5.033   3.910   1.194
  428TCM     h1 2462   4.836   3.947   1.063
  428TCM    cl3 2463   4.975   4.136   1.017
  429TCM     c1 2464   2.299   2.159   0.463
  429TCM    cl1 2465   2.251   2.117   0.295
  429TCM    cl2 2466   2.261   2.332   0.493
  429TCM     h1 2467   2.246   2.096   0.534
  429TCM    cl3 2468   2.476   2.134   0.481
  430TCM     c1 2469   4.873   4.870   3.039
  430TCM    cl1 2470   4.825   5.042   3.056
  430TCM    cl2 2471   4.729   4.774   2.990
  430TCM     h1 2472   4.951   4.860   2.962
  430TCM    cl3 2473   4.935   4.809   3.195
  431TCM     c1 2474   3.161   2.453   1.175
  431TCM    cl1 2475   3.183   2.275   1.173
  431TCM    cl2 2476   3.256   2.524   1.310
  431TCM     h1 2477   3.196   2.495   1.080
  431TCM    cl3 2478   2.987   2.492   1.198
  432TCM     c1 2479   3.547   0.939   4.953
  432TCM    cl1 2480   3.464   1.091   5.001
  432TCM    cl2 2481   3.724   0.970   4.938
  432TCM     h1 2482   3.529   0.863   5.029
  432TCM    cl3 2483   3.483   0.883   4.795
  433TCM     c1 2484   1.053   1.943   4.135
  433TCM    cl1 2485   1.110   2.096   4.060
  433TCM    cl2 2486   0.906   1.976   4.233
  433TCM     h1 2487   1.030   1.870   4.057
  433TCM    cl3 2488   1.182   1.878   4.242
  434TCM     c1 2489   0.323   0.402   2.061
  434TCM    cl1 2490   0.465   0.507   2.089
  434TCM    cl2 2491   0.231   0.380   2.213
  434TCM     h1 2492   0.259   0.448   1.986
  434TCM    cl3 2493   0.378   0.241   2.003
  435TCM     c1 2494   3.525   0.187   0.852
  435TCM    cl1 2495   3.635   0.276   0.742
  435TCM    cl2 2496   3.620   0.107   0.981
  435TCM     h1 2497   3.454   0.257   0.897
  435TCM    cl3 2498   3.435   0.063   0.759
  436TCM     c1 2499   3.215   2.289   3.831
  436TCM    cl1 2500   3.350   2.218   3.925
  436TCM    cl2 2501   3.073   2.315   3.938
  436TCM     h1 2502   3.246   2.385   3.789
  436TCM    cl3 2503   3.169   2.177   3.699
  437TCM     c1 2504   1.510   2.242   1.198
  437TCM    cl1 2505   1.417   2.373   1.117
  437TCM    cl2 2506   1.439   2.209   1.359
  437TCM     h1 2507   1.505   2.151   1.137
  437TCM    cl3 2508   1.681   2.292   1.216
  438TCM     c1 2509   2.839   4.509   1.513
  438TCM    cl1 2510   2.698   4.431   1.592
  438TCM    cl2 2511   2.865   4.435   1.352
  438TCM     h1 2512   2.820   4.616   1.501
  438TCM    cl3 2513   2.986   4.484   1.613
  439TCM     c1 2514   0.405   0.947   4.077
  439TCM    cl1 2515   0.564   0.933   4.161
  439TCM    cl2 2516   0.338   0.783   4.048
  439TCM     h1 2517   0.337   1.005   4.140
  439TCM    cl3 2518   0.429   1.031   3.920
  440TCM     c1 2519   0.348   1.908   1.322
  440TCM    cl1 2520   0.226   1.874   1.195
  440TCM    cl2 2521   0.510   1.923   1.247
  440TCM     h1 2522   0.323   2.001   1.374
  440TCM    cl3 2523   0.349   1.771   1.440
  441TCM     c1 2524   4.852   2.478   0.934
  441TCM    cl1 2525   4.815   2.401   1.092
  441TCM    cl2 2526   4.992   2.395   0.860
  441TCM     h1 2527   4.765   2.469   0.868
  441TCM    cl3 2528   4.891   2.651   0.960
  442TCM     c1 2529   1.027   3.854   4.798
  442TCM    cl1 2530   0.968   3.693   4.747
  442TCM    cl2 2531   0.929   3.911   4.937
  442TCM     h1 2532   1.132   3.847   4.829
  442TCM    cl3 2533   1.014   3.969   4.661
  443TCM     c1 2534   3.417   1.115   1.420
  443TCM    cl1 2535   3.547   1.008   1.357
  443TCM    cl2 2536   3.405   1.095   1.598
  443TCM     h1 2537   3.441   1.219   1.397
  443TCM    cl3 2538   3.260   1.071   1.345
  444TCM     c1 2539   3.385   0.864   4.444
  444TCM    cl1 2540   3.544   0.830   4.369
  444TCM    cl2 2541   3.254   0.797   4.342
  444TCM     h1 2542   3.381   0.818   4.543
  444TCM    cl3 2543   3.363   1.041   4.460
  445TCM     c1 2544   0.412   3.741   3.766
  445TCM    cl1 2545   0.286   3.710   3.642
  445TCM    cl2 2546   0.334   3.802   3.916
  445TCM     h1 2547   0.465   3.648   3.788
  445TCM    cl3 2548   0.527   3.864   3.705
  446TCM     c1 2549   3.259   3.194   4.878
  446TCM    cl1 2550   3.187   3.101   5.013
  446TCM    cl2 2551   3.436   3.163   4.873
  446TCM     h1 2552   3.215   3.163   4.784
  446TCM    cl3 2553   3.228   3.369   4.904
  447TCM     c1 2554   0.878   2.401   1.063
  447TCM    cl1 2555   0.763   2.306   1.162
  447TCM    cl2 2556   1.019   2.446   1.163
  447TCM     h1 2557   0.912   2.340   0.978
  447TCM    cl3 2558   0.798   2.549   1.002
  448TCM     c1 2559   4.276   4.953   4.766
  448TCM    cl1 2560   4.175   4.811   4.725
  448TCM    cl2 2561   4.238   5.005   4.934
  448TCM     h1 2562   4.382   4.927   4.758
  448TCM    cl3 2563   4.238   5.088   4.654
  449TCM     c1 2564   4.329   0.958   0.062
  449TCM    cl1 2565   4.163   1.026   0.060
  449TCM    cl2 2566   4.445   1.078  -0.004
  449TCM     h1 2567   4.357   0.933   0.165
  449TCM    cl3 2568   4.334   0.808  -0.037
  450TCM     c1 2569   3.030   0.469   3.137
  450TCM    cl1 2570   2.927   0.551   3.015
  450TCM    cl2 2571   3.192   0.435   3.069
  450TCM     h1 2572   3.040   0.533   3.225
  450TCM    cl3 2573   2.955   0.313   3.182
  451TCM     c1 2574   3.992   0.852   4.711
  451TCM    cl1 2575   4.053   0.687   4.674
  451TCM    cl2 2576   3.861   0.894   4.597
  451TCM     h1 2577   3.954   0.855   4.814
  451TCM    cl3 2578   4.127   0.969   4.694
  452TCM     c1 2579   4.677   1.681   3.406
  452TCM    cl1 2580   4.577   1.552   3.332
  452TCM    cl2 2581   4.784   1.609   3.531
  452TCM     h1 2582   4.737   1.730   3.329
  452TCM    cl3 2583   4.568   1.802   3.483
  453TCM     c1 2584   4.825   4.813   3.573
  453TCM    cl1 2585   4.729   4.661   3.575
  453TCM    cl2 2586   4.998   4.775   3.547
  453TCM     h1 2587   4.790   4.877   3.491
  453TCM    cl3 2588   4.804   4.898   3.729
  454TCM     c1 2589   3.114   0.363   3.522
  454TCM    cl1 2590   3.152   0.531   3.470
  454TCM    cl2 2591   2.965   0.366   3.622
  454TCM     h1 2592   3.098   0.300   3.434
  454TCM    cl3 2593   3.250   0.298   3.618
  455TCM     c1 2594   4.161   3.805   1.182
  455TCM    cl1 2595   4.223   3.695   1.054
  455TCM    cl2 2596   4.134   3.713   1.333
  455TCM     h1 2597   4.234   3.885   1.200
  455TCM    cl3 2598   4.006   3.878   1.128
  456TCM     c1 2599   0.468   4.977   0.880
  456TCM    cl1 2600   0.552   4.942   1.034
  456TCM    cl2 2601   0.570   4.925   0.742
  456TCM     h1 2602   0.373   4.923   0.877
  456TCM    cl3 2603   0.436   5.154   0.869
  457TCM     c1 2604   1.959   3.915   3.368
  457TCM    cl1 2605   1.873   3.993   3.231
  457TCM    cl2 2606   1.860   3.778   3.430
  457TCM     h1 2607   2.056   3.879   3.334
  457TCM    cl3 2608   1.982   4.036   3.499
  458TCM     c1 2609   4.599   3.745   1.026
  458TCM    cl1 2610   4.532   3.868   1.138
  458TCM    cl2 2611   4.747   3.673   1.097
  458TCM     h1 2612   4.525   3.667   1.008
  458TCM    cl3 2613   4.641   3.824   0.870
  459TCM     c1 2614   2.957   4.233   4.343
  459TCM    cl1 2615   3.021   4.190   4.505
  459TCM    cl2 2616   2.985   4.096   4.230
  459TCM     h1 2617   2.849   4.252   4.351
  459TCM    cl3 2618   3.038   4.380   4.281
  460TCM     c1 2619   1.545   1.984   4.443
  460TCM    cl1 2620   1.676   2.085   4.514
  460TCM    cl2 2621   1.523   2.029   4.271
  460TCM     h1 2622   1.573   1.878   4.450
  460TCM    cl3 2623   1.393   2.012   4.534
  461TCM     c1 2624   1.218   3.536   1.621
  461TCM    cl1 2625   1.162   3.403   1.727
  461TCM    cl2 2626   1.377   3.492   1.551
  461TCM     h1 2627   1.146   3.552   1.541
  461TCM    cl3 2628   1.235   3.686   1.718
  462TCM     c1 2629   1.631   4.631   1.199
  462TCM    cl1 2630   1.493   4.647   1.312
  462TCM    cl2 2631   1.764   4.542   1.280
  462TCM     h1 2632   1.599   4.577   1.110
  462TCM    cl3 2633   1.688   4.795   1.152
  463TCM     c1 2634   3.508   4.189   3.435
  463TCM    cl1 2635   3.624   4.213   3.301
  463TCM    cl2 2636   3.412   4.040   3.410
  463TCM     h1 2637   3.562   4.182   3.530
  463TCM    cl3 2638   3.397   4.330   3.440
  464TCM     c1 2639   0.472   0.770   3.483
  464TCM    cl1 2640   0.511   0.610   3.412
  464TCM    cl2 2641   0.456   0.756   3.661
  464TCM     h1 2642   0.551   0.841   3.459
  464TCM    cl3 2643   0.316   0.828   3.413
  465TCM     c1 2644   1.705   4.244   0.421
  465TCM    cl1 2645   1.844   4.198   0.525
  465TCM    cl2 2646   1.742   4.201   0.251
  465TCM     h1 2647   1.616   4.191   0.454
  465TCM    cl3 2648   1.677   4.421   0.432
  466TCM     c1 2649   3.174   0.104   4.929
  466TCM    cl1 2650   3.101  -0.054   4.883
  466TCM    cl2 2651   3.273   0.082   5.077
  466TCM     h1 2652   3.238   0.140   4.848
  466TCM    cl3 2653   3.044   0.223   4.961
  467TCM     c1 2654   3.539   0.603   2.819
  467TCM    cl1 2655   3.604   0.436   2.824
  467TCM    cl2 2656   3.580   0.688   2.972
  467TCM     h1 2657   3.582   0.658   2.735
  467TCM    cl3 2658   3.361   0.596   2.800
  468TCM     c1 2659   0.024   4.346   3.587
  468TCM    cl1 2660   0.116   4.467   3.684
  468TCM    cl2 2661  -0.038   4.423   3.437
  468TCM     h1 2662   0.090   4.263   3.561
  468TCM    cl3 2663  -0.114   4.286   3.685
  469TCM     c1 2664   4.363   1.416   4.886
  469TCM    cl1 2665   4.281   1.335   4.748
  469TCM    cl2 2666   4.264   1.399   5.034
  469TCM     h1 2667   4.460   1.369   4.902
  469TCM    cl3 2668   4.386   1.590   4.848
  470TCM     c1 2669   0.172   0.553   2.607
  470TCM    cl1 2670   0.151   0.696   2.715
  470TCM    cl2 2671   0.300   0.589   2.487
  470TCM     h1 2672   0.200   0.466   2.667
  470TCM    cl3 2673   0.019   0.519   2.521
  471TCM     c1 2674   0.131   2.053   1.795
  471TCM    cl1 2675  -0.042   2.009   1.773
  471TCM    cl2 2676   0.215   2.034   1.638
  471TCM     h1 2677   0.138   2.156   1.829
  471TCM    cl3 2678   0.207   1.944   1.916
  472TCM     c1 2679   3.477   1.933   1.152
  472TCM    cl1 2680   3.520   2.016   0.999
  472TCM    cl2 2681   3.525   2.036   1.290
  472TCM     h1 2682   3.369   1.916   1.155
  472TCM    cl3 2683   3.563   1.776   1.161
  473TCM     c1 2684   2.685   0.776   4.268
  473TCM    cl1 2685   2.546   0.824   4.371
  473TCM    cl2 2686   2.657   0.833   4.100
  473TCM     h1 2687   2.777   0.821   4.308
  473TCM    cl3 2688   2.699   0.598   4.269
  474TCM     c1 2689   4.256   2.049   4.693
  474TCM    cl1 2690   4.363   1.918   4.634
  474TCM    cl2 2691   4.086   1.991   4.696
  474TCM     h1 2692   4.286   2.079   4.793
  474TCM    cl3 2693   4.268   2.190   4.583
  475TCM     c1 2694   3.675   0.475   2.444
  475TCM    cl1 2695   3.713   0.480   2.268
  475TCM    cl2 2696   3.499   0.502   2.466
  475TCM     h1 2697   3.703   0.378   2.485
  475TCM    cl3 2698   3.767   0.605   2.527
  476TCM     c1 2699   4.123   2.305   2.653
  476TCM    cl1 2700   3.958   2.258   2.599
  476TCM    cl2 2701   4.228   2.325   2.510
  476TCM     h1 2702   4.118   2.399   2.709
  476TCM    cl3 2703   4.189   2.176   2.759
  477TCM     c1 2704   3.641   1.452   1.350
  477TCM    cl1 2705   3.518   1.504   1.470
  477TCM    cl2 2706   3.558   1.387   1.205
  477TCM     h1 2707   3.704   1.536   1.322
  477TCM    cl3 2708   3.742   1.322   1.423
  478TCM     c1 2709   0.428   3.204   1.097
  478TCM    cl1 2710   0.295   3.128   1.191
  478TCM    cl2 2711   0.522   3.312   1.204
  478TCM     h1 2712   0.493   3.127   1.056
  478TCM    cl3 2713   0.357   3.301   0.963
  479TCM     c1 2714   2.170   3.622   4.301
  479TCM    cl1 2715   2.181   3.773   4.397
  479TCM    cl2 2716   2.274   3.637   4.155
  479TCM     h1 2717   2.203   3.537   4.361
  479TCM    cl3 2718   2.000   3.598   4.249
  480TCM     c1 2719   1.693   1.435   1.675
  480TCM    cl1 2720   1.751   1.266   1.670
  480TCM    cl2 2721   1.734   1.508   1.834
  480TCM     h1 2722   1.740   1.493   1.595
  480TCM    cl3 2723   1.515   1.438   1.655
  481TCM     c1 2724   4.233   2.278   0.116
  481TCM    cl1 2725   4.140   2.270  -0.037
  481TCM    cl2 2726   4.400   2.220   0.087
  481TCM     h1 2727   4.236   2.382   0.152
  481TCM    cl3 2728   4.155   2.174   0.240
  482TCM     c1 2729   2.629   4.675   3.131
  482TCM    cl1 2730   2.642   4.635   2.957
  482TCM    cl2 2731   2.707   4.834   3.161
  482TCM     h1 2732   2.524   4.679   3.160
  482TCM    cl3 2733   2.715   4.550   3.227
  483TCM     c1 2734   4.930   3.778   0.055
  483TCM    cl1 2735   4.992   3.640  -0.042
  483TCM    cl2 2736   5.049   3.912   0.053
  483TCM     h1 2737   4.835   3.813   0.012
  483TCM    cl3 2738   4.903   3.725   0.224
  484TCM     c1 2739   0.991   2.637   3.210
  484TCM    cl1 2740   0.979   2.459   3.194
  484TCM    cl2 2741   1.163   2.683   3.235
  484TCM     h1 2742   0.954   2.685   3.119
  484TCM    cl3 2743   0.893   2.691   3.350
  485TCM     c1 2744   2.748   2.768   1.078
  485TCM    cl1 2745   2.687   2.824   1.237
  485TCM    cl2 2746   2.707   2.888   0.952
  485TCM     h1 2747   2.857   2.755   1.083
  485TCM    cl3 2748   2.672   2.610   1.038
  486TCM     c1 2749   4.936   3.475   3.218
  486TCM    cl1 2750   4.961   3.451   3.394
  486TCM    cl2 2751   4.761   3.466   3.180
  486TCM     h1 2752   4.974   3.573   3.188
  486TCM    cl3 2753   5.024   3.346   3.128
  487TCM     c1 2754   2.079   4.666   2.869
  487TCM    cl1 2755   1.955   4.546   2.818
  487TCM    cl2 2756   2.237   4.584   2.892
  487TCM     h1 2757   2.089   4.743   2.792
  487TCM    cl3 2758   2.028   4.742   3.023
  488TCM     c1 2759   0.158   2.479   3.601
  488TCM    cl1 2760   0.263   2.356   3.678
  488TCM    cl2 2761   0.164   2.459   3.423
  488TCM     h1 2762   0.055   2.466   3.636
  488TCM    cl3 2763   0.216   2.643   3.645
  489TCM     c1 2764   1.960   1.844   3.225
  489TCM    cl1 2765   2.105   1.780   3.310
  489TCM    cl2 2766   1.988   2.017   3.183
  489TCM     h1 2767   1.943   1.787   3.133
  489TCM    cl3 2768   1.817   1.829   3.332
  490TCM     c1 2769   1.853   0.646   3.840
  490TCM    cl1 2770   1.793   0.722   3.991
  490TCM    cl2 2771   1.880   0.772   3.715
  490TCM     h1 2772   1.946   0.593   3.860
  490TCM    cl3 2773   1.730   0.530   3.779
  491TCM     c1 2774   0.784   0.097   0.428
  491TCM    cl1 2775   0.810   0.244   0.526
  491TCM    cl2 2776   0.865  -0.043   0.505
  491TCM     h1 2777   0.676   0.077   0.421
  491TCM    cl3 2778   0.850   0.121   0.263
  492TCM     c1 2779   4.018   1.201   4.241
  492TCM    cl1 2780   4.080   1.190   4.409
  492TCM    cl2 2781   4.143   1.143   4.126
  492TCM     h1 2782   3.928   1.140   4.232
  492TCM    cl3 2783   3.978   1.372   4.205
  493TCM     c1 2784   3.086   4.772   2.980
  493TCM    cl1 2785   2.978   4.724   2.845
  493TCM    cl2 2786   3.059   4.664   3.121
  493TCM     h1 2787   3.190   4.765   2.948
  493TCM    cl3 2788   3.050   4.941   3.028
  494TCM     c1 2789   1.713   2.059   2.865
  494TCM    cl1 2790   1.877   2.121   2.826
  494TCM    cl2 2791   1.634   2.170   2.981
  494TCM     h1 2792   1.654   2.054   2.773
  494TCM    cl3 2793   1.727   1.896   2.937
  495TCM     c1 2794   1.132   0.420   4.941
  495TCM    cl1 2795   1.150   0.556   4.826
  495TCM    cl2 2796   0.996   0.454   5.053
  495TCM     h1 2797   1.112   0.327   4.886
  495TCM    cl3 2798   1.283   0.402   5.037
  496TCM     c1 2799   1.889   4.418   4.389
  496TCM    cl1 2800   1.995   4.539   4.310
  496TCM    cl2 2801   1.734   4.496   4.436
  496TCM     h1 2802   1.869   4.336   4.320
  496TCM    cl3 2803   1.971   4.355   4.536
  497TCM     c1 2804   0.497   3.650   4.950
  497TCM    cl1 2805   0.372   3.752   4.872
  497TCM    cl2 2806   0.599   3.751   5.057
  497TCM     h1 2807   0.448   3.573   5.010
  497TCM    cl3 2808   0.599   3.572   4.825
  498TCM     c1 2809   0.038   2.810   1.418
  498TCM    cl1 2810  -0.007   2.912   1.559
  498TCM    cl2 2811   0.007   2.899   1.266
  498TCM     h1 2812   0.144   2.783   1.424
  498TCM    cl3 2813  -0.061   2.661   1.420
  499TCM     c1 2814   2.942   0.541   3.934
  499TCM    cl1 2815   3.003   0.535   4.103
  499TCM    cl2 2816   2.936   0.712   3.880
  499TCM     h1 2817   3.010   0.485   3.869
  499TCM    cl3 2818   2.778   0.469   3.927
  500TCM     c1 2819   4.943   1.261   1.718
  500TCM    cl1 2820   4.786   1.178   1.694
  500TCM    cl2 2821   5.077   1.142   1.707
  500TCM     h1 2822   4.956   1.338   1.641
  500TCM    cl3 2823   4.946   1.338   1.880
  501TCM     c1 2824   1.301   4.838   0.864
  501TCM    cl1 2825   1.223   4.780   0.714
  501TCM    cl2 2826   1.411   4.974   0.825
  501TCM     h1 2827   1.224   4.872   0.934
  501TCM    cl3 2828   1.395   4.705   0.939
  502TCM     c1 2829   2.485   3.029   3.790
  502TCM    cl1 2830   2.337   2.950   3.853
  502TCM    cl2 2831   2.544   2.939   3.646
  502TCM     h1 2832   2.463   3.132   3.762
  502TCM    cl3 2833   2.613   3.027   3.916
  503TCM     c1 2834   4.963   3.191   0.789
  503TCM    cl1 2835   4.878   3.062   0.698
  503TCM    cl2 2836   5.103   3.252   0.694
  503TCM     h1 2837   4.894   3.274   0.809
  503TCM    cl3 2838   5.022   3.123   0.944
  504TCM     c1 2839   1.612   0.113   4.974
  504TCM    cl1 2840   1.520  -0.039   4.951
  504TCM    cl2 2841   1.733   0.129   4.842
  504TCM     h1 2842   1.544   0.199   4.972
  504TCM    cl3 2843   1.696   0.107   5.132
  505TCM     c1 2844   0.826   1.638   2.617
  505TCM    cl1 2845   0.814   1.565   2.454
  505TCM    cl2 2846   0.998   1.669   2.657
  505TCM     h1 2847   0.770   1.732   2.620
  505TCM    cl3 2848   0.758   1.524   2.738
  506TCM     c1 2849   2.551   3.240   1.676
  506TCM    cl1 2850   2.382   3.181   1.658
  506TCM    cl2 2851   2.554   3.383   1.785
  506TCM     h1 2852   2.613   3.161   1.718
  506TCM    cl3 2853   2.615   3.287   1.515
  507TCM     c1 2854   1.314   0.338   2.677
  507TCM    cl1 2855   1.235   0.301   2.520
  507TCM    cl2 2856   1.294   0.199   2.788
  507TCM     h1 2857   1.420   0.359   2.661
  507TCM    cl3 2858   1.236   0.482   2.751
  508TCM     c1 2859   4.806   0.019   2.585
  508TCM    cl1 2860   4.642   0.004   2.655
  508TCM    cl2 2861   4.818  -0.079   2.435
  508TCM     h1 2862   4.827   0.124   2.562
  508TCM    cl3 2863   4.926  -0.041   2.705
  509TCM     c1 2864   2.317   3.990   3.117
  509TCM    cl1 2865   2.448   3.910   3.209
  509TCM    cl2 2866   2.234   4.108   3.224
  509TCM     h1 2867   2.358   4.042   3.031
  509TCM    cl3 2868   2.198   3.867   3.063
  510TCM     c1 2869   0.011   4.789   4.771
  510TCM    cl1 2870  -0.167   4.785   4.754
  510TCM    cl2 2871   0.088   4.730   4.619
  510TCM     h1 2872   0.044   4.892   4.790
  510TCM    cl3 2873   0.060   4.684   4.907
  511TCM     c1 2874   1.462   4.046   0.063
  511TCM    cl1 2875   1.335   4.018  -0.060
  511TCM    cl2 2876   1.543   3.891   0.103
  511TCM     h1 2877   1.536   4.116   0.024
  511TCM    cl3 2878   1.387   4.115   0.211
  512TCM     c1 2879   0.432   1.771   3.195
  512TCM    cl1 2880   0.525   1.747   3.347
  512TCM    cl2 2881   0.511   1.898   3.097
  512TCM     h1 2882   0.429   1.677   3.139
  512TCM    cl3 2883   0.264   1.822   3.235
  513TCM     c1 2884   4.613   0.305   4.469
  513TCM    cl1 2885   4.622   0.126   4.470
  513TCM    cl2 2886   4.769   0.374   4.525
  513TCM     h1 2887   4.592   0.340   4.367
  513TCM    cl3 2888   4.483   0.360   4.580
  514TCM     c1 2889   4.362   1.976   2.132
  514TCM    cl1 2890   4.446   1.818   2.151
  514TCM    cl2 2891   4.415   2.085   2.264
  514TCM     h1 2892   4.388   2.020   2.035
  514TCM    cl3 2893   4.185   1.951   2.142
  515TCM     c1 2894   3.326   4.644   1.387
  515TCM    cl1 2895   3.167   4.722   1.418
  515TCM    cl2 2896   3.303   4.499   1.284
  515TCM     h1 2897   3.392   4.715   1.336
  515TCM    cl3 2898   3.399   4.596   1.543
  516TCM     c1 2899   0.022   0.077   0.511
  516TCM    cl1 2900   0.086   0.116   0.674
  516TCM    cl2 2901   0.100  -0.074   0.452
  516TCM     h1 2902  -0.086   0.062   0.517
  516TCM    cl3 2903   0.058   0.211   0.397
  517TCM     c1 2904   3.876   4.870   4.973
  517TCM    cl1 2905   3.756   4.934   5.090
  517TCM    cl2 2906   3.862   4.962   4.819
  517TCM     h1 2907   3.977   4.882   5.014
  517TCM    cl3 2908   3.844   4.697   4.942
  518TCM     c1 2909   0.426   4.879   2.176
  518TCM    cl1 2910   0.319   4.994   2.262
  518TCM    cl2 2911   0.377   4.870   2.003
  518TCM     h1 2912   0.529   4.913   2.182
  518TCM    cl3 2913   0.413   4.716   2.251
  519TCM     c1 2914   2.659   4.797   4.454
  519TCM    cl1 2915   2.540   4.887   4.355
  519TCM    cl2 2916   2.644   4.847   4.625
  519TCM     h1 2917   2.640   4.690   4.444
  519TCM    cl3 2918   2.825   4.834   4.396
  520TCM     c1 2919   4.062   4.100   1.620
  520TCM    cl1 2920   4.160   4.061   1.765
  520TCM    cl2 2921   4.159   4.068   1.472
  520TCM     h1 2922   3.972   4.039   1.619
  520TCM    cl3 2923   4.017   4.274   1.624
  521TCM     c1 2924   2.869   3.334   4.955
  521TCM    cl1 2925   2.728   3.416   5.030
  521TCM    cl2 2926   2.886   3.388   4.785
  521TCM     h1 2927   2.959   3.359   5.012
  521TCM    cl3 2928   2.843   3.157   4.959
  522TCM     c1 2929   2.727   0.235   4.215
  522TCM    cl1 2930   2.614   0.170   4.092
  522TCM    cl2 2931   2.878   0.138   4.213
  522TCM     h1 2932   2.750   0.339   4.193
  522TCM    cl3 2933   2.652   0.223   4.378
  523TCM     c1 2934   2.979   2.829   1.497
  523TCM    cl1 2935   3.039   2.847   1.328
  523TCM    cl2 2936   3.108   2.879   1.612
  523TCM     h1 2937   2.891   2.892   1.511
  523TCM    cl3 2938   2.936   2.658   1.526
  524TCM     c1 2939   4.666   3.098   3.113
  524TCM    cl1 2940   4.596   2.935   3.083
  524TCM    cl2 2941   4.737   3.161   2.961
  524TCM     h1 2942   4.589   3.166   3.149
  524TCM    cl3 2943   4.795   3.083   3.237
  525TCM     c1 2944   1.316   3.614   2.988
  525TCM    cl1 2945   1.351   3.448   2.930
  525TCM    cl2 2946   1.415   3.648   3.135
  525TCM     h1 2947   1.342   3.686   2.910
  525TCM    cl3 2948   1.142   3.629   3.028
  526TCM     c1 2949   2.625   4.082   1.463
  526TCM    cl1 2950   2.462   4.104   1.536
  526TCM    cl2 2951   2.610   3.979   1.316
  526TCM     h1 2952   2.667   4.179   1.437
  526TCM    cl3 2953   2.733   4.000   1.582
  527TCM     c1 2954   4.905   1.199   2.663
  527TCM    cl1 2955   4.935   1.055   2.560
  527TCM    cl2 2956   4.729   1.211   2.698
  527TCM     h1 2957   4.960   1.188   2.757
  527TCM    cl3 2958   4.959   1.347   2.577
  528TCM     c1 2959   1.529   2.965   3.483
  528TCM    cl1 2960   1.630   2.991   3.629
  528TCM    cl2 2961   1.430   3.111   3.454
  528TCM     h1 2962   1.593   2.946   3.397
  528TCM    cl3 2963   1.419   2.825   3.509
  529TCM     c1 2964   2.916   4.579   2.083
  529TCM    cl1 2965   2.984   4.725   2.161
  529TCM    cl2 2966   3.047   4.458   2.069
  529TCM     h1 2967   2.834   4.539   2.144
  529TCM    cl3 2968   2.854   4.619   1.920
  530TCM     c1 2969   1.696   2.321   3.956
  530TCM    cl1 2970   1.574   2.330   3.824
  530TCM    cl2 2971   1.759   2.485   3.988
  530TCM     h1 2972   1.649   2.281   4.046
  530TCM    cl3 2973   1.830   2.214   3.905
  531TCM     c1 2974   1.899   3.185   3.930
  531TCM    cl1 2975   2.003   3.312   4.002
  531TCM    cl2 2976   1.961   3.143   3.767
  531TCM     h1 2977   1.899   3.096   3.994
  531TCM    cl3 2978   1.732   3.248   3.915
  532TCM     c1 2979   4.961   1.822   0.179
  532TCM    cl1 2980   5.011   1.976   0.256
  532TCM    cl2 2981   4.985   1.835   0.002
  532TCM     h1 2982   5.022   1.739   0.218
  532TCM    cl3 2983   4.788   1.791   0.215
  533TCM     c1 2984   1.913   3.085   1.991
  533TCM    cl1 2985   2.045   2.969   2.023
  533TCM    cl2 2986   1.811   3.102   2.139
  533TCM     h1 2987   1.955   3.182   1.965
  533TCM    cl3 2988   1.812   3.025   1.856
  534TCM     c1 2989   1.963   0.531   4.451
  534TCM    cl1 2990   2.108   0.637   4.463
  534TCM    cl2 2991   2.011   0.372   4.382
  534TCM     h1 2992   1.919   0.517   4.550
  534TCM    cl3 2993   1.842   0.609   4.343
  535TCM     c1 2994   0.151   4.998   3.891
  535TCM    cl1 2995   0.119   5.086   3.737
  535TCM    cl2 2996   0.308   5.053   3.957
  535TCM     h1 2997   0.071   5.018   3.963
  535TCM    cl3 2998   0.161   4.822   3.858
  536TCM     c1 2999   1.448   4.287   1.375
  536TCM    cl1 3000   1.304   4.196   1.433
  536TCM    cl2 3001   1.442   4.302   1.196
  536TCM     h1 3002   1.448   4.386   1.420
  536TCM    cl3 3003   1.597   4.199   1.422
  537TCM     c1 3004   4.923   0.713   3.773
  537TCM    cl1 3005   4.859   0.559   3.706
  537TCM    cl2 3006   5.080   0.752   3.696
  537TCM     h1 3007   4.852   0.794   3.754
  537TCM    cl3 3008   4.947   0.695   3.950
  538TCM     c1 3009   2.096   2.848   4.984
  538TCM    cl1 3010   2.218   2.887   4.858
  538TCM    cl2 3011   1.943   2.934   4.947
  538TCM     h1 3012   2.078   2.740   4.986
  538TCM    cl3 3013   2.156   2.902   5.144
  539TCM     c1 3014   2.564   4.312   1.036
  539TCM    cl1 3015   2.543   4.322   1.214
  539TCM    cl2 3016   2.403   4.290   0.958
  539TCM     h1 3017   2.609   4.404   0.999
  539TCM    cl3 3018   2.668   4.172   0.995
  540TCM     c1 3019   1.491   0.819   3.707
  540TCM    cl1 3020   1.389   0.914   3.595
  540TCM    cl2 3021   1.406   0.667   3.748
  540TCM     h1 3022   1.587   0.796   3.660
  540TCM    cl3 3023   1.520   0.915   3.856
  541TCM     c1 3024   1.397   1.009   2.546
  541TCM    cl1 3025   1.296   1.039   2.401
  541TCM    cl2 3026   1.444   1.167   2.615
  541TCM     h1 3027   1.341   0.952   2.620
  541TCM    cl3 3028   1.545   0.918   2.499
  542TCM     c1 3029   1.431   3.000   3.050
  542TCM    cl1 3030   1.502   2.866   3.144
  542TCM    cl2 3031   1.514   3.153   3.092
  542TCM     h1 3032   1.443   2.981   2.943
  542TCM    cl3 3033   1.256   3.015   3.089
  543TCM     c1 3034   3.652   4.565   2.674
  543TCM    cl1 3035   3.563   4.421   2.735
  543TCM    cl2 3036   3.814   4.573   2.751
  543TCM     h1 3037   3.664   4.558   2.566
  543TCM    cl3 3038   3.558   4.712   2.714
  544TCM     c1 3039   2.643   0.018   0.372
  544TCM    cl1 3040   2.791  -0.043   0.291
  544TCM    cl2 3041   2.685   0.074   0.537
  544TCM     h1 3042   2.601   0.101   0.314
  544TCM    cl3 3043   2.522  -0.113   0.384
  545TCM     c1 3044   1.450   3.476   3.861
  545TCM    cl1 3045   1.496   3.649   3.879
  545TCM    cl2 3046   1.500   3.419   3.698
  545TCM     h1 3047   1.500   3.417   3.937
  545TCM    cl3 3048   1.272   3.460   3.878
  546TCM     c1 3049   2.071   2.177   1.122
  546TCM    cl1 3050   2.054   2.147   1.299
  546TCM    cl2 3051   2.054   2.353   1.091
  546TCM     h1 3052   2.170   2.144   1.089
  546TCM    cl3 3053   1.944   2.088   1.034
  547TCM     c1 3054   2.975   4.945   3.385
  547TCM    cl1 3055   3.140   5.014   3.380
  547TCM    cl2 3056   2.861   5.072   3.440
  547TCM     h1 3057   2.946   4.910   3.285
  547TCM    cl3 3058   2.972   4.807   3.500
  548TCM     c1 3059   1.892   0.980   1.898
  548TCM    cl1 3060   1.874   1.125   2.002
  548TCM    cl2 3061   2.012   1.015   1.769
  548TCM     h1 3062   1.927   0.895   1.958
  548TCM    cl3 3063   1.734   0.939   1.823
  549TCM     c1 3064   1.868   2.497   0.181
  549TCM    cl1 3065   1.879   2.671   0.224
  549TCM    cl2 3066   1.957   2.400   0.303
  549TCM     h1 3067   1.763   2.466   0.179
  549TCM    cl3 3068   1.941   2.472   0.020
  550TCM     c1 3069   2.928   2.415   4.258
  550TCM    cl1 3070   2.790   2.465   4.155
  550TCM    cl2 3071   2.878   2.277   4.362
  550TCM     h1 3072   3.011   2.384   4.195
  550TCM    cl3 3073   2.978   2.552   4.362
  551TCM     c1 3074   0.681   0.279   1.838
  551TCM    cl1 3075   0.858   0.307   1.828
  551TCM    cl2 3076   0.643   0.114   1.776
  551TCM     h1 3077   0.649   0.287   1.942
  551TCM    cl3 3078   0.594   0.400   1.738
  552TCM     c1 3079   0.025   2.972   3.684
  552TCM    cl1 3080   0.131   2.979   3.829
  552TCM    cl2 3081  -0.057   3.131   3.665
  552TCM     h1 3082   0.086   2.951   3.596
  552TCM    cl3 3083  -0.098   2.844   3.706
  553TCM     c1 3084   4.479   4.588   0.431
  553TCM    cl1 3085   4.307   4.537   0.434
  553TCM    cl2 3086   4.495   4.741   0.338
  553TCM     h1 3087   4.514   4.604   0.533
  553TCM    cl3 3088   4.578   4.460   0.353
  554TCM     c1 3089   0.210   4.074   0.742
  554TCM    cl1 3090   0.173   4.223   0.650
  554TCM    cl2 3091   0.352   4.105   0.848
  554TCM     h1 3092   0.124   4.046   0.804
  554TCM    cl3 3093   0.248   3.940   0.628
  555TCM     c1 3094   1.746   2.162   3.530
  555TCM    cl1 3095   1.704   2.177   3.356
  555TCM    cl2 3096   1.920   2.121   3.546
  555TCM     h1 3097   1.726   2.257   3.580
  555TCM    cl3 3098   1.648   2.032   3.605
  556TCM     c1 3099   0.472   3.725   0.896
  556TCM    cl1 3100   0.402   3.619   0.769
  556TCM    cl2 3101   0.590   3.632   0.993
  556TCM     h1 3102   0.521   3.811   0.849
  556TCM    cl3 3103   0.340   3.783   1.003
  557TCM     c1 3104   1.240   3.627   0.192
  557TCM    cl1 3105   1.394   3.541   0.228
  557TCM    cl2 3106   1.235   3.665   0.017
  557TCM     h1 3107   1.156   3.562   0.218
  557TCM    cl3 3108   1.232   3.778   0.287
  558TCM     c1 3109   2.625   2.280   1.983
  558TCM    cl1 3110   2.485   2.212   2.072
  558TCM    cl2 3111   2.743   2.348   2.100
  558TCM     h1 3112   2.673   2.201   1.925
  558TCM    cl3 3113   2.568   2.410   1.873
  559TCM     c1 3114   1.541   2.734   2.132
  559TCM    cl1 3115   1.522   2.889   2.043
  559TCM    cl2 3116   1.410   2.720   2.253
  559TCM     h1 3117   1.536   2.651   2.062
  559TCM    cl3 3118   1.699   2.732   2.217
  560TCM     c1 3119   3.332   4.727   1.974
  560TCM    cl1 3120   3.481   4.628   1.953
  560TCM    cl2 3121   3.218   4.691   1.840
  560TCM     h1 3122   3.285   4.703   2.069
  560TCM    cl3 3123   3.376   4.900   1.970
  561TCM     c1 3124   0.898   2.449   3.981
  561TCM    cl1 3125   0.769   2.341   4.043
  561TCM    cl2 3126   0.971   2.375   3.835
  561TCM     h1 3127   0.855   2.546   3.955
  561TCM    cl3 3128   1.024   2.470   4.107
  562TCM     c1 3129   4.643   2.985   4.566
  562TCM    cl1 3130   4.676   3.050   4.730
  562TCM    cl2 3131   4.735   2.833   4.544
  562TCM     h1 3132   4.536   2.965   4.555
  562TCM    cl3 3133   4.694   3.104   4.442
  563TCM     c1 3134   4.586   1.304   3.606
  563TCM    cl1 3135   4.531   1.275   3.774
  563TCM    cl2 3136   4.473   1.222   3.492
  563TCM     h1 3137   4.585   1.411   3.586
  563TCM    cl3 3138   4.751   1.239   3.584
  564TCM     c1 3139   4.588   1.633   2.463
  564TCM    cl1 3140   4.714   1.708   2.360
  564TCM    cl2 3141   4.464   1.755   2.507
  564TCM     h1 3142   4.540   1.552   2.408
  564TCM    cl3 3143   4.664   1.569   2.611
  565TCM     c1 3144   1.258   2.683   4.985
  565TCM    cl1 3145   1.113   2.789   4.984
  565TCM    cl2 3146   1.402   2.777   4.932
  565TCM     h1 3147   1.274   2.644   5.086
  565TCM    cl3 3148   1.232   2.547   4.871
  566TCM     c1 3149   3.955   1.819   2.727
  566TCM    cl1 3150   4.023   1.869   2.885
  566TCM    cl2 3151   4.083   1.831   2.601
  566TCM     h1 3152   3.921   1.715   2.734
  566TCM    cl3 3153   3.817   1.925   2.686
  567TCM     c1 3154   2.632   4.676   0.663
  567TCM    cl1 3155   2.605   4.506   0.716
  567TCM    cl2 3156   2.808   4.709   0.655
  567TCM     h1 3157   2.588   4.690   0.564
  567TCM    cl3 3158   2.556   4.789   0.780
  568TCM     c1 3159   1.570   3.753   0.466
  568TCM    cl1 3160   1.559   3.930   0.493
  568TCM    cl2 3161   1.454   3.669   0.574
  568TCM     h1 3162   1.546   3.731   0.361
  568TCM    cl3 3163   1.736   3.697   0.503
  569TCM     c1 3164   4.879   2.574   4.856
  569TCM    cl1 3165   4.800   2.726   4.910
  569TCM    cl2 3166   4.793   2.510   4.712
  569TCM     h1 3167   4.983   2.593   4.831
  569TCM    cl3 3168   4.870   2.453   4.988
  570TCM     c1 3169   2.906   0.252   2.784
  570TCM    cl1 3170   2.757   0.307   2.702
  570TCM    cl2 3171   3.041   0.363   2.744
  570TCM     h1 3172   2.891   0.250   2.892
  570TCM    cl3 3173   2.949   0.088   2.726
  571TCM     c1 3174   4.999   3.824   3.457
  571TCM    cl1 3175   5.040   3.986   3.521
  571TCM    cl2 3176   5.100   3.791   3.313
  571TCM     h1 3177   5.019   3.748   3.534
  571TCM    cl3 3178   4.826   3.819   3.411
  572TCM     c1 3179   1.330   0.858   2.961
  572TCM    cl1 3180   1.267   1.016   2.903
  572TCM    cl2 3181   1.429   0.782   2.832
  572TCM     h1 3182   1.392   0.873   3.050
  572TCM    cl3 3183   1.192   0.751   3.003
  573TCM     c1 3184   2.819   2.876   4.302
  573TCM    cl1 3185   2.728   3.022   4.253
  573TCM    cl2 3186   2.758   2.819   4.461
  573TCM     h1 3187   2.806   2.798   4.227
  573TCM    cl3 3188   2.993   2.918   4.316
  574TCM     c1 3189   2.106   3.984   0.250
  574TCM    cl1 3190   2.087   4.095   0.111
  574TCM    cl2 3191   1.948   3.912   0.294
  574TCM     h1 3192   2.176   3.904   0.224
  574TCM    cl3 3193   2.171   4.077   0.389
  575TCM     c1 3194   3.355   1.642   4.856
  575TCM    cl1 3195   3.360   1.604   5.032
  575TCM    cl2 3196   3.232   1.770   4.828
  575TCM     h1 3197   3.453   1.677   4.824
  575TCM    cl3 3198   3.310   1.494   4.765
  576TCM     c1 3199   2.082   1.643   3.745
  576TCM    cl1 3200   1.969   1.759   3.669
  576TCM    cl2 3201   1.993   1.496   3.796
  576TCM     h1 3202   2.160   1.616   3.673
  576TCM    cl3 3203   2.158   1.720   3.889
  577TCM     c1 3204   1.089   0.725   2.472
  577TCM    cl1 3205   1.095   0.811   2.630
  577TCM    cl2 3206   0.984   0.580   2.486
  577TCM     h1 3207   1.048   0.792   2.396
  577TCM    cl3 3208   1.255   0.676   2.425
  578TCM     c1 3209   2.478   4.182   4.860
  578TCM    cl1 3210   2.428   4.038   4.954
  578TCM    cl2 3211   2.356   4.216   4.733
  578TCM     h1 3212   2.487   4.268   4.926
  578TCM    cl3 3213   2.637   4.149   4.782
  579TCM     c1 3214   2.180   4.380   1.296
  579TCM    cl1 3215   2.142   4.541   1.367
  579TCM    cl2 3216   2.089   4.358   1.143
  579TCM     h1 3217   2.288   4.374   1.276
  579TCM    cl3 3218   2.134   4.252   1.413
  580TCM     c1 3219   0.790   2.284   4.907
  580TCM    cl1 3220   0.681   2.328   4.772
  580TCM    cl2 3221   0.695   2.221   5.045
  580TCM     h1 3222   0.861   2.208   4.874
  580TCM    cl3 3223   0.879   2.430   4.962
  581TCM     c1 3224   1.444   1.092   1.588
  581TCM    cl1 3225   1.280   1.158   1.620
  581TCM    cl2 3226   1.499   1.146   1.426
  581TCM     h1 3227   1.514   1.128   1.664
  581TCM    cl3 3228   1.438   0.913   1.591
  582TCM     c1 3229   0.372   3.357   3.245
  582TCM    cl1 3230   0.333   3.515   3.322
  582TCM    cl2 3231   0.487   3.266   3.349
  582TCM     h1 3232   0.280   3.299   3.233
  582TCM    cl3 3233   0.446   3.385   3.085
  583TCM     c1 3234   2.036   4.876   1.097
  583TCM    cl1 3235   2.065   4.890   1.273
  583TCM    cl2 3236   2.026   4.703   1.051
  583TCM     h1 3237   1.942   4.926   1.071
  583TCM    cl3 3238   2.172   4.953   1.009
  584TCM     c1 3239   0.292   4.991   3.425
  584TCM    cl1 3240   0.293   5.164   3.379
  584TCM    cl2 3241   0.418   4.962   3.550
  584TCM     h1 3242   0.194   4.963   3.464
  584TCM    cl3 3243   0.328   4.891   3.279
  585TCM     c1 3244   2.953   3.919   1.233
  585TCM    cl1 3245   2.961   4.091   1.282
  585TCM    cl2 3246   3.107   3.837   1.273
  585TCM     h1 3247   2.871   3.870   1.287
  585TCM    cl3 3248   2.924   3.909   1.056
  586TCM     c1 3249   1.187   3.044   3.760
  586TCM    cl1 3250   1.165   2.868   3.785
  586TCM    cl2 3251   1.351   3.091   3.815
  586TCM     h1 3252   1.176   3.068   3.654
  586TCM    cl3 3253   1.065   3.134   3.856
  587TCM     c1 3254   0.820   3.513   0.242
  587TCM    cl1 3255   0.859   3.349   0.303
  587TCM    cl2 3256   0.890   3.532   0.078
  587TCM     h1 3257   0.712   3.527   0.237
  587TCM    cl3 3258   0.892   3.636   0.351
  588TCM     c1 3259   0.196   2.150   4.984
  588TCM    cl1 3260   0.180   2.279   5.108
  588TCM    cl2 3261   0.352   2.168   4.899
  588TCM     h1 3262   0.192   2.052   5.032
  588TCM    cl3 3263   0.063   2.165   4.865
  589TCM     c1 3264   0.705   0.187   2.345
  589TCM    cl1 3265   0.579   0.313   2.359
  589TCM    cl2 3266   0.715   0.133   2.174
  589TCM     h1 3267   0.801   0.227   2.378
  589TCM    cl3 3268   0.657   0.047   2.447
  590TCM     c1 3269   0.809   1.192   3.927
  590TCM    cl1 3270   0.736   1.187   3.763
  590TCM    cl2 3271   0.696   1.272   4.042
  590TCM     h1 3272   0.829   1.090   3.961
  590TCM    cl3 3273   0.963   1.285   3.921
  591TCM     c1 3274   1.042   1.708   4.756
  591TCM    cl1 3275   1.151   1.697   4.614
  591TCM    cl2 3276   1.122   1.805   4.884
  591TCM     h1 3277   0.948   1.756   4.727
  591TCM    cl3 3278   1.008   1.544   4.820
  592TCM     c1 3279   2.085   3.278   0.027
  592TCM    cl1 3280   2.145   3.248  -0.140
  592TCM    cl2 3281   2.014   3.442   0.036
  592TCM     h1 3282   2.009   3.203   0.053
  592TCM    cl3 3283   2.222   3.266   0.143
  593TCM     c1 3284   1.196   0.317   0.540
  593TCM    cl1 3285   1.127   0.350   0.377
  593TCM    cl2 3286   1.180   0.142   0.577
  593TCM     h1 3287   1.301   0.345   0.541
  593TCM    cl3 3288   1.106   0.412   0.663
  594TCM     c1 3289   0.319   3.668   0.376
  594TCM    cl1 3290   0.264   3.654   0.206
  594TCM    cl2 3291   0.486   3.604   0.389
  594TCM     h1 3292   0.317   3.772   0.407
  594TCM    cl3 3293   0.208   3.572   0.480
  595TCM     c1 3294   3.129   0.910   3.191
  595TCM    cl1 3295   2.999   0.822   3.278
  595TCM    cl2 3296   3.055   1.034   3.084
  595TCM     h1 3297   3.195   0.959   3.263
  595TCM    cl3 3298   3.224   0.794   3.093
  596TCM     c1 3299   2.790   4.535   0.132
  596TCM    cl1 3300   2.721   4.583   0.290
  596TCM    cl2 3301   2.863   4.678   0.052
  596TCM     h1 3302   2.867   4.459   0.147
  596TCM    cl3 3303   2.660   4.469   0.027
  597TCM     c1 3304   2.745   0.967   2.839
  597TCM    cl1 3305   2.592   0.938   2.749
  597TCM    cl2 3306   2.739   0.876   2.994
  597TCM     h1 3307   2.829   0.932   2.780
  597TCM    cl3 3308   2.762   1.142   2.870
  598TCM     c1 3309   2.780   3.967   0.721
  598TCM    cl1 3310   2.904   4.094   0.697
  598TCM    cl2 3311   2.847   3.808   0.674
  598TCM     h1 3312   2.750   3.965   0.826
  598TCM    cl3 3313   2.636   4.005   0.619
  599TCM     c1 3314   4.504   4.240   0.817
  599TCM    cl1 3315   4.612   4.176   0.945
  599TCM    cl2 3316   4.406   4.106   0.749
  599TCM     h1 3317   4.438   4.316   0.861
  599TCM    cl3 3318   4.603   4.314   0.687
  600TCM     c1 3319   4.449   2.601   4.889
  600TCM    cl1 3320   4.309   2.619   5.000
  600TCM    cl2 3321   4.456   2.742   4.779
  600TCM     h1 3322   4.542   2.594   4.947
  600TCM    cl3 3323   4.428   2.452   4.792
  601TCM     c1 3324   2.547   0.888   1.771
  601TCM    cl1 3325   2.376   0.899   1.717
  601TCM    cl2 3326   2.551   0.841   1.944
  601TCM     h1 3327   2.599   0.813   1.711
  601TCM    cl3 3328   2.626   1.047   1.750
  602TCM     c1 3329   3.259   4.428   2.422
  602TCM    cl1 3330   3.371   4.293   2.456
  602TCM    cl2 3331   3.331   4.538   2.300
  602TCM     h1 3332   3.165   4.389   2.384
  602TCM    cl3 3333   3.230   4.520   2.573
  603TCM     c1 3334   3.129   3.747   4.080
  603TCM    cl1 3335   3.240   3.884   4.046
  603TCM    cl2 3336   3.194   3.650   4.216
  603TCM     h1 3337   3.030   3.786   4.105
  603TCM    cl3 3338   3.119   3.643   3.934
  604TCM     c1 3339   4.011   0.283   4.875
  604TCM    cl1 3340   4.158   0.383   4.893
  604TCM    cl2 3341   3.939   0.310   4.712
  604TCM     h1 3342   4.037   0.178   4.885
  604TCM    cl3 3343   3.891   0.327   5.001
  605TCM     c1 3344   1.744   3.299   3.441
  605TCM    cl1 3345   1.628   3.404   3.354
  605TCM    cl2 3346   1.893   3.393   3.477
  605TCM     h1 3347   1.700   3.264   3.534
  605TCM    cl3 3348   1.787   3.159   3.338
  606TCM     c1 3349   0.543   2.407   1.525
  606TCM    cl1 3350   0.444   2.551   1.482
  606TCM    cl2 3351   0.716   2.442   1.494
  606TCM     h1 3352   0.529   2.383   1.631
  606TCM    cl3 3353   0.490   2.268   1.425
  607TCM     c1 3354   0.134   4.184   2.862
  607TCM    cl1 3355   0.070   4.215   2.698
  607TCM    cl2 3356   0.289   4.272   2.883
  607TCM     h1 3357   0.062   4.219   2.937
  607TCM    cl3 3358   0.163   4.008   2.884
  608TCM     c1 3359   2.226   3.396   1.098
  608TCM    cl1 3360   2.089   3.446   1.203
  608TCM    cl2 3361   2.377   3.392   1.194
  608TCM     h1 3362   2.206   3.296   1.058
  608TCM    cl3 3363   2.243   3.512   0.962
  609TCM     c1 3364   0.083   1.340   2.200
  609TCM    cl1 3365  -0.013   1.191   2.225
  609TCM    cl2 3366   0.221   1.342   2.314
  609TCM     h1 3367   0.121   1.341   2.097
  609TCM    cl3 3368  -0.020   1.484   2.227
  610TCM     c1 3369   3.697   3.105   3.961
  610TCM    cl1 3370   3.693   2.986   3.827
  610TCM    cl2 3371   3.672   3.022   4.118
  610TCM     h1 3372   3.794   3.156   3.961
  610TCM    cl3 3373   3.567   3.227   3.936
  611TCM     c1 3374   1.242   3.446   3.413
  611TCM    cl1 3375   1.175   3.350   3.548
  611TCM    cl2 3376   1.149   3.599   3.398
  611TCM     h1 3377   1.347   3.469   3.431
  611TCM    cl3 3378   1.226   3.351   3.261
  612TCM     c1 3379   2.225   3.422   2.069
  612TCM    cl1 3380   2.049   3.409   2.099
  612TCM    cl2 3381   2.254   3.546   1.942
  612TCM     h1 3382   2.276   3.451   2.161
  612TCM    cl3 3383   2.287   3.263   2.014
  613TCM     c1 3384   4.654   0.676   2.548
  613TCM    cl1 3385   4.657   0.499   2.517
  613TCM    cl2 3386   4.707   0.764   2.401
  613TCM     h1 3387   4.552   0.707   2.573
  613TCM    cl3 3388   4.762   0.717   2.685
  614TCM     c1 3389   4.844   1.936   0.987
  614TCM    cl1 3390   4.736   1.969   0.847
  614TCM    cl2 3391   4.972   2.062   0.994
  614TCM     h1 3392   4.786   1.937   1.079
  614TCM    cl3 3393   4.921   1.775   0.966
  615TCM     c1 3394   2.905   3.888   4.827
  615TCM    cl1 3395   2.952   3.733   4.904
  615TCM    cl2 3396   2.916   3.871   4.649
  615TCM     h1 3397   2.803   3.914   4.856
  615TCM    cl3 3398   3.018   4.017   4.880
  616TCM     c1 3399   2.981   3.986   3.691
  616TCM    cl1 3400   3.137   3.898   3.673
  616TCM    cl2 3401   2.925   3.975   3.861
  616TCM     h1 3402   2.996   4.091   3.664
  616TCM    cl3 3403   2.858   3.914   3.582
  617TCM     c1 3404   2.190   4.374   1.780
  617TCM    cl1 3405   2.328   4.428   1.678
  617TCM    cl2 3406   2.176   4.195   1.772
  617TCM     h1 3407   2.207   4.405   1.883
  617TCM    cl3 3408   2.039   4.449   1.719
  618TCM     c1 3409   1.316   1.665   0.279
  618TCM    cl1 3410   1.259   1.652   0.449
  618TCM    cl2 3411   1.293   1.834   0.222
  618TCM     h1 3412   1.421   1.638   0.273
  618TCM    cl3 3413   1.219   1.553   0.176
  619TCM     c1 3414   0.183   2.613   4.086
  619TCM    cl1 3415   0.239   2.781   4.114
  619TCM    cl2 3416   0.316   2.518   4.011
  619TCM     h1 3417   0.154   2.568   4.181
  619TCM    cl3 3418   0.042   2.616   3.975
  620TCM     c1 3419   0.501   1.275   4.462
  620TCM    cl1 3420   0.547   1.445   4.497
  620TCM    cl2 3421   0.649   1.175   4.449
  620TCM     h1 3422   0.438   1.237   4.543
  620TCM    cl3 3423   0.411   1.269   4.307
  621TCM     c1 3424   0.003   2.686   0.449
  621TCM    cl1 3425  -0.087   2.681   0.294
  621TCM    cl2 3426   0.140   2.570   0.443
  621TCM     h1 3427   0.042   2.787   0.464
  621TCM    cl3 3428  -0.106   2.642   0.584
  622TCM     c1 3429   1.910   3.966   4.776
  622TCM    cl1 3430   1.875   3.850   4.908
  622TCM    cl2 3431   2.086   3.967   4.741
  622TCM     h1 3432   1.855   3.936   4.686
  622TCM    cl3 3433   1.857   4.130   4.826
  623TCM     c1 3434   3.002   3.597   3.503
  623TCM    cl1 3435   2.840   3.561   3.436
  623TCM    cl2 3436   3.104   3.671   3.375
  623TCM     h1 3437   2.992   3.667   3.586
  623TCM    cl3 3438   3.078   3.446   3.562
  624TCM     c1 3439   2.791   4.100   0.301
  624TCM    cl1 3440   2.899   3.958   0.317
  624TCM    cl2 3441   2.755   4.128   0.127
  624TCM     h1 3442   2.698   4.082   0.355
  624TCM    cl3 3443   2.872   4.246   0.367
  625TCM     c1 3444   3.292   4.132   0.322
  625TCM    cl1 3445   3.245   4.005   0.204
  625TCM    cl2 3446   3.467   4.119   0.360
  625TCM     h1 3447   3.271   4.230   0.279
  625TCM    cl3 3448   3.197   4.110   0.472
  626TCM     c1 3449   2.274   3.581   0.562
  626TCM    cl1 3450   2.223   3.678   0.420
  626TCM    cl2 3451   2.402   3.670   0.651
  626TCM     h1 3452   2.189   3.563   0.628
  626TCM    cl3 3453   2.339   3.424   0.504
  627TCM     c1 3454   3.924   3.993   3.696
  627TCM    cl1 3455   3.907   4.088   3.848
  627TCM    cl2 3456   3.816   4.063   3.571
  627TCM     h1 3457   4.027   3.996   3.662
  627TCM    cl3 3458   3.875   3.823   3.727
  628TCM     c1 3459   4.969   4.496   4.061
  628TCM    cl1 3460   4.854   4.426   4.179
  628TCM    cl2 3461   5.078   4.610   4.147
  628TCM     h1 3462   5.029   4.416   4.016
  628TCM    cl3 3463   4.879   4.582   3.933
  629TCM     c1 3464   3.977   4.903   3.219
  629TCM    cl1 3465   3.981   4.753   3.317
  629TCM    cl2 3466   4.009   5.045   3.324
  629TCM     h1 3467   4.053   4.898   3.141
  629TCM    cl3 3468   3.815   4.921   3.143
  630TCM     c1 3469   1.486   2.509   3.296
  630TCM    cl1 3470   1.641   2.520   3.206
  630TCM    cl2 3471   1.519   2.474   3.469
  630TCM     h1 3472   1.432   2.604   3.288
  630TCM    cl3 3473   1.386   2.377   3.226
  631TCM     c1 3474   4.759   4.514   2.472
  631TCM    cl1 3475   4.703   4.602   2.326
  631TCM    cl2 3476   4.739   4.618   2.617
  631TCM     h1 3477   4.699   4.423   2.485
  631TCM    cl3 3478   4.931   4.470   2.452
  632TCM     c1 3479   2.248   0.611   1.950
  632TCM    cl1 3480   2.099   0.666   1.866
  632TCM    cl2 3481   2.359   0.538   1.830
  632TCM     h1 3482   2.296   0.696   1.998
  632TCM    cl3 3483   2.205   0.488   2.073
  633TCM     c1 3484   0.176   2.128   2.665
  633TCM    cl1 3485   0.097   2.078   2.511
  633TCM    cl2 3486   0.253   1.987   2.743
  633TCM     h1 3487   0.251   2.204   2.644
  633TCM    cl3 3488   0.051   2.195   2.776
  634TCM     c1 3489   0.938   3.840   0.683
  634TCM    cl1 3490   0.963   3.944   0.539
  634TCM    cl2 3491   1.058   3.707   0.683
  634TCM     h1 3492   0.949   3.900   0.774
  634TCM    cl3 3493   0.772   3.770   0.678
  635TCM     c1 3494   2.525   3.054   0.404
  635TCM    cl1 3495   2.570   3.194   0.302
  635TCM    cl2 3496   2.347   3.053   0.431
  635TCM     h1 3497   2.555   2.961   0.354
  635TCM    cl3 3498   2.608   3.066   0.563
  636TCM     c1 3499   0.371   0.543   0.536
  636TCM    cl1 3500   0.541   0.491   0.558
  636TCM    cl2 3501   0.264   0.451   0.648
  636TCM     h1 3502   0.362   0.650   0.556
  636TCM    cl3 3503   0.321   0.510   0.366
  637TCM     c1 3504   4.945   1.714   2.825
  637TCM    cl1 3505   5.063   1.581   2.840
  637TCM    cl2 3506   4.957   1.786   2.661
  637TCM     h1 3507   4.844   1.676   2.840
  637TCM    cl3 3508   4.981   1.840   2.948
  638TCM     c1 3509   2.392   0.773   3.076
  638TCM    cl1 3510   2.357   0.695   2.918
  638TCM    cl2 3511   2.311   0.682   3.208
  638TCM     h1 3512   2.500   0.773   3.093
  638TCM    cl3 3513   2.330   0.941   3.074
  639TCM     c1 3514   4.770   0.814   2.020
  639TCM    cl1 3515   4.873   0.955   1.980
  639TCM    cl2 3516   4.783   0.693   1.887
  639TCM     h1 3517   4.804   0.769   2.114
  639TCM    cl3 3518   4.599   0.866   2.038
  640TCM     c1 3519   3.649   0.498   4.629
  640TCM    cl1 3520   3.756   0.535   4.490
  640TCM    cl2 3521   3.479   0.537   4.585
  640TCM     h1 3522   3.656   0.392   4.654
  640TCM    cl3 3523   3.699   0.597   4.770
  641TCM     c1 3524   4.928   0.709   4.742
  641TCM    cl1 3525   4.950   0.756   4.570
  641TCM    cl2 3526   5.028   0.817   4.846
  641TCM     h1 3527   4.823   0.720   4.769
  641TCM    cl3 3528   4.980   0.539   4.766
  642TCM     c1 3529   2.698   0.414   1.272
  642TCM    cl1 3530   2.642   0.494   1.122
  642TCM    cl2 3531   2.797   0.529   1.368
  642TCM     h1 3532   2.612   0.382   1.331
  642TCM    cl3 3533   2.796   0.270   1.229
  643TCM     c1 3534   1.852   1.176   3.657
  643TCM    cl1 3535   1.865   1.136   3.832
  643TCM    cl2 3536   1.706   1.097   3.589
  643TCM     h1 3537   1.844   1.284   3.645
  643TCM    cl3 3538   1.997   1.115   3.572
  644TCM     c1 3539   3.242   1.197   2.006
  644TCM    cl1 3540   3.303   1.320   1.890
  644TCM    cl2 3541   3.347   1.195   2.152
  644TCM     h1 3542   3.140   1.222   2.035
  644TCM    cl3 3543   3.244   1.035   1.929
   5.00000   5.00000   5.00000
