;
;   File mop_octamer_system_bespoke_hmr.top  was generated
;   By user: tlf3 (1000)
;   On host:647TRCJM3 
;   At date:Thu. March  4 16:10:22 2026 
;
;   This is a standalone topology file
;
;   Created by:
;   ParmEd:       hmr_topology, VERSION4.3.0 
;   Executable:   hmr_topology
;   Library dir:  /home/tlf3/miniforge3/envs/terphenyl/share/gromacs/top
;   Command line:
;     hmr_topology -t mop_octamer_system_bespoke.top -o mop_octamer_system_bespoke_hmr.top --hmr_ratio 3
;

[ defaults ]
; nbfunc        comb-rule       gen-pairs       fudgeLJ fudgeQQ
1               2               yes             0.5          0.833333    

[ atomtypes ]
; name    at.num    mass    charge ptype  sigma      epsilon
em_helix_mop_octamer_0        6  12.010780  0.00000000  A     0.34806469     0.36350306
em_helix_mop_octamer_1        8  15.999430  0.00000000  A     0.30398122     0.87950233
em_helix_mop_octamer_2        6  12.010780  0.00000000  A     0.34806469     0.36350306
em_helix_mop_octamer_3        6  12.010780  0.00000000  A     0.34806469     0.36350306
em_helix_mop_octamer_4        6  12.010780  0.00000000  A     0.34806469     0.36350306
em_helix_mop_octamer_5        6  12.010780  0.00000000  A     0.34806469     0.36350306
em_helix_mop_octamer_6        6  12.010780  0.00000000  A     0.34806469     0.36350306
em_helix_mop_octamer_7        6  12.010780  0.00000000  A     0.34806469     0.36350306
em_helix_mop_octamer_8        6  12.010780  0.00000000  A     0.34806469     0.36350306
em_helix_mop_octamer_9        6  12.010780  0.00000000  A     0.34806469     0.36350306
em_helix_mop_octamer_10        8  15.999430  0.00000000  A     0.30251065     0.70485815
em_helix_mop_octamer_11        6  12.010780  0.00000000  A     0.33996695      0.4577296
em_helix_mop_octamer_12        6  12.010780  0.00000000  A     0.34806469     0.36350306
em_helix_mop_octamer_13        6  12.010780  0.00000000  A     0.34806469     0.36350306
em_helix_mop_octamer_14        6  12.010780  0.00000000  A     0.34806469     0.36350306
em_helix_mop_octamer_15        6  12.010780  0.00000000  A     0.34806469     0.36350306
em_helix_mop_octamer_16        6  12.010780  0.00000000  A     0.34806469     0.36350306
em_helix_mop_octamer_17        6  12.010780  0.00000000  A     0.34806469     0.36350306
em_helix_mop_octamer_18        6  12.010780  0.00000000  A     0.34806469     0.36350306
em_helix_mop_octamer_19        6  12.010780  0.00000000  A     0.34806469     0.36350306
em_helix_mop_octamer_20        6  12.010780  0.00000000  A     0.33996695      0.4577296
em_helix_mop_octamer_21        7  14.006720  0.00000000  A      0.3206876      0.7016213
em_helix_mop_octamer_22        6  12.010780  0.00000000  A     0.33996695      0.4577296
em_helix_mop_octamer_23        6  12.010780  0.00000000  A     0.34806469     0.36350306
em_helix_mop_octamer_24        6  12.010780  0.00000000  A     0.34806469     0.36350306
em_helix_mop_octamer_25        1   1.007947  0.00000000  A     0.25725815     0.06531786
em_helix_mop_octamer_26        1   1.007947  0.00000000  A     0.25725815     0.06531786
em_helix_mop_octamer_27        1   1.007947  0.00000000  A     0.25725815     0.06531786
em_helix_mop_octamer_28        1   1.007947  0.00000000  A     0.25832257    0.068656285
em_helix_mop_octamer_29        1   1.007947  0.00000000  A     0.25832257    0.068656285
em_helix_mop_octamer_30        1   1.007947  0.00000000  A     0.25832257    0.068656285
em_helix_mop_octamer_31        1   1.007947  0.00000000  A     0.25725815     0.06531786
em_helix_mop_octamer_32        1   1.007947  0.00000000  A     0.25725815     0.06531786
em_helix_mop_octamer_33        1   1.007947  0.00000000  A     0.25725815     0.06531786
em_helix_mop_octamer_34        1   1.007947  0.00000000  A     0.25725815     0.06531786
em_helix_mop_octamer_35        1   1.007947  0.00000000  A     0.25725815     0.06531786
em_helix_mop_octamer_36        1   1.007947  0.00000000  A     0.25725815     0.06531786
em_helix_mop_octamer_37        1   1.007947  0.00000000  A     0.25832257    0.068656285
em_helix_mop_octamer_38        1   1.007947  0.00000000  A     0.11034277    0.058955969
em_helix_mop_octamer_39        1   1.007947  0.00000000  A     0.26445434    0.066021356
em_helix_mop_octamer_40        1   1.007947  0.00000000  A     0.26445434    0.066021356
em_helix_mop_octamer_41        1   1.007947  0.00000000  A     0.26445434    0.066021356
em_helix_mop_octamer_42        1   1.007947  0.00000000  A     0.25725815     0.06531786
em_helix_mop_octamer_43        1   1.007947  0.00000000  A     0.25725815     0.06531786
em_helix_mop_octamer_44        6  12.010780  0.00000000  A     0.34806469     0.36350306
em_helix_mop_octamer_45        8  15.999430  0.00000000  A     0.30398122     0.87950233
em_helix_mop_octamer_46        6  12.010780  0.00000000  A     0.34806469     0.36350306
em_helix_mop_octamer_47        6  12.010780  0.00000000  A     0.34806469     0.36350306
em_helix_mop_octamer_48        6  12.010780  0.00000000  A     0.34806469     0.36350306
em_helix_mop_octamer_49        6  12.010780  0.00000000  A     0.34806469     0.36350306
em_helix_mop_octamer_50        6  12.010780  0.00000000  A     0.34806469     0.36350306
em_helix_mop_octamer_51        6  12.010780  0.00000000  A     0.34806469     0.36350306
em_helix_mop_octamer_52        6  12.010780  0.00000000  A     0.34806469     0.36350306
em_helix_mop_octamer_53        6  12.010780  0.00000000  A     0.34806469     0.36350306
em_helix_mop_octamer_54        8  15.999430  0.00000000  A     0.30251065     0.70485815
em_helix_mop_octamer_55        6  12.010780  0.00000000  A     0.33996695      0.4577296
em_helix_mop_octamer_56        6  12.010780  0.00000000  A     0.34806469     0.36350306
em_helix_mop_octamer_57        6  12.010780  0.00000000  A     0.34806469     0.36350306
em_helix_mop_octamer_58        6  12.010780  0.00000000  A     0.34806469     0.36350306
em_helix_mop_octamer_59        6  12.010780  0.00000000  A     0.34806469     0.36350306
em_helix_mop_octamer_60        6  12.010780  0.00000000  A     0.34806469     0.36350306
em_helix_mop_octamer_61        6  12.010780  0.00000000  A     0.34806469     0.36350306
em_helix_mop_octamer_62        6  12.010780  0.00000000  A     0.34806469     0.36350306
em_helix_mop_octamer_63        6  12.010780  0.00000000  A     0.34806469     0.36350306
em_helix_mop_octamer_64        6  12.010780  0.00000000  A     0.33996695      0.4577296
em_helix_mop_octamer_65        7  14.006720  0.00000000  A      0.3206876      0.7016213
em_helix_mop_octamer_66        6  12.010780  0.00000000  A     0.33996695      0.4577296
em_helix_mop_octamer_67        6  12.010780  0.00000000  A     0.34806469     0.36350306
em_helix_mop_octamer_68        6  12.010780  0.00000000  A     0.34806469     0.36350306
em_helix_mop_octamer_69        1   1.007947  0.00000000  A     0.25725815     0.06531786
em_helix_mop_octamer_70        1   1.007947  0.00000000  A     0.25725815     0.06531786
em_helix_mop_octamer_71        1   1.007947  0.00000000  A     0.25725815     0.06531786
em_helix_mop_octamer_72        1   1.007947  0.00000000  A     0.25832257    0.068656285
em_helix_mop_octamer_73        1   1.007947  0.00000000  A     0.25832257    0.068656285
em_helix_mop_octamer_74        1   1.007947  0.00000000  A     0.25832257    0.068656285
em_helix_mop_octamer_75        1   1.007947  0.00000000  A     0.25725815     0.06531786
em_helix_mop_octamer_76        1   1.007947  0.00000000  A     0.25725815     0.06531786
em_helix_mop_octamer_77        1   1.007947  0.00000000  A     0.25725815     0.06531786
em_helix_mop_octamer_78        1   1.007947  0.00000000  A     0.25725815     0.06531786
em_helix_mop_octamer_79        1   1.007947  0.00000000  A     0.25725815     0.06531786
em_helix_mop_octamer_80        1   1.007947  0.00000000  A     0.25725815     0.06531786
em_helix_mop_octamer_81        1   1.007947  0.00000000  A     0.25832257    0.068656285
em_helix_mop_octamer_82        1   1.007947  0.00000000  A     0.11034277    0.058955969
em_helix_mop_octamer_83        1   1.007947  0.00000000  A     0.26445434    0.066021356
em_helix_mop_octamer_84        1   1.007947  0.00000000  A     0.26445434    0.066021356
em_helix_mop_octamer_85        1   1.007947  0.00000000  A     0.26445434    0.066021356
em_helix_mop_octamer_86        1   1.007947  0.00000000  A     0.25725815     0.06531786
em_helix_mop_octamer_87        1   1.007947  0.00000000  A     0.25725815     0.06531786
em_helix_mop_octamer_88        6  12.010780  0.00000000  A     0.34806469     0.36350306
em_helix_mop_octamer_89        8  15.999430  0.00000000  A     0.30398122     0.87950233
em_helix_mop_octamer_90        6  12.010780  0.00000000  A     0.34806469     0.36350306
em_helix_mop_octamer_91        6  12.010780  0.00000000  A     0.34806469     0.36350306
em_helix_mop_octamer_92        6  12.010780  0.00000000  A     0.34806469     0.36350306
em_helix_mop_octamer_93        6  12.010780  0.00000000  A     0.34806469     0.36350306
em_helix_mop_octamer_94        6  12.010780  0.00000000  A     0.34806469     0.36350306
em_helix_mop_octamer_95        6  12.010780  0.00000000  A     0.34806469     0.36350306
em_helix_mop_octamer_96        6  12.010780  0.00000000  A     0.34806469     0.36350306
em_helix_mop_octamer_97        6  12.010780  0.00000000  A     0.34806469     0.36350306
em_helix_mop_octamer_98        8  15.999430  0.00000000  A     0.30251065     0.70485815
em_helix_mop_octamer_99        6  12.010780  0.00000000  A     0.33996695      0.4577296
em_helix_mop_octamer_100        6  12.010780  0.00000000  A     0.34806469     0.36350306
em_helix_mop_octamer_101        6  12.010780  0.00000000  A     0.34806469     0.36350306
em_helix_mop_octamer_102        6  12.010780  0.00000000  A     0.34806469     0.36350306
em_helix_mop_octamer_103        6  12.010780  0.00000000  A     0.34806469     0.36350306
em_helix_mop_octamer_104        6  12.010780  0.00000000  A     0.34806469     0.36350306
em_helix_mop_octamer_105        6  12.010780  0.00000000  A     0.34806469     0.36350306
em_helix_mop_octamer_106        6  12.010780  0.00000000  A     0.34806469     0.36350306
em_helix_mop_octamer_107        6  12.010780  0.00000000  A     0.34806469     0.36350306
em_helix_mop_octamer_108        6  12.010780  0.00000000  A     0.33996695      0.4577296
em_helix_mop_octamer_109        7  14.006720  0.00000000  A      0.3206876      0.7016213
em_helix_mop_octamer_110        6  12.010780  0.00000000  A     0.33996695      0.4577296
em_helix_mop_octamer_111        6  12.010780  0.00000000  A     0.34806469     0.36350306
em_helix_mop_octamer_112        6  12.010780  0.00000000  A     0.34806469     0.36350306
em_helix_mop_octamer_113        1   1.007947  0.00000000  A     0.25725815     0.06531786
em_helix_mop_octamer_114        1   1.007947  0.00000000  A     0.25725815     0.06531786
em_helix_mop_octamer_115        1   1.007947  0.00000000  A     0.25725815     0.06531786
em_helix_mop_octamer_116        1   1.007947  0.00000000  A     0.25832257    0.068656285
em_helix_mop_octamer_117        1   1.007947  0.00000000  A     0.25832257    0.068656285
em_helix_mop_octamer_118        1   1.007947  0.00000000  A     0.25832257    0.068656285
em_helix_mop_octamer_119        1   1.007947  0.00000000  A     0.25725815     0.06531786
em_helix_mop_octamer_120        1   1.007947  0.00000000  A     0.25725815     0.06531786
em_helix_mop_octamer_121        1   1.007947  0.00000000  A     0.25725815     0.06531786
em_helix_mop_octamer_122        1   1.007947  0.00000000  A     0.25725815     0.06531786
em_helix_mop_octamer_123        1   1.007947  0.00000000  A     0.25725815     0.06531786
em_helix_mop_octamer_124        1   1.007947  0.00000000  A     0.25725815     0.06531786
em_helix_mop_octamer_125        1   1.007947  0.00000000  A     0.25832257    0.068656285
em_helix_mop_octamer_126        1   1.007947  0.00000000  A     0.11034277    0.058955969
em_helix_mop_octamer_127        1   1.007947  0.00000000  A     0.26445434    0.066021356
em_helix_mop_octamer_128        1   1.007947  0.00000000  A     0.26445434    0.066021356
em_helix_mop_octamer_129        1   1.007947  0.00000000  A     0.26445434    0.066021356
em_helix_mop_octamer_130        1   1.007947  0.00000000  A     0.25725815     0.06531786
em_helix_mop_octamer_131        1   1.007947  0.00000000  A     0.25725815     0.06531786
em_helix_mop_octamer_132        6  12.010780  0.00000000  A     0.34806469     0.36350306
em_helix_mop_octamer_133        8  15.999430  0.00000000  A     0.30398122     0.87950233
em_helix_mop_octamer_134        6  12.010780  0.00000000  A     0.34806469     0.36350306
em_helix_mop_octamer_135        6  12.010780  0.00000000  A     0.34806469     0.36350306
em_helix_mop_octamer_136        6  12.010780  0.00000000  A     0.34806469     0.36350306
em_helix_mop_octamer_137        6  12.010780  0.00000000  A     0.34806469     0.36350306
em_helix_mop_octamer_138        6  12.010780  0.00000000  A     0.34806469     0.36350306
em_helix_mop_octamer_139        6  12.010780  0.00000000  A     0.34806469     0.36350306
em_helix_mop_octamer_140        6  12.010780  0.00000000  A     0.34806469     0.36350306
em_helix_mop_octamer_141        6  12.010780  0.00000000  A     0.34806469     0.36350306
em_helix_mop_octamer_142        8  15.999430  0.00000000  A     0.30251065     0.70485815
em_helix_mop_octamer_143        6  12.010780  0.00000000  A     0.33996695      0.4577296
em_helix_mop_octamer_144        6  12.010780  0.00000000  A     0.34806469     0.36350306
em_helix_mop_octamer_145        6  12.010780  0.00000000  A     0.34806469     0.36350306
em_helix_mop_octamer_146        6  12.010780  0.00000000  A     0.34806469     0.36350306
em_helix_mop_octamer_147        6  12.010780  0.00000000  A     0.34806469     0.36350306
em_helix_mop_octamer_148        6  12.010780  0.00000000  A     0.34806469     0.36350306
em_helix_mop_octamer_149        6  12.010780  0.00000000  A     0.34806469     0.36350306
em_helix_mop_octamer_150        6  12.010780  0.00000000  A     0.34806469     0.36350306
em_helix_mop_octamer_151        6  12.010780  0.00000000  A     0.34806469     0.36350306
em_helix_mop_octamer_152        6  12.010780  0.00000000  A     0.33996695      0.4577296
em_helix_mop_octamer_153        7  14.006720  0.00000000  A      0.3206876      0.7016213
em_helix_mop_octamer_154        6  12.010780  0.00000000  A     0.33996695      0.4577296
em_helix_mop_octamer_155        6  12.010780  0.00000000  A     0.34806469     0.36350306
em_helix_mop_octamer_156        6  12.010780  0.00000000  A     0.34806469     0.36350306
em_helix_mop_octamer_157        1   1.007947  0.00000000  A     0.25725815     0.06531786
em_helix_mop_octamer_158        1   1.007947  0.00000000  A     0.25725815     0.06531786
em_helix_mop_octamer_159        1   1.007947  0.00000000  A     0.25725815     0.06531786
em_helix_mop_octamer_160        1   1.007947  0.00000000  A     0.25832257    0.068656285
em_helix_mop_octamer_161        1   1.007947  0.00000000  A     0.25832257    0.068656285
em_helix_mop_octamer_162        1   1.007947  0.00000000  A     0.25832257    0.068656285
em_helix_mop_octamer_163        1   1.007947  0.00000000  A     0.25725815     0.06531786
em_helix_mop_octamer_164        1   1.007947  0.00000000  A     0.25725815     0.06531786
em_helix_mop_octamer_165        1   1.007947  0.00000000  A     0.25725815     0.06531786
em_helix_mop_octamer_166        1   1.007947  0.00000000  A     0.25725815     0.06531786
em_helix_mop_octamer_167        1   1.007947  0.00000000  A     0.25725815     0.06531786
em_helix_mop_octamer_168        1   1.007947  0.00000000  A     0.25725815     0.06531786
em_helix_mop_octamer_169        1   1.007947  0.00000000  A     0.25832257    0.068656285
em_helix_mop_octamer_170        1   1.007947  0.00000000  A     0.11034277    0.058955969
em_helix_mop_octamer_171        1   1.007947  0.00000000  A     0.26445434    0.066021356
em_helix_mop_octamer_172        1   1.007947  0.00000000  A     0.26445434    0.066021356
em_helix_mop_octamer_173        1   1.007947  0.00000000  A     0.26445434    0.066021356
em_helix_mop_octamer_174        1   1.007947  0.00000000  A     0.25725815     0.06531786
em_helix_mop_octamer_175        1   1.007947  0.00000000  A     0.25725815     0.06531786
em_helix_mop_octamer_176        6  12.010780  0.00000000  A     0.34806469     0.36350306
em_helix_mop_octamer_177        8  15.999430  0.00000000  A     0.30398122     0.87950233
em_helix_mop_octamer_178        6  12.010780  0.00000000  A     0.34806469     0.36350306
em_helix_mop_octamer_179        6  12.010780  0.00000000  A     0.34806469     0.36350306
em_helix_mop_octamer_180        6  12.010780  0.00000000  A     0.34806469     0.36350306
em_helix_mop_octamer_181        6  12.010780  0.00000000  A     0.34806469     0.36350306
em_helix_mop_octamer_182        6  12.010780  0.00000000  A     0.34806469     0.36350306
em_helix_mop_octamer_183        6  12.010780  0.00000000  A     0.34806469     0.36350306
em_helix_mop_octamer_184        6  12.010780  0.00000000  A     0.34806469     0.36350306
em_helix_mop_octamer_185        6  12.010780  0.00000000  A     0.34806469     0.36350306
em_helix_mop_octamer_186        8  15.999430  0.00000000  A     0.30251065     0.70485815
em_helix_mop_octamer_187        6  12.010780  0.00000000  A     0.33996695      0.4577296
em_helix_mop_octamer_188        6  12.010780  0.00000000  A     0.34806469     0.36350306
em_helix_mop_octamer_189        6  12.010780  0.00000000  A     0.34806469     0.36350306
em_helix_mop_octamer_190        6  12.010780  0.00000000  A     0.34806469     0.36350306
em_helix_mop_octamer_191        6  12.010780  0.00000000  A     0.34806469     0.36350306
em_helix_mop_octamer_192        6  12.010780  0.00000000  A     0.34806469     0.36350306
em_helix_mop_octamer_193        6  12.010780  0.00000000  A     0.34806469     0.36350306
em_helix_mop_octamer_194        6  12.010780  0.00000000  A     0.34806469     0.36350306
em_helix_mop_octamer_195        6  12.010780  0.00000000  A     0.34806469     0.36350306
em_helix_mop_octamer_196        6  12.010780  0.00000000  A     0.33996695      0.4577296
em_helix_mop_octamer_197        7  14.006720  0.00000000  A      0.3206876      0.7016213
em_helix_mop_octamer_198        6  12.010780  0.00000000  A     0.33996695      0.4577296
em_helix_mop_octamer_199        6  12.010780  0.00000000  A     0.34806469     0.36350306
em_helix_mop_octamer_200        6  12.010780  0.00000000  A     0.34806469     0.36350306
em_helix_mop_octamer_201        1   1.007947  0.00000000  A     0.25725815     0.06531786
em_helix_mop_octamer_202        1   1.007947  0.00000000  A     0.25725815     0.06531786
em_helix_mop_octamer_203        1   1.007947  0.00000000  A     0.25725815     0.06531786
em_helix_mop_octamer_204        1   1.007947  0.00000000  A     0.25832257    0.068656285
em_helix_mop_octamer_205        1   1.007947  0.00000000  A     0.25832257    0.068656285
em_helix_mop_octamer_206        1   1.007947  0.00000000  A     0.25832257    0.068656285
em_helix_mop_octamer_207        1   1.007947  0.00000000  A     0.25725815     0.06531786
em_helix_mop_octamer_208        1   1.007947  0.00000000  A     0.25725815     0.06531786
em_helix_mop_octamer_209        1   1.007947  0.00000000  A     0.25725815     0.06531786
em_helix_mop_octamer_210        1   1.007947  0.00000000  A     0.25725815     0.06531786
em_helix_mop_octamer_211        1   1.007947  0.00000000  A     0.25725815     0.06531786
em_helix_mop_octamer_212        1   1.007947  0.00000000  A     0.25725815     0.06531786
em_helix_mop_octamer_213        1   1.007947  0.00000000  A     0.25832257    0.068656285
em_helix_mop_octamer_214        1   1.007947  0.00000000  A     0.11034277    0.058955969
em_helix_mop_octamer_215        1   1.007947  0.00000000  A     0.26445434    0.066021356
em_helix_mop_octamer_216        1   1.007947  0.00000000  A     0.26445434    0.066021356
em_helix_mop_octamer_217        1   1.007947  0.00000000  A     0.26445434    0.066021356
em_helix_mop_octamer_218        1   1.007947  0.00000000  A     0.25725815     0.06531786
em_helix_mop_octamer_219        1   1.007947  0.00000000  A     0.25725815     0.06531786
em_helix_mop_octamer_220        6  12.010780  0.00000000  A     0.34806469     0.36350306
em_helix_mop_octamer_221        8  15.999430  0.00000000  A     0.30398122     0.87950233
em_helix_mop_octamer_222        6  12.010780  0.00000000  A     0.34806469     0.36350306
em_helix_mop_octamer_223        6  12.010780  0.00000000  A     0.34806469     0.36350306
em_helix_mop_octamer_224        6  12.010780  0.00000000  A     0.34806469     0.36350306
em_helix_mop_octamer_225        6  12.010780  0.00000000  A     0.34806469     0.36350306
em_helix_mop_octamer_226        6  12.010780  0.00000000  A     0.34806469     0.36350306
em_helix_mop_octamer_227        6  12.010780  0.00000000  A     0.34806469     0.36350306
em_helix_mop_octamer_228        6  12.010780  0.00000000  A     0.34806469     0.36350306
em_helix_mop_octamer_229        6  12.010780  0.00000000  A     0.34806469     0.36350306
em_helix_mop_octamer_230        8  15.999430  0.00000000  A     0.30251065     0.70485815
em_helix_mop_octamer_231        6  12.010780  0.00000000  A     0.33996695      0.4577296
em_helix_mop_octamer_232        6  12.010780  0.00000000  A     0.34806469     0.36350306
em_helix_mop_octamer_233        6  12.010780  0.00000000  A     0.34806469     0.36350306
em_helix_mop_octamer_234        6  12.010780  0.00000000  A     0.34806469     0.36350306
em_helix_mop_octamer_235        6  12.010780  0.00000000  A     0.34806469     0.36350306
em_helix_mop_octamer_236        6  12.010780  0.00000000  A     0.34806469     0.36350306
em_helix_mop_octamer_237        6  12.010780  0.00000000  A     0.34806469     0.36350306
em_helix_mop_octamer_238        6  12.010780  0.00000000  A     0.34806469     0.36350306
em_helix_mop_octamer_239        6  12.010780  0.00000000  A     0.34806469     0.36350306
em_helix_mop_octamer_240        6  12.010780  0.00000000  A     0.33996695      0.4577296
em_helix_mop_octamer_241        7  14.006720  0.00000000  A      0.3206876      0.7016213
em_helix_mop_octamer_242        6  12.010780  0.00000000  A     0.33996695      0.4577296
em_helix_mop_octamer_243        6  12.010780  0.00000000  A     0.34806469     0.36350306
em_helix_mop_octamer_244        6  12.010780  0.00000000  A     0.34806469     0.36350306
em_helix_mop_octamer_245        1   1.007947  0.00000000  A     0.25725815     0.06531786
em_helix_mop_octamer_246        1   1.007947  0.00000000  A     0.25725815     0.06531786
em_helix_mop_octamer_247        1   1.007947  0.00000000  A     0.25725815     0.06531786
em_helix_mop_octamer_248        1   1.007947  0.00000000  A     0.25832257    0.068656285
em_helix_mop_octamer_249        1   1.007947  0.00000000  A     0.25832257    0.068656285
em_helix_mop_octamer_250        1   1.007947  0.00000000  A     0.25832257    0.068656285
em_helix_mop_octamer_251        1   1.007947  0.00000000  A     0.25725815     0.06531786
em_helix_mop_octamer_252        1   1.007947  0.00000000  A     0.25725815     0.06531786
em_helix_mop_octamer_253        1   1.007947  0.00000000  A     0.25725815     0.06531786
em_helix_mop_octamer_254        1   1.007947  0.00000000  A     0.25725815     0.06531786
em_helix_mop_octamer_255        1   1.007947  0.00000000  A     0.25725815     0.06531786
em_helix_mop_octamer_256        1   1.007947  0.00000000  A     0.25725815     0.06531786
em_helix_mop_octamer_257        1   1.007947  0.00000000  A     0.25832257    0.068656285
em_helix_mop_octamer_258        1   1.007947  0.00000000  A     0.11034277    0.058955969
em_helix_mop_octamer_259        1   1.007947  0.00000000  A     0.26445434    0.066021356
em_helix_mop_octamer_260        1   1.007947  0.00000000  A     0.26445434    0.066021356
em_helix_mop_octamer_261        1   1.007947  0.00000000  A     0.26445434    0.066021356
em_helix_mop_octamer_262        1   1.007947  0.00000000  A     0.25725815     0.06531786
em_helix_mop_octamer_263        1   1.007947  0.00000000  A     0.25725815     0.06531786
em_helix_mop_octamer_264        6  12.010780  0.00000000  A     0.34806469     0.36350306
em_helix_mop_octamer_265        8  15.999430  0.00000000  A     0.30398122     0.87950233
em_helix_mop_octamer_266        6  12.010780  0.00000000  A     0.34806469     0.36350306
em_helix_mop_octamer_267        6  12.010780  0.00000000  A     0.34806469     0.36350306
em_helix_mop_octamer_268        6  12.010780  0.00000000  A     0.34806469     0.36350306
em_helix_mop_octamer_269        6  12.010780  0.00000000  A     0.34806469     0.36350306
em_helix_mop_octamer_270        6  12.010780  0.00000000  A     0.34806469     0.36350306
em_helix_mop_octamer_271        6  12.010780  0.00000000  A     0.34806469     0.36350306
em_helix_mop_octamer_272        6  12.010780  0.00000000  A     0.34806469     0.36350306
em_helix_mop_octamer_273        6  12.010780  0.00000000  A     0.34806469     0.36350306
em_helix_mop_octamer_274        8  15.999430  0.00000000  A     0.30251065     0.70485815
em_helix_mop_octamer_275        6  12.010780  0.00000000  A     0.33996695      0.4577296
em_helix_mop_octamer_276        6  12.010780  0.00000000  A     0.34806469     0.36350306
em_helix_mop_octamer_277        6  12.010780  0.00000000  A     0.34806469     0.36350306
em_helix_mop_octamer_278        6  12.010780  0.00000000  A     0.34806469     0.36350306
em_helix_mop_octamer_279        6  12.010780  0.00000000  A     0.34806469     0.36350306
em_helix_mop_octamer_280        6  12.010780  0.00000000  A     0.34806469     0.36350306
em_helix_mop_octamer_281        6  12.010780  0.00000000  A     0.34806469     0.36350306
em_helix_mop_octamer_282        6  12.010780  0.00000000  A     0.34806469     0.36350306
em_helix_mop_octamer_283        6  12.010780  0.00000000  A     0.34806469     0.36350306
em_helix_mop_octamer_284        6  12.010780  0.00000000  A     0.33996695      0.4577296
em_helix_mop_octamer_285        7  14.006720  0.00000000  A      0.3206876      0.7016213
em_helix_mop_octamer_286        6  12.010780  0.00000000  A     0.33996695      0.4577296
em_helix_mop_octamer_287        6  12.010780  0.00000000  A     0.34806469     0.36350306
em_helix_mop_octamer_288        6  12.010780  0.00000000  A     0.34806469     0.36350306
em_helix_mop_octamer_289        1   1.007947  0.00000000  A     0.25725815     0.06531786
em_helix_mop_octamer_290        1   1.007947  0.00000000  A     0.25725815     0.06531786
em_helix_mop_octamer_291        1   1.007947  0.00000000  A     0.25725815     0.06531786
em_helix_mop_octamer_292        1   1.007947  0.00000000  A     0.25832257    0.068656285
em_helix_mop_octamer_293        1   1.007947  0.00000000  A     0.25832257    0.068656285
em_helix_mop_octamer_294        1   1.007947  0.00000000  A     0.25832257    0.068656285
em_helix_mop_octamer_295        1   1.007947  0.00000000  A     0.25725815     0.06531786
em_helix_mop_octamer_296        1   1.007947  0.00000000  A     0.25725815     0.06531786
em_helix_mop_octamer_297        1   1.007947  0.00000000  A     0.25725815     0.06531786
em_helix_mop_octamer_298        1   1.007947  0.00000000  A     0.25725815     0.06531786
em_helix_mop_octamer_299        1   1.007947  0.00000000  A     0.25725815     0.06531786
em_helix_mop_octamer_300        1   1.007947  0.00000000  A     0.25725815     0.06531786
em_helix_mop_octamer_301        1   1.007947  0.00000000  A     0.25832257    0.068656285
em_helix_mop_octamer_302        1   1.007947  0.00000000  A     0.11034277    0.058955969
em_helix_mop_octamer_303        1   1.007947  0.00000000  A     0.26445434    0.066021356
em_helix_mop_octamer_304        1   1.007947  0.00000000  A     0.26445434    0.066021356
em_helix_mop_octamer_305        1   1.007947  0.00000000  A     0.26445434    0.066021356
em_helix_mop_octamer_306        1   1.007947  0.00000000  A     0.25725815     0.06531786
em_helix_mop_octamer_307        1   1.007947  0.00000000  A     0.25725815     0.06531786
em_helix_mop_octamer_308        6  12.010780  0.00000000  A     0.34806469     0.36350306
em_helix_mop_octamer_309        8  15.999430  0.00000000  A     0.30398122     0.87950233
em_helix_mop_octamer_310        6  12.010780  0.00000000  A     0.34806469     0.36350306
em_helix_mop_octamer_311        6  12.010780  0.00000000  A     0.34806469     0.36350306
em_helix_mop_octamer_312        6  12.010780  0.00000000  A     0.34806469     0.36350306
em_helix_mop_octamer_313        6  12.010780  0.00000000  A     0.34806469     0.36350306
em_helix_mop_octamer_314        6  12.010780  0.00000000  A     0.34806469     0.36350306
em_helix_mop_octamer_315        6  12.010780  0.00000000  A     0.34806469     0.36350306
em_helix_mop_octamer_316        6  12.010780  0.00000000  A     0.34806469     0.36350306
em_helix_mop_octamer_317        6  12.010780  0.00000000  A     0.34806469     0.36350306
em_helix_mop_octamer_318        8  15.999430  0.00000000  A     0.30251065     0.70485815
em_helix_mop_octamer_319        6  12.010780  0.00000000  A     0.33996695      0.4577296
em_helix_mop_octamer_320        6  12.010780  0.00000000  A     0.34806469     0.36350306
em_helix_mop_octamer_321        6  12.010780  0.00000000  A     0.34806469     0.36350306
em_helix_mop_octamer_322        6  12.010780  0.00000000  A     0.34806469     0.36350306
em_helix_mop_octamer_323        6  12.010780  0.00000000  A     0.34806469     0.36350306
em_helix_mop_octamer_324        6  12.010780  0.00000000  A     0.34806469     0.36350306
em_helix_mop_octamer_325        6  12.010780  0.00000000  A     0.34806469     0.36350306
em_helix_mop_octamer_326        6  12.010780  0.00000000  A     0.34806469     0.36350306
em_helix_mop_octamer_327        6  12.010780  0.00000000  A     0.34806469     0.36350306
em_helix_mop_octamer_328        6  12.010780  0.00000000  A     0.33996695      0.4577296
em_helix_mop_octamer_329        7  14.006720  0.00000000  A      0.3206876      0.7016213
em_helix_mop_octamer_330        6  12.010780  0.00000000  A     0.33996695      0.4577296
em_helix_mop_octamer_331        6  12.010780  0.00000000  A     0.34806469     0.36350306
em_helix_mop_octamer_332        6  12.010780  0.00000000  A     0.34806469     0.36350306
em_helix_mop_octamer_333        1   1.007947  0.00000000  A     0.25725815     0.06531786
em_helix_mop_octamer_334        1   1.007947  0.00000000  A     0.25725815     0.06531786
em_helix_mop_octamer_335        1   1.007947  0.00000000  A     0.25725815     0.06531786
em_helix_mop_octamer_336        1   1.007947  0.00000000  A     0.25832257    0.068656285
em_helix_mop_octamer_337        1   1.007947  0.00000000  A     0.25832257    0.068656285
em_helix_mop_octamer_338        1   1.007947  0.00000000  A     0.25832257    0.068656285
em_helix_mop_octamer_339        1   1.007947  0.00000000  A     0.25725815     0.06531786
em_helix_mop_octamer_340        1   1.007947  0.00000000  A     0.25725815     0.06531786
em_helix_mop_octamer_341        1   1.007947  0.00000000  A     0.25725815     0.06531786
em_helix_mop_octamer_342        1   1.007947  0.00000000  A     0.25725815     0.06531786
em_helix_mop_octamer_343        1   1.007947  0.00000000  A     0.25725815     0.06531786
em_helix_mop_octamer_344        1   1.007947  0.00000000  A     0.25725815     0.06531786
em_helix_mop_octamer_345        1   1.007947  0.00000000  A     0.25832257    0.068656285
em_helix_mop_octamer_346        1   1.007947  0.00000000  A     0.11034277    0.058955969
em_helix_mop_octamer_347        1   1.007947  0.00000000  A     0.26445434    0.066021356
em_helix_mop_octamer_348        1   1.007947  0.00000000  A     0.26445434    0.066021356
em_helix_mop_octamer_349        1   1.007947  0.00000000  A     0.26445434    0.066021356
em_helix_mop_octamer_350        1   1.007947  0.00000000  A     0.25725815     0.06531786
em_helix_mop_octamer_351        1   1.007947  0.00000000  A     0.25725815     0.06531786
em_helix_mop_octamer_352        6  12.010780  0.00000000  A     0.33996695      0.4577296
em_helix_mop_octamer_353        8  15.999430  0.00000000  A     0.30251065     0.70485815
em_helix_mop_octamer_354        1   1.007947  0.00000000  A     0.25832257    0.068656285
em_helix_mop_octamer_355        1   1.007947  0.00000000  A     0.25832257    0.068656285
em_helix_mop_octamer_356        1   1.007947  0.00000000  A     0.25832257    0.068656285
em_helix_mop_octamer_357        6  12.010780  0.00000000  A     0.33996695      0.4577296
em_helix_mop_octamer_358        6  12.010780  0.00000000  A     0.33996695      0.4577296
em_helix_mop_octamer_359        6  12.010780  0.00000000  A     0.33996695      0.4577296
em_helix_mop_octamer_360        6  12.010780  0.00000000  A     0.33996695      0.4577296
em_helix_mop_octamer_361        8  15.999430  0.00000000  A     0.30251065     0.70485815
em_helix_mop_octamer_362        6  12.010780  0.00000000  A     0.34806469     0.36350306
em_helix_mop_octamer_363        8  15.999430  0.00000000  A     0.30398122     0.87950233
em_helix_mop_octamer_364        1   1.007947  0.00000000  A     0.26445434    0.066021356
em_helix_mop_octamer_365        1   1.007947  0.00000000  A     0.26445434    0.066021356
em_helix_mop_octamer_366        1   1.007947  0.00000000  A     0.26445434    0.066021356
em_helix_mop_octamer_367        1   1.007947  0.00000000  A     0.26445434    0.066021356
em_helix_mop_octamer_368        1   1.007947  0.00000000  A     0.26445434    0.066021356
em_helix_mop_octamer_369        1   1.007947  0.00000000  A     0.26445434    0.066021356
em_helix_mop_octamer_370        1   1.007947  0.00000000  A     0.26445434    0.066021356
em_helix_mop_octamer_371        1   1.007947  0.00000000  A     0.26445434    0.066021356
em_helix_mop_octamer_372        1   1.007947  0.00000000  A     0.26445434    0.066021356
TCM_0          6  12.010780  0.00000000  A     0.33996695      0.4577296
TCM_1         17  35.453200  0.00000000  A     0.34709414        1.10876
TCM_2         17  35.453200  0.00000000  A     0.34709414        1.10876
TCM_3          1   1.007947  0.00000000  A     0.21149936      0.0656888
TCM_4         17  35.453200  0.00000000  A     0.34709414        1.10876


[ moleculetype ]
; Name            nrexcl
system1          3

[ atoms ]
;   nr       type  resnr residue  atom   cgnr    charge       mass  typeB    chargeB      massB
; residue    1 MOP rtp MOP q 0.1
    1 em_helix_mop_octamer_0      1    MOP     C1      1 0.64775002  12.010780   ; qtot 0.647750
    2 em_helix_mop_octamer_1      1    MOP     O1      2 -0.55111998  15.999430   ; qtot 0.096630
    3 em_helix_mop_octamer_2      1    MOP     C2      3 -0.13977000  12.010780   ; qtot -0.043140
    4 em_helix_mop_octamer_3      1    MOP     C3      4 -0.07448000   9.994886   ; qtot -0.117620
    5 em_helix_mop_octamer_4      1    MOP     C4      5 -0.12474000   9.994886   ; qtot -0.242360
    6 em_helix_mop_octamer_5      1    MOP     C5      6 -0.00307000  12.010780   ; qtot -0.245430
    7 em_helix_mop_octamer_6      1    MOP     C6      7 -0.07438000  12.010780   ; qtot -0.319810
    8 em_helix_mop_octamer_7      1    MOP     C7      8 0.01024000  12.010780   ; qtot -0.309570
    9 em_helix_mop_octamer_8      1    MOP     C8      9 -0.14489999   9.994886   ; qtot -0.454470
   10 em_helix_mop_octamer_9      1    MOP     C9     10 0.12848000  12.010780   ; qtot -0.325990
   11 em_helix_mop_octamer_10      1    MOP     O2     11 -0.32538000  15.999430   ; qtot -0.651370
   12 em_helix_mop_octamer_11      1    MOP    C10     12 0.11344000   5.963098   ; qtot -0.537930
   13 em_helix_mop_octamer_12      1    MOP    C11     13 -0.20674001   9.994886   ; qtot -0.744670
   14 em_helix_mop_octamer_13      1    MOP    C12     14 -0.08423000   9.994886   ; qtot -0.828900
   15 em_helix_mop_octamer_14      1    MOP    C13     15 -0.04702000  12.010780   ; qtot -0.875920
   16 em_helix_mop_octamer_15      1    MOP    C14     16 -0.10768000   9.994886   ; qtot -0.983600
   17 em_helix_mop_octamer_16      1    MOP    C15     17 -0.13215999   9.994886   ; qtot -1.115760
   18 em_helix_mop_octamer_17      1    MOP    C16     18 -0.11742000   9.994886   ; qtot -1.233180
   19 em_helix_mop_octamer_18      1    MOP    C17     19 -0.11154000  12.010780   ; qtot -1.344720
   20 em_helix_mop_octamer_19      1    MOP    C18     20 -0.08966000   9.994886   ; qtot -1.434380
   21 em_helix_mop_octamer_20      1    MOP    C19     21 0.14486000   9.994886   ; qtot -1.289520
   22 em_helix_mop_octamer_21      1    MOP     N1     22 -0.56414998  11.990826   ; qtot -1.853670
   23 em_helix_mop_octamer_22      1    MOP    C20     23 -0.10110000   5.963098   ; qtot -1.954770
   24 em_helix_mop_octamer_23      1    MOP    C21     24 -0.12474000   9.994886   ; qtot -2.079510
   25 em_helix_mop_octamer_24      1    MOP    C22     25 -0.07448000   9.994886   ; qtot -2.153990
   26 em_helix_mop_octamer_25      1    MOP     H1     26 0.15015000   3.023841   ; qtot -2.003840
   27 em_helix_mop_octamer_26      1    MOP     H2     27 0.14595000   3.023841   ; qtot -1.857890
   28 em_helix_mop_octamer_27      1    MOP     H3     28 0.15748000   3.023841   ; qtot -1.700410
   29 em_helix_mop_octamer_28      1    MOP     H4     29 0.04543000   3.023841   ; qtot -1.654980
   30 em_helix_mop_octamer_29      1    MOP     H5     30 0.04543000   3.023841   ; qtot -1.609550
   31 em_helix_mop_octamer_30      1    MOP     H6     31 0.04543000   3.023841   ; qtot -1.564120
   32 em_helix_mop_octamer_31      1    MOP     H7     32 0.13792001   3.023841   ; qtot -1.426200
   33 em_helix_mop_octamer_32      1    MOP     H8     33 0.14170000   3.023841   ; qtot -1.284500
   34 em_helix_mop_octamer_33      1    MOP     H9     34 0.13607000   3.023841   ; qtot -1.148430
   35 em_helix_mop_octamer_34      1    MOP    H10     35 0.13304000   3.023841   ; qtot -1.015390
   36 em_helix_mop_octamer_35      1    MOP    H11     36 0.12710001   3.023841   ; qtot -0.888290
   37 em_helix_mop_octamer_36      1    MOP    H12     37 0.14675000   3.023841   ; qtot -0.741540
   38 em_helix_mop_octamer_37      1    MOP    H13     38 0.09062000   3.023841   ; qtot -0.650920
   39 em_helix_mop_octamer_38      1    MOP    H14     39 0.30656001   3.023841   ; qtot -0.344360
   40 em_helix_mop_octamer_39      1    MOP    H15     40 0.04457000   3.023841   ; qtot -0.299790
   41 em_helix_mop_octamer_40      1    MOP    H16     41 0.04457000   3.023841   ; qtot -0.255220
   42 em_helix_mop_octamer_41      1    MOP    H17     42 0.04457000   3.023841   ; qtot -0.210650
   43 em_helix_mop_octamer_42      1    MOP    H18     43 0.14595000   3.023841   ; qtot -0.064700
   44 em_helix_mop_octamer_43      1    MOP    H19     44 0.15015000   3.023841   ; qtot 0.085450
; residue    2 MOP rtp MOP q 0.0
   45 em_helix_mop_octamer_44      2    MOP    C23     45 0.67896003  12.010780   ; qtot 0.764410
   46 em_helix_mop_octamer_45      2    MOP     O3     46 -0.60784000  15.999430   ; qtot 0.156570
   47 em_helix_mop_octamer_46      2    MOP    C24     47 -0.14566000  12.010780   ; qtot 0.010910
   48 em_helix_mop_octamer_47      2    MOP    C25     48 -0.09073000   9.994886   ; qtot -0.079820
   49 em_helix_mop_octamer_48      2    MOP    C26     49 -0.12473000   9.994886   ; qtot -0.204550
   50 em_helix_mop_octamer_49      2    MOP    C27     50 -0.01018000  12.010780   ; qtot -0.214730
   51 em_helix_mop_octamer_50      2    MOP    C28     51 -0.07428000  12.010780   ; qtot -0.289010
   52 em_helix_mop_octamer_51      2    MOP    C29     52 0.00807000  12.010780   ; qtot -0.280940
   53 em_helix_mop_octamer_52      2    MOP    C30     53 -0.14616001   9.994886   ; qtot -0.427100
   54 em_helix_mop_octamer_53      2    MOP    C31     54 0.12759000  12.010780   ; qtot -0.299510
   55 em_helix_mop_octamer_54      2    MOP     O4     55 -0.32554999  15.999430   ; qtot -0.625060
   56 em_helix_mop_octamer_55      2    MOP    C32     56 0.11277000   5.963098   ; qtot -0.512290
   57 em_helix_mop_octamer_56      2    MOP    C33     57 -0.20423000   9.994886   ; qtot -0.716520
   58 em_helix_mop_octamer_57      2    MOP    C34     58 -0.08245000   9.994886   ; qtot -0.798970
   59 em_helix_mop_octamer_58      2    MOP    C35     59 -0.04264000  12.010780   ; qtot -0.841610
   60 em_helix_mop_octamer_59      2    MOP    C36     60 -0.10780000   9.994886   ; qtot -0.949410
   61 em_helix_mop_octamer_60      2    MOP    C37     61 -0.13167000   9.994886   ; qtot -1.081080
   62 em_helix_mop_octamer_61      2    MOP    C38     62 -0.10731000   9.994886   ; qtot -1.188390
   63 em_helix_mop_octamer_62      2    MOP    C39     63 -0.09935000  12.010780   ; qtot -1.287740
   64 em_helix_mop_octamer_63      2    MOP    C40     64 -0.10761000   9.994886   ; qtot -1.395350
   65 em_helix_mop_octamer_64      2    MOP    C41     65 0.15518001   9.994886   ; qtot -1.240170
   66 em_helix_mop_octamer_65      2    MOP     N2     66 -0.56734997  11.990826   ; qtot -1.807520
   67 em_helix_mop_octamer_66      2    MOP    C42     67 -0.11248000   5.963098   ; qtot -1.920000
   68 em_helix_mop_octamer_67      2    MOP    C43     68 -0.12473000   9.994886   ; qtot -2.044730
   69 em_helix_mop_octamer_68      2    MOP    C44     69 -0.09073000   9.994886   ; qtot -2.135460
   70 em_helix_mop_octamer_69      2    MOP    H20     70 0.14646000   3.023841   ; qtot -1.989000
   71 em_helix_mop_octamer_70      2    MOP    H21     71 0.14273000   3.023841   ; qtot -1.846270
   72 em_helix_mop_octamer_71      2    MOP    H22     72 0.15715000   3.023841   ; qtot -1.689120
   73 em_helix_mop_octamer_72      2    MOP    H23     73 0.04537000   3.023841   ; qtot -1.643750
   74 em_helix_mop_octamer_73      2    MOP    H24     74 0.04537000   3.023841   ; qtot -1.598380
   75 em_helix_mop_octamer_74      2    MOP    H25     75 0.04537000   3.023841   ; qtot -1.553010
   76 em_helix_mop_octamer_75      2    MOP    H26     76 0.14067000   3.023841   ; qtot -1.412340
   77 em_helix_mop_octamer_76      2    MOP    H27     77 0.14057000   3.023841   ; qtot -1.271770
   78 em_helix_mop_octamer_77      2    MOP    H28     78 0.13624001   3.023841   ; qtot -1.135530
   79 em_helix_mop_octamer_78      2    MOP    H29     79 0.13436000   3.023841   ; qtot -1.001170
   80 em_helix_mop_octamer_79      2    MOP    H30     80 0.13928001   3.023841   ; qtot -0.861890
   81 em_helix_mop_octamer_80      2    MOP    H31     81 0.13710999   3.023841   ; qtot -0.724780
   82 em_helix_mop_octamer_81      2    MOP    H32     82 0.08431000   3.023841   ; qtot -0.640470
   83 em_helix_mop_octamer_82      2    MOP    H33     83 0.31323999   3.023841   ; qtot -0.327230
   84 em_helix_mop_octamer_83      2    MOP    H34     84 0.04548000   3.023841   ; qtot -0.281750
   85 em_helix_mop_octamer_84      2    MOP    H35     85 0.04548000   3.023841   ; qtot -0.236270
   86 em_helix_mop_octamer_85      2    MOP    H36     86 0.04548000   3.023841   ; qtot -0.190790
   87 em_helix_mop_octamer_86      2    MOP    H37     87 0.14273000   3.023841   ; qtot -0.048060
   88 em_helix_mop_octamer_87      2    MOP    H38     88 0.14646000   3.023841   ; qtot 0.098400
; residue    3 MOP rtp MOP q -0.0
   89 em_helix_mop_octamer_88      3    MOP    C45     89 0.67642999  12.010780   ; qtot 0.774830
   90 em_helix_mop_octamer_89      3    MOP     O5     90 -0.61633998  15.999430   ; qtot 0.158490
   91 em_helix_mop_octamer_90      3    MOP    C46     91 -0.13921000  12.010780   ; qtot 0.019280
   92 em_helix_mop_octamer_91      3    MOP    C47     92 -0.09227000   9.994886   ; qtot -0.072990
   93 em_helix_mop_octamer_92      3    MOP    C48     93 -0.12499000   9.994886   ; qtot -0.197980
   94 em_helix_mop_octamer_93      3    MOP    C49     94 -0.01250000  12.010780   ; qtot -0.210480
   95 em_helix_mop_octamer_94      3    MOP    C50     95 -0.07264000  12.010780   ; qtot -0.283120
   96 em_helix_mop_octamer_95      3    MOP    C51     96 0.00650000  12.010780   ; qtot -0.276620
   97 em_helix_mop_octamer_96      3    MOP    C52     97 -0.14428000   9.994886   ; qtot -0.420900
   98 em_helix_mop_octamer_97      3    MOP    C53     98 0.12399000  12.010780   ; qtot -0.296910
   99 em_helix_mop_octamer_98      3    MOP     O6     99 -0.32541001  15.999430   ; qtot -0.622320
  100 em_helix_mop_octamer_99      3    MOP    C54    100 0.11110000   5.963098   ; qtot -0.511220
  101 em_helix_mop_octamer_100      3    MOP    C55    101 -0.20347001   9.994886   ; qtot -0.714690
  102 em_helix_mop_octamer_101      3    MOP    C56    102 -0.08185000   9.994886   ; qtot -0.796540
  103 em_helix_mop_octamer_102      3    MOP    C57    103 -0.04222000  12.010780   ; qtot -0.838760
  104 em_helix_mop_octamer_103      3    MOP    C58    104 -0.10385000   9.994886   ; qtot -0.942610
  105 em_helix_mop_octamer_104      3    MOP    C59    105 -0.13158000   9.994886   ; qtot -1.074190
  106 em_helix_mop_octamer_105      3    MOP    C60    106 -0.11326000   9.994886   ; qtot -1.187450
  107 em_helix_mop_octamer_106      3    MOP    C61    107 -0.10256000  12.010780   ; qtot -1.290010
  108 em_helix_mop_octamer_107      3    MOP    C62    108 -0.10885000   9.994886   ; qtot -1.398860
  109 em_helix_mop_octamer_108      3    MOP    C63    109 0.15369999   9.994886   ; qtot -1.245160
  110 em_helix_mop_octamer_109      3    MOP     N3    110 -0.56656998  11.990826   ; qtot -1.811730
  111 em_helix_mop_octamer_110      3    MOP    C64    111 -0.11434000   5.963098   ; qtot -1.926070
  112 em_helix_mop_octamer_111      3    MOP    C65    112 -0.12499000   9.994886   ; qtot -2.051060
  113 em_helix_mop_octamer_112      3    MOP    C66    113 -0.09227000   9.994886   ; qtot -2.143330
  114 em_helix_mop_octamer_113      3    MOP    H39    114 0.14895999   3.023841   ; qtot -1.994370
  115 em_helix_mop_octamer_114      3    MOP    H40    115 0.14038999   3.023841   ; qtot -1.853980
  116 em_helix_mop_octamer_115      3    MOP    H41    116 0.15610000   3.023841   ; qtot -1.697880
  117 em_helix_mop_octamer_116      3    MOP    H42    117 0.04503000   3.023841   ; qtot -1.652850
  118 em_helix_mop_octamer_117      3    MOP    H43    118 0.04503000   3.023841   ; qtot -1.607820
  119 em_helix_mop_octamer_118      3    MOP    H44    119 0.04503000   3.023841   ; qtot -1.562790
  120 em_helix_mop_octamer_119      3    MOP    H45    120 0.14123000   3.023841   ; qtot -1.421560
  121 em_helix_mop_octamer_120      3    MOP    H46    121 0.14458001   3.023841   ; qtot -1.276980
  122 em_helix_mop_octamer_121      3    MOP    H47    122 0.14082000   3.023841   ; qtot -1.136160
  123 em_helix_mop_octamer_122      3    MOP    H48    123 0.13681000   3.023841   ; qtot -0.999350
  124 em_helix_mop_octamer_123      3    MOP    H49    124 0.13925000   3.023841   ; qtot -0.860100
  125 em_helix_mop_octamer_124      3    MOP    H50    125 0.13553999   3.023841   ; qtot -0.724560
  126 em_helix_mop_octamer_125      3    MOP    H51    126 0.08315000   3.023841   ; qtot -0.641410
  127 em_helix_mop_octamer_126      3    MOP    H52    127 0.31299999   3.023841   ; qtot -0.328410
  128 em_helix_mop_octamer_127      3    MOP    H53    128 0.04427000   3.023841   ; qtot -0.284140
  129 em_helix_mop_octamer_128      3    MOP    H54    129 0.04427000   3.023841   ; qtot -0.239870
  130 em_helix_mop_octamer_129      3    MOP    H55    130 0.04427000   3.023841   ; qtot -0.195600
  131 em_helix_mop_octamer_130      3    MOP    H56    131 0.14038999   3.023841   ; qtot -0.055210
  132 em_helix_mop_octamer_131      3    MOP    H57    132 0.14895999   3.023841   ; qtot 0.093750
; residue    4 MOP rtp MOP q -0.0
  133 em_helix_mop_octamer_132      4    MOP    C67    133 0.67742997  12.010780   ; qtot 0.771180
  134 em_helix_mop_octamer_133      4    MOP     O7    134 -0.61413997  15.999430   ; qtot 0.157040
  135 em_helix_mop_octamer_134      4    MOP    C68    135 -0.14281000  12.010780   ; qtot 0.014230
  136 em_helix_mop_octamer_135      4    MOP    C69    136 -0.09599000   9.994886   ; qtot -0.081760
  137 em_helix_mop_octamer_136      4    MOP    C70    137 -0.12620001   9.994886   ; qtot -0.207960
  138 em_helix_mop_octamer_137      4    MOP    C71    138 -0.00599000  12.010780   ; qtot -0.213950
  139 em_helix_mop_octamer_138      4    MOP    C72    139 -0.07799000  12.010780   ; qtot -0.291940
  140 em_helix_mop_octamer_139      4    MOP    C73    140 0.00682000  12.010780   ; qtot -0.285120
  141 em_helix_mop_octamer_140      4    MOP    C74    141 -0.14481001   9.994886   ; qtot -0.429930
  142 em_helix_mop_octamer_141      4    MOP    C75    142 0.12772000  12.010780   ; qtot -0.302210
  143 em_helix_mop_octamer_142      4    MOP     O8    143 -0.32705000  15.999430   ; qtot -0.629260
  144 em_helix_mop_octamer_143      4    MOP    C76    144 0.11219000   5.963098   ; qtot -0.517070
  145 em_helix_mop_octamer_144      4    MOP    C77    145 -0.19885001   9.994886   ; qtot -0.715920
  146 em_helix_mop_octamer_145      4    MOP    C78    146 -0.07803000   9.994886   ; qtot -0.793950
  147 em_helix_mop_octamer_146      4    MOP    C79    147 -0.04016000  12.010780   ; qtot -0.834110
  148 em_helix_mop_octamer_147      4    MOP    C80    148 -0.10717000   9.994886   ; qtot -0.941280
  149 em_helix_mop_octamer_148      4    MOP    C81    149 -0.13352001   9.994886   ; qtot -1.074800
  150 em_helix_mop_octamer_149      4    MOP    C82    150 -0.11002000   9.994886   ; qtot -1.184820
  151 em_helix_mop_octamer_150      4    MOP    C83    151 -0.09892000  12.010780   ; qtot -1.283740
  152 em_helix_mop_octamer_151      4    MOP    C84    152 -0.10819000   9.994886   ; qtot -1.391930
  153 em_helix_mop_octamer_152      4    MOP    C85    153 0.14871000   9.994886   ; qtot -1.243220
  154 em_helix_mop_octamer_153      4    MOP     N4    154 -0.56831998  11.990826   ; qtot -1.811540
  155 em_helix_mop_octamer_154      4    MOP    C86    155 -0.11362000   5.963098   ; qtot -1.925160
  156 em_helix_mop_octamer_155      4    MOP    C87    156 -0.12620001   9.994886   ; qtot -2.051360
  157 em_helix_mop_octamer_156      4    MOP    C88    157 -0.09599000   9.994886   ; qtot -2.147350
  158 em_helix_mop_octamer_157      4    MOP    H58    158 0.14444999   3.023841   ; qtot -2.002900
  159 em_helix_mop_octamer_158      4    MOP    H59    159 0.14511999   3.023841   ; qtot -1.857780
  160 em_helix_mop_octamer_159      4    MOP    H60    160 0.15603000   3.023841   ; qtot -1.701750
  161 em_helix_mop_octamer_160      4    MOP    H61    161 0.04607000   3.023841   ; qtot -1.655680
  162 em_helix_mop_octamer_161      4    MOP    H62    162 0.04607000   3.023841   ; qtot -1.609610
  163 em_helix_mop_octamer_162      4    MOP    H63    163 0.04607000   3.023841   ; qtot -1.563540
  164 em_helix_mop_octamer_163      4    MOP    H64    164 0.14228000   3.023841   ; qtot -1.421260
  165 em_helix_mop_octamer_164      4    MOP    H65    165 0.14255001   3.023841   ; qtot -1.278710
  166 em_helix_mop_octamer_165      4    MOP    H66    166 0.14001000   3.023841   ; qtot -1.138700
  167 em_helix_mop_octamer_166      4    MOP    H67    167 0.13337000   3.023841   ; qtot -1.005330
  168 em_helix_mop_octamer_167      4    MOP    H68    168 0.13839000   3.023841   ; qtot -0.866940
  169 em_helix_mop_octamer_168      4    MOP    H69    169 0.13479000   3.023841   ; qtot -0.732150
  170 em_helix_mop_octamer_169      4    MOP    H70    170 0.08721000   3.023841   ; qtot -0.644940
  171 em_helix_mop_octamer_170      4    MOP    H71    171 0.31042999   3.023841   ; qtot -0.334510
  172 em_helix_mop_octamer_171      4    MOP    H72    172 0.04514000   3.023841   ; qtot -0.289370
  173 em_helix_mop_octamer_172      4    MOP    H73    173 0.04514000   3.023841   ; qtot -0.244230
  174 em_helix_mop_octamer_173      4    MOP    H74    174 0.04514000   3.023841   ; qtot -0.199090
  175 em_helix_mop_octamer_174      4    MOP    H75    175 0.14511999   3.023841   ; qtot -0.053970
  176 em_helix_mop_octamer_175      4    MOP    H76    176 0.14444999   3.023841   ; qtot 0.090480
; residue    5 MOP rtp MOP q 0.0
  177 em_helix_mop_octamer_176      5    MOP    C89    177 0.67679000  12.010780   ; qtot 0.767270
  178 em_helix_mop_octamer_177      5    MOP     O9    178 -0.61013001  15.999430   ; qtot 0.157140
  179 em_helix_mop_octamer_178      5    MOP    C90    179 -0.14312001  12.010780   ; qtot 0.014020
  180 em_helix_mop_octamer_179      5    MOP    C91    180 -0.09316000   9.994886   ; qtot -0.079140
  181 em_helix_mop_octamer_180      5    MOP    C92    181 -0.12551001   9.994886   ; qtot -0.204650
  182 em_helix_mop_octamer_181      5    MOP    C93    182 -0.01019000  12.010780   ; qtot -0.214840
  183 em_helix_mop_octamer_182      5    MOP    C94    183 -0.07420000  12.010780   ; qtot -0.289040
  184 em_helix_mop_octamer_183      5    MOP    C95    184 0.00558000  12.010780   ; qtot -0.283460
  185 em_helix_mop_octamer_184      5    MOP    C96    185 -0.13992999   9.994886   ; qtot -0.423390
  186 em_helix_mop_octamer_185      5    MOP    C97    186 0.12502000  12.010780   ; qtot -0.298370
  187 em_helix_mop_octamer_186      5    MOP    O10    187 -0.32205001  15.999430   ; qtot -0.620420
  188 em_helix_mop_octamer_187      5    MOP    C98    188 0.11370000   5.963098   ; qtot -0.506720
  189 em_helix_mop_octamer_188      5    MOP    C99    189 -0.20835000   9.994886   ; qtot -0.715070
  190 em_helix_mop_octamer_189      5    MOP   C100    190 -0.08327000   9.994886   ; qtot -0.798340
  191 em_helix_mop_octamer_190      5    MOP   C101    191 -0.03644000  12.010780   ; qtot -0.834780
  192 em_helix_mop_octamer_191      5    MOP   C102    192 -0.10407000   9.994886   ; qtot -0.938850
  193 em_helix_mop_octamer_192      5    MOP   C103    193 -0.12901001   9.994886   ; qtot -1.067860
  194 em_helix_mop_octamer_193      5    MOP   C104    194 -0.10718000   9.994886   ; qtot -1.175040
  195 em_helix_mop_octamer_194      5    MOP   C105    195 -0.10527000  12.010780   ; qtot -1.280310
  196 em_helix_mop_octamer_195      5    MOP   C106    196 -0.10598000   9.994886   ; qtot -1.386290
  197 em_helix_mop_octamer_196      5    MOP   C107    197 0.15598001   9.994886   ; qtot -1.230310
  198 em_helix_mop_octamer_197      5    MOP     N5    198 -0.57049000  11.990826   ; qtot -1.800800
  199 em_helix_mop_octamer_198      5    MOP   C108    199 -0.10892000   5.963098   ; qtot -1.909720
  200 em_helix_mop_octamer_199      5    MOP   C109    200 -0.12551001   9.994886   ; qtot -2.035230
  201 em_helix_mop_octamer_200      5    MOP   C110    201 -0.09316000   9.994886   ; qtot -2.128390
  202 em_helix_mop_octamer_201      5    MOP    H77    202 0.14710000   3.023841   ; qtot -1.981290
  203 em_helix_mop_octamer_202      5    MOP    H78    203 0.14358000   3.023841   ; qtot -1.837710
  204 em_helix_mop_octamer_203      5    MOP    H79    204 0.17086001   3.023841   ; qtot -1.666850
  205 em_helix_mop_octamer_204      5    MOP    H80    205 0.04285000   3.023841   ; qtot -1.624000
  206 em_helix_mop_octamer_205      5    MOP    H81    206 0.04285000   3.023841   ; qtot -1.581150
  207 em_helix_mop_octamer_206      5    MOP    H82    207 0.04285000   3.023841   ; qtot -1.538300
  208 em_helix_mop_octamer_207      5    MOP    H83    208 0.13710999   3.023841   ; qtot -1.401190
  209 em_helix_mop_octamer_208      5    MOP    H84    209 0.13970000   3.023841   ; qtot -1.261490
  210 em_helix_mop_octamer_209      5    MOP    H85    210 0.13644999   3.023841   ; qtot -1.125040
  211 em_helix_mop_octamer_210      5    MOP    H86    211 0.13471000   3.023841   ; qtot -0.990330
  212 em_helix_mop_octamer_211      5    MOP    H87    212 0.13774000   3.023841   ; qtot -0.852590
  213 em_helix_mop_octamer_212      5    MOP    H88    213 0.13285001   3.023841   ; qtot -0.719740
  214 em_helix_mop_octamer_213      5    MOP    H89    214 0.07895000   3.023841   ; qtot -0.640790
  215 em_helix_mop_octamer_214      5    MOP    H90    215 0.31825000   3.023841   ; qtot -0.322540
  216 em_helix_mop_octamer_215      5    MOP    H91    216 0.04360000   3.023841   ; qtot -0.278940
  217 em_helix_mop_octamer_216      5    MOP    H92    217 0.04360000   3.023841   ; qtot -0.235340
  218 em_helix_mop_octamer_217      5    MOP    H93    218 0.04360000   3.023841   ; qtot -0.191740
  219 em_helix_mop_octamer_218      5    MOP    H94    219 0.14358000   3.023841   ; qtot -0.048160
  220 em_helix_mop_octamer_219      5    MOP    H95    220 0.14710000   3.023841   ; qtot 0.098940
; residue    6 MOP rtp MOP q -0.0
  221 em_helix_mop_octamer_220      6    MOP   C111    221 0.67668998  12.010780   ; qtot 0.775630
  222 em_helix_mop_octamer_221      6    MOP    O11    222 -0.61624998  15.999430   ; qtot 0.159380
  223 em_helix_mop_octamer_222      6    MOP   C112    223 -0.13880999  12.010780   ; qtot 0.020570
  224 em_helix_mop_octamer_223      6    MOP   C113    224 -0.09136000   9.994886   ; qtot -0.070790
  225 em_helix_mop_octamer_224      6    MOP   C114    225 -0.12531000   9.994886   ; qtot -0.196100
  226 em_helix_mop_octamer_225      6    MOP   C115    226 -0.01117000  12.010780   ; qtot -0.207270
  227 em_helix_mop_octamer_226      6    MOP   C116    227 -0.07372000  12.010780   ; qtot -0.280990
  228 em_helix_mop_octamer_227      6    MOP   C117    228 0.00678000  12.010780   ; qtot -0.274210
  229 em_helix_mop_octamer_228      6    MOP   C118    229 -0.14659999   9.994886   ; qtot -0.420810
  230 em_helix_mop_octamer_229      6    MOP   C119    230 0.13257000  12.010780   ; qtot -0.288240
  231 em_helix_mop_octamer_230      6    MOP    O12    231 -0.32330000  15.999430   ; qtot -0.611540
  232 em_helix_mop_octamer_231      6    MOP   C120    232 0.11152000   5.963098   ; qtot -0.500020
  233 em_helix_mop_octamer_232      6    MOP   C121    233 -0.20309000   9.994886   ; qtot -0.703110
  234 em_helix_mop_octamer_233      6    MOP   C122    234 -0.08493000   9.994886   ; qtot -0.788040
  235 em_helix_mop_octamer_234      6    MOP   C123    235 -0.03911000  12.010780   ; qtot -0.827150
  236 em_helix_mop_octamer_235      6    MOP   C124    236 -0.10927000   9.994886   ; qtot -0.936420
  237 em_helix_mop_octamer_236      6    MOP   C125    237 -0.12880000   9.994886   ; qtot -1.065220
  238 em_helix_mop_octamer_237      6    MOP   C126    238 -0.11219000   9.994886   ; qtot -1.177410
  239 em_helix_mop_octamer_238      6    MOP   C127    239 -0.10690000  12.010780   ; qtot -1.284310
  240 em_helix_mop_octamer_239      6    MOP   C128    240 -0.10565000   9.994886   ; qtot -1.389960
  241 em_helix_mop_octamer_240      6    MOP   C129    241 0.14652000   9.994886   ; qtot -1.243440
  242 em_helix_mop_octamer_241      6    MOP     N6    242 -0.56081998  11.990826   ; qtot -1.804260
  243 em_helix_mop_octamer_242      6    MOP   C130    243 -0.10293000   5.963098   ; qtot -1.907190
  244 em_helix_mop_octamer_243      6    MOP   C131    244 -0.12531000   9.994886   ; qtot -2.032500
  245 em_helix_mop_octamer_244      6    MOP   C132    245 -0.09136000   9.994886   ; qtot -2.123860
  246 em_helix_mop_octamer_245      6    MOP    H96    246 0.14516000   3.023841   ; qtot -1.978700
  247 em_helix_mop_octamer_246      6    MOP    H97    247 0.14109001   3.023841   ; qtot -1.837610
  248 em_helix_mop_octamer_247      6    MOP    H98    248 0.15515000   3.023841   ; qtot -1.682460
  249 em_helix_mop_octamer_248      6    MOP    H99    249 0.04643000   3.023841   ; qtot -1.636030
  250 em_helix_mop_octamer_249      6    MOP   H100    250 0.04643000   3.023841   ; qtot -1.589600
  251 em_helix_mop_octamer_250      6    MOP   H101    251 0.04643000   3.023841   ; qtot -1.543170
  252 em_helix_mop_octamer_251      6    MOP   H102    252 0.14060999   3.023841   ; qtot -1.402560
  253 em_helix_mop_octamer_252      6    MOP   H103    253 0.13846000   3.023841   ; qtot -1.264100
  254 em_helix_mop_octamer_253      6    MOP   H104    254 0.13638000   3.023841   ; qtot -1.127720
  255 em_helix_mop_octamer_254      6    MOP   H105    255 0.13414000   3.023841   ; qtot -0.993580
  256 em_helix_mop_octamer_255      6    MOP   H106    256 0.13422000   3.023841   ; qtot -0.859360
  257 em_helix_mop_octamer_256      6    MOP   H107    257 0.13050000   3.023841   ; qtot -0.728860
  258 em_helix_mop_octamer_257      6    MOP   H108    258 0.08988000   3.023841   ; qtot -0.638980
  259 em_helix_mop_octamer_258      6    MOP   H109    259 0.29925999   3.023841   ; qtot -0.339720
  260 em_helix_mop_octamer_259      6    MOP   H110    260 0.04515000   3.023841   ; qtot -0.294570
  261 em_helix_mop_octamer_260      6    MOP   H111    261 0.04515000   3.023841   ; qtot -0.249420
  262 em_helix_mop_octamer_261      6    MOP   H112    262 0.04515000   3.023841   ; qtot -0.204270
  263 em_helix_mop_octamer_262      6    MOP   H113    263 0.14109001   3.023841   ; qtot -0.063180
  264 em_helix_mop_octamer_263      6    MOP   H114    264 0.14516000   3.023841   ; qtot 0.081980
; residue    7 MOP rtp MOP q 0.0
  265 em_helix_mop_octamer_264      7    MOP   C133    265 0.67343998  12.010780   ; qtot 0.755420
  266 em_helix_mop_octamer_265      7    MOP    O13    266 -0.59514999  15.999430   ; qtot 0.160270
  267 em_helix_mop_octamer_266      7    MOP   C134    267 -0.13985001  12.010780   ; qtot 0.020420
  268 em_helix_mop_octamer_267      7    MOP   C135    268 -0.09408000   9.994886   ; qtot -0.073660
  269 em_helix_mop_octamer_268      7    MOP   C136    269 -0.12613000   9.994886   ; qtot -0.199790
  270 em_helix_mop_octamer_269      7    MOP   C137    270 -0.00383000  12.010780   ; qtot -0.203620
  271 em_helix_mop_octamer_270      7    MOP   C138    271 -0.07769000  12.010780   ; qtot -0.281310
  272 em_helix_mop_octamer_271      7    MOP   C139    272 0.00686000  12.010780   ; qtot -0.274450
  273 em_helix_mop_octamer_272      7    MOP   C140    273 -0.14134000   9.994886   ; qtot -0.415790
  274 em_helix_mop_octamer_273      7    MOP   C141    274 0.13382000  12.010780   ; qtot -0.281970
  275 em_helix_mop_octamer_274      7    MOP    O14    275 -0.32844001  15.999430   ; qtot -0.610410
  276 em_helix_mop_octamer_275      7    MOP   C142    276 0.11187000   5.963098   ; qtot -0.498540
  277 em_helix_mop_octamer_276      7    MOP   C143    277 -0.19453999   9.994886   ; qtot -0.693080
  278 em_helix_mop_octamer_277      7    MOP   C144    278 -0.07880000   9.994886   ; qtot -0.771880
  279 em_helix_mop_octamer_278      7    MOP   C145    279 -0.03952000  12.010780   ; qtot -0.811400
  280 em_helix_mop_octamer_279      7    MOP   C146    280 -0.10646000   9.994886   ; qtot -0.917860
  281 em_helix_mop_octamer_280      7    MOP   C147    281 -0.13274001   9.994886   ; qtot -1.050600
  282 em_helix_mop_octamer_281      7    MOP   C148    282 -0.11084000   9.994886   ; qtot -1.161440
  283 em_helix_mop_octamer_282      7    MOP   C149    283 -0.10126000  12.010780   ; qtot -1.262700
  284 em_helix_mop_octamer_283      7    MOP   C150    284 -0.11047000   9.994886   ; qtot -1.373170
  285 em_helix_mop_octamer_284      7    MOP   C151    285 0.15132000   9.994886   ; qtot -1.221850
  286 em_helix_mop_octamer_285      7    MOP     N7    286 -0.56276000  11.990826   ; qtot -1.784610
  287 em_helix_mop_octamer_286      7    MOP   C152    287 -0.11664000   5.963098   ; qtot -1.901250
  288 em_helix_mop_octamer_287      7    MOP   C153    288 -0.12613000   9.994886   ; qtot -2.027380
  289 em_helix_mop_octamer_288      7    MOP   C154    289 -0.09408000   9.994886   ; qtot -2.121460
  290 em_helix_mop_octamer_289      7    MOP   H115    290 0.14137000   3.023841   ; qtot -1.980090
  291 em_helix_mop_octamer_290      7    MOP   H116    291 0.14205000   3.023841   ; qtot -1.838040
  292 em_helix_mop_octamer_291      7    MOP   H117    292 0.15548000   3.023841   ; qtot -1.682560
  293 em_helix_mop_octamer_292      7    MOP   H118    293 0.04493000   3.023841   ; qtot -1.637630
  294 em_helix_mop_octamer_293      7    MOP   H119    294 0.04493000   3.023841   ; qtot -1.592700
  295 em_helix_mop_octamer_294      7    MOP   H120    295 0.04493000   3.023841   ; qtot -1.547770
  296 em_helix_mop_octamer_295      7    MOP   H121    296 0.13918000   3.023841   ; qtot -1.408590
  297 em_helix_mop_octamer_296      7    MOP   H122    297 0.13952000   3.023841   ; qtot -1.269070
  298 em_helix_mop_octamer_297      7    MOP   H123    298 0.14399999   3.023841   ; qtot -1.125070
  299 em_helix_mop_octamer_298      7    MOP   H124    299 0.13778999   3.023841   ; qtot -0.987280
  300 em_helix_mop_octamer_299      7    MOP   H125    300 0.13768999   3.023841   ; qtot -0.849590
  301 em_helix_mop_octamer_300      7    MOP   H126    301 0.13428000   3.023841   ; qtot -0.715310
  302 em_helix_mop_octamer_301      7    MOP   H127    302 0.08311000   3.023841   ; qtot -0.632200
  303 em_helix_mop_octamer_302      7    MOP   H128    303 0.31002000   3.023841   ; qtot -0.322180
  304 em_helix_mop_octamer_303      7    MOP   H129    304 0.04592000   3.023841   ; qtot -0.276260
  305 em_helix_mop_octamer_304      7    MOP   H130    305 0.04592000   3.023841   ; qtot -0.230340
  306 em_helix_mop_octamer_305      7    MOP   H131    306 0.04592000   3.023841   ; qtot -0.184420
  307 em_helix_mop_octamer_306      7    MOP   H132    307 0.14205000   3.023841   ; qtot -0.042370
  308 em_helix_mop_octamer_307      7    MOP   H133    308 0.14137000   3.023841   ; qtot 0.099000
; residue    8 MOP rtp MOP q 0.0
  309 em_helix_mop_octamer_308      8    MOP   C155    309 0.67400998  12.010780   ; qtot 0.773010
  310 em_helix_mop_octamer_309      8    MOP    O15    310 -0.61159998  15.999430   ; qtot 0.161410
  311 em_helix_mop_octamer_310      8    MOP   C156    311 -0.13794000  12.010780   ; qtot 0.023470
  312 em_helix_mop_octamer_311      8    MOP   C157    312 -0.09199000   9.994886   ; qtot -0.068520
  313 em_helix_mop_octamer_312      8    MOP   C158    313 -0.12919000   9.994886   ; qtot -0.197710
  314 em_helix_mop_octamer_313      8    MOP   C159    314 -0.00584000  12.010780   ; qtot -0.203550
  315 em_helix_mop_octamer_314      8    MOP   C160    315 -0.07742000  12.010780   ; qtot -0.280970
  316 em_helix_mop_octamer_315      8    MOP   C161    316 0.00736000  12.010780   ; qtot -0.273610
  317 em_helix_mop_octamer_316      8    MOP   C162    317 -0.14756000   9.994886   ; qtot -0.421170
  318 em_helix_mop_octamer_317      8    MOP   C163    318 0.12868001  12.010780   ; qtot -0.292490
  319 em_helix_mop_octamer_318      8    MOP    O16    319 -0.32534999  15.999430   ; qtot -0.617840
  320 em_helix_mop_octamer_319      8    MOP   C164    320 0.11283000   5.963098   ; qtot -0.505010
  321 em_helix_mop_octamer_320      8    MOP   C165    321 -0.20263000   9.994886   ; qtot -0.707640
  322 em_helix_mop_octamer_321      8    MOP   C166    322 -0.08296000   9.994886   ; qtot -0.790600
  323 em_helix_mop_octamer_322      8    MOP   C167    323 -0.04558000  12.010780   ; qtot -0.836180
  324 em_helix_mop_octamer_323      8    MOP   C168    324 -0.10667000   9.994886   ; qtot -0.942850
  325 em_helix_mop_octamer_324      8    MOP   C169    325 -0.13525000   9.994886   ; qtot -1.078100
  326 em_helix_mop_octamer_325      8    MOP   C170    326 -0.09906000   9.994886   ; qtot -1.177160
  327 em_helix_mop_octamer_326      8    MOP   C171    327 -0.11466000  12.010780   ; qtot -1.291820
  328 em_helix_mop_octamer_327      8    MOP   C172    328 -0.10135000   9.994886   ; qtot -1.393170
  329 em_helix_mop_octamer_328      8    MOP   C173    329 0.15988000   9.994886   ; qtot -1.233290
  330 em_helix_mop_octamer_329      8    MOP     N8    330 -0.55151999  11.990826   ; qtot -1.784810
  331 em_helix_mop_octamer_330      8    MOP   C174    331 -0.10176000   5.963098   ; qtot -1.886570
  332 em_helix_mop_octamer_331      8    MOP   C175    332 -0.12919000   9.994886   ; qtot -2.015760
  333 em_helix_mop_octamer_332      8    MOP   C176    333 -0.09199000   9.994886   ; qtot -2.107750
  334 em_helix_mop_octamer_333      8    MOP   H134    334 0.14668000   3.023841   ; qtot -1.961070
  335 em_helix_mop_octamer_334      8    MOP   H135    335 0.13963000   3.023841   ; qtot -1.821440
  336 em_helix_mop_octamer_335      8    MOP   H136    336 0.15632001   3.023841   ; qtot -1.665120
  337 em_helix_mop_octamer_336      8    MOP   H137    337 0.04610000   3.023841   ; qtot -1.619020
  338 em_helix_mop_octamer_337      8    MOP   H138    338 0.04610000   3.023841   ; qtot -1.572920
  339 em_helix_mop_octamer_338      8    MOP   H139    339 0.04610000   3.023841   ; qtot -1.526820
  340 em_helix_mop_octamer_339      8    MOP   H140    340 0.14170000   3.023841   ; qtot -1.385120
  341 em_helix_mop_octamer_340      8    MOP   H141    341 0.14226000   3.023841   ; qtot -1.242860
  342 em_helix_mop_octamer_341      8    MOP   H142    342 0.13561000   3.023841   ; qtot -1.107250
  343 em_helix_mop_octamer_342      8    MOP   H143    343 0.13323000   3.023841   ; qtot -0.974020
  344 em_helix_mop_octamer_343      8    MOP   H144    344 0.14247000   3.023841   ; qtot -0.831550
  345 em_helix_mop_octamer_344      8    MOP   H145    345 0.13256000   3.023841   ; qtot -0.698990
  346 em_helix_mop_octamer_345      8    MOP   H146    346 0.08544000   3.023841   ; qtot -0.613550
  347 em_helix_mop_octamer_346      8    MOP   H147    347 0.32154000   3.023841   ; qtot -0.292010
  348 em_helix_mop_octamer_347      8    MOP   H148    348 0.04707000   3.023841   ; qtot -0.244940
  349 em_helix_mop_octamer_348      8    MOP   H149    349 0.04707000   3.023841   ; qtot -0.197870
  350 em_helix_mop_octamer_349      8    MOP   H150    350 0.04707000   3.023841   ; qtot -0.150800
  351 em_helix_mop_octamer_350      8    MOP   H151    351 0.13963000   3.023841   ; qtot -0.011170
  352 em_helix_mop_octamer_351      8    MOP   H152    352 0.14668000   3.023841   ; qtot 0.135510
; residue    9 CAP rtp CAP q -0.1
  353 em_helix_mop_octamer_352      9    CAP   C177    353 0.12467000   5.963098   ; qtot 0.260180
  354 em_helix_mop_octamer_353      9    CAP    O17    354 -0.42719001  15.999430   ; qtot -0.167010
  355 em_helix_mop_octamer_354      9    CAP   H153    355 0.05090000   3.023841   ; qtot -0.116110
  356 em_helix_mop_octamer_355      9    CAP   H154    356 0.05090000   3.023841   ; qtot -0.065210
  357 em_helix_mop_octamer_356      9    CAP   H155    357 0.05090000   3.023841   ; qtot -0.014310
; residue   10 CAP rtp CAP q 0.0
  358 em_helix_mop_octamer_357     10    CAP   C178    358 -0.11486000   5.963098   ; qtot -0.129170
  359 em_helix_mop_octamer_358     10    CAP   C179    359 0.18946999  12.010780   ; qtot 0.060300
  360 em_helix_mop_octamer_359     10    CAP   C180    360 -0.11486000   5.963098   ; qtot -0.054560
  361 em_helix_mop_octamer_360     10    CAP   C181    361 -0.11486000   5.963098   ; qtot -0.169420
  362 em_helix_mop_octamer_361     10    CAP    O18    362 -0.44876999  15.999430   ; qtot -0.618190
  363 em_helix_mop_octamer_362     10    CAP   C182    363 0.75136000  12.010780   ; qtot 0.133170
  364 em_helix_mop_octamer_363     10    CAP    O19    364 -0.60260999  15.999430   ; qtot -0.469440
  365 em_helix_mop_octamer_364     10    CAP   H156    365 0.05216000   3.023841   ; qtot -0.417280
  366 em_helix_mop_octamer_365     10    CAP   H157    366 0.05216000   3.023841   ; qtot -0.365120
  367 em_helix_mop_octamer_366     10    CAP   H158    367 0.05216000   3.023841   ; qtot -0.312960
  368 em_helix_mop_octamer_367     10    CAP   H159    368 0.05216000   3.023841   ; qtot -0.260800
  369 em_helix_mop_octamer_368     10    CAP   H160    369 0.05216000   3.023841   ; qtot -0.208640
  370 em_helix_mop_octamer_369     10    CAP   H161    370 0.05216000   3.023841   ; qtot -0.156480
  371 em_helix_mop_octamer_370     10    CAP   H162    371 0.05216000   3.023841   ; qtot -0.104320
  372 em_helix_mop_octamer_371     10    CAP   H163    372 0.05216000   3.023841   ; qtot -0.052160
  373 em_helix_mop_octamer_372     10    CAP   H164    373 0.05216000   3.023841   ; qtot 0.000000

[ bonds ]
;    ai     aj funct         c0         c1         c2         c3
      1      2     1   0.12250 637673.816836
      1      3     1   0.14679 223784.907186
      1    354     1   0.13561 243795.038367
      3      4     1   0.14007 315369.603109
      3     25     1   0.14007 315369.603109
      4      5     1   0.14007 315369.603109
      4     26     1   0.10860 323372.939139
      5      6     1   0.14007 315369.603109
      5     27     1   0.10860 323372.939139
      6      7     1   0.14679 223784.907186
      6     24     1   0.14007 315369.603109
      7      8     1   0.14007 315369.603109
      7     14     1   0.14007 315369.603109
      8      9     1   0.14007 315369.603109
      8     15     1   0.14679 223784.907186
      9     10     1   0.14007 315369.603109
      9     28     1   0.10860 323372.939139
     10     11     1   0.13720 266731.066407
     10     13     1   0.14007 315369.603109
     11     12     1   0.14363 189984.684332
     12     29     1   0.10929 317186.185379
     12     30     1   0.10929 317186.185379
     12     31     1   0.10929 317186.185379
     13     14     1   0.14007 315369.603109
     13     32     1   0.10860 323372.939139
     14     33     1   0.10860 323372.939139
     15     16     1   0.14007 315369.603109
     15     20     1   0.14007 315369.603109
     16     17     1   0.14007 315369.603109
     16     34     1   0.10860 323372.939139
     17     18     1   0.14007 315369.603109
     17     35     1   0.10860 323372.939139
     18     19     1   0.14007 315369.603109
     18     36     1   0.10860 323372.939139
     19     20     1   0.14007 315369.603109
     19     21     1   0.15096 200304.454301
     20     37     1   0.10860 323372.939139
     21     22     1   0.14621 202028.005745
     21     23     1   0.15336 180164.203624
     21     38     1   0.10929 317186.185379
     22     39     1   0.10186 402492.840308
     22     45     1   0.13838 273614.770188
     23     40     1   0.10929 317186.185379
     23     41     1   0.10929 317186.185379
     23     42     1   0.10929 317186.185379
     24     25     1   0.14007 315369.603109
     24     43     1   0.10860 323372.939139
     25     44     1   0.10860 323372.939139
     45     46     1   0.12250 637673.816836
     45     47     1   0.14679 223784.907186
     47     48     1   0.14007 315369.603109
     47     69     1   0.14007 315369.603109
     48     49     1   0.14007 315369.603109
     48     70     1   0.10860 323372.939139
     49     50     1   0.14007 315369.603109
     49     71     1   0.10860 323372.939139
     50     51     1   0.14679 223784.907186
     50     68     1   0.14007 315369.603109
     51     52     1   0.14007 315369.603109
     51     58     1   0.14007 315369.603109
     52     53     1   0.14007 315369.603109
     52     59     1   0.14679 223784.907186
     53     54     1   0.14007 315369.603109
     53     72     1   0.10860 323372.939139
     54     55     1   0.13720 266731.066407
     54     57     1   0.14007 315369.603109
     55     56     1   0.14363 189984.684332
     56     73     1   0.10929 317186.185379
     56     74     1   0.10929 317186.185379
     56     75     1   0.10929 317186.185379
     57     58     1   0.14007 315369.603109
     57     76     1   0.10860 323372.939139
     58     77     1   0.10860 323372.939139
     59     60     1   0.14007 315369.603109
     59     64     1   0.14007 315369.603109
     60     61     1   0.14007 315369.603109
     60     78     1   0.10860 323372.939139
     61     62     1   0.14007 315369.603109
     61     79     1   0.10860 323372.939139
     62     63     1   0.14007 315369.603109
     62     80     1   0.10860 323372.939139
     63     64     1   0.14007 315369.603109
     63     65     1   0.15096 200304.454301
     64     81     1   0.10860 323372.939139
     65     66     1   0.14621 202028.005745
     65     67     1   0.15336 180164.203624
     65     82     1   0.10929 317186.185379
     66     83     1   0.10186 402492.840308
     66     89     1   0.13838 273614.770188
     67     84     1   0.10929 317186.185379
     67     85     1   0.10929 317186.185379
     67     86     1   0.10929 317186.185379
     68     69     1   0.14007 315369.603109
     68     87     1   0.10860 323372.939139
     69     88     1   0.10860 323372.939139
     89     90     1   0.12250 637673.816836
     89     91     1   0.14679 223784.907186
     91     92     1   0.14007 315369.603109
     91    113     1   0.14007 315369.603109
     92     93     1   0.14007 315369.603109
     92    114     1   0.10860 323372.939139
     93     94     1   0.14007 315369.603109
     93    115     1   0.10860 323372.939139
     94     95     1   0.14679 223784.907186
     94    112     1   0.14007 315369.603109
     95     96     1   0.14007 315369.603109
     95    102     1   0.14007 315369.603109
     96     97     1   0.14007 315369.603109
     96    103     1   0.14679 223784.907186
     97     98     1   0.14007 315369.603109
     97    116     1   0.10860 323372.939139
     98     99     1   0.13720 266731.066407
     98    101     1   0.14007 315369.603109
     99    100     1   0.14363 189984.684332
    100    117     1   0.10929 317186.185379
    100    118     1   0.10929 317186.185379
    100    119     1   0.10929 317186.185379
    101    102     1   0.14007 315369.603109
    101    120     1   0.10860 323372.939139
    102    121     1   0.10860 323372.939139
    103    104     1   0.14007 315369.603109
    103    108     1   0.14007 315369.603109
    104    105     1   0.14007 315369.603109
    104    122     1   0.10860 323372.939139
    105    106     1   0.14007 315369.603109
    105    123     1   0.10860 323372.939139
    106    107     1   0.14007 315369.603109
    106    124     1   0.10860 323372.939139
    107    108     1   0.14007 315369.603109
    107    109     1   0.15096 200304.454301
    108    125     1   0.10860 323372.939139
    109    110     1   0.14621 202028.005745
    109    111     1   0.15336 180164.203624
    109    126     1   0.10929 317186.185379
    110    127     1   0.10186 402492.840308
    110    133     1   0.13838 273614.770188
    111    128     1   0.10929 317186.185379
    111    129     1   0.10929 317186.185379
    111    130     1   0.10929 317186.185379
    112    113     1   0.14007 315369.603109
    112    131     1   0.10860 323372.939139
    113    132     1   0.10860 323372.939139
    133    134     1   0.12250 637673.816836
    133    135     1   0.14679 223784.907186
    135    136     1   0.14007 315369.603109
    135    157     1   0.14007 315369.603109
    136    137     1   0.14007 315369.603109
    136    158     1   0.10860 323372.939139
    137    138     1   0.14007 315369.603109
    137    159     1   0.10860 323372.939139
    138    139     1   0.14679 223784.907186
    138    156     1   0.14007 315369.603109
    139    140     1   0.14007 315369.603109
    139    146     1   0.14007 315369.603109
    140    141     1   0.14007 315369.603109
    140    147     1   0.14679 223784.907186
    141    142     1   0.14007 315369.603109
    141    160     1   0.10860 323372.939139
    142    143     1   0.13720 266731.066407
    142    145     1   0.14007 315369.603109
    143    144     1   0.14363 189984.684332
    144    161     1   0.10929 317186.185379
    144    162     1   0.10929 317186.185379
    144    163     1   0.10929 317186.185379
    145    146     1   0.14007 315369.603109
    145    164     1   0.10860 323372.939139
    146    165     1   0.10860 323372.939139
    147    148     1   0.14007 315369.603109
    147    152     1   0.14007 315369.603109
    148    149     1   0.14007 315369.603109
    148    166     1   0.10860 323372.939139
    149    150     1   0.14007 315369.603109
    149    167     1   0.10860 323372.939139
    150    151     1   0.14007 315369.603109
    150    168     1   0.10860 323372.939139
    151    152     1   0.14007 315369.603109
    151    153     1   0.15096 200304.454301
    152    169     1   0.10860 323372.939139
    153    154     1   0.14621 202028.005745
    153    155     1   0.15336 180164.203624
    153    170     1   0.10929 317186.185379
    154    171     1   0.10186 402492.840308
    154    177     1   0.13838 273614.770188
    155    172     1   0.10929 317186.185379
    155    173     1   0.10929 317186.185379
    155    174     1   0.10929 317186.185379
    156    157     1   0.14007 315369.603109
    156    175     1   0.10860 323372.939139
    157    176     1   0.10860 323372.939139
    177    178     1   0.12250 637673.816836
    177    179     1   0.14679 223784.907186
    179    180     1   0.14007 315369.603109
    179    201     1   0.14007 315369.603109
    180    181     1   0.14007 315369.603109
    180    202     1   0.10860 323372.939139
    181    182     1   0.14007 315369.603109
    181    203     1   0.10860 323372.939139
    182    183     1   0.14679 223784.907186
    182    200     1   0.14007 315369.603109
    183    184     1   0.14007 315369.603109
    183    190     1   0.14007 315369.603109
    184    185     1   0.14007 315369.603109
    184    191     1   0.14679 223784.907186
    185    186     1   0.14007 315369.603109
    185    204     1   0.10860 323372.939139
    186    187     1   0.13720 266731.066407
    186    189     1   0.14007 315369.603109
    187    188     1   0.14363 189984.684332
    188    205     1   0.10929 317186.185379
    188    206     1   0.10929 317186.185379
    188    207     1   0.10929 317186.185379
    189    190     1   0.14007 315369.603109
    189    208     1   0.10860 323372.939139
    190    209     1   0.10860 323372.939139
    191    192     1   0.14007 315369.603109
    191    196     1   0.14007 315369.603109
    192    193     1   0.14007 315369.603109
    192    210     1   0.10860 323372.939139
    193    194     1   0.14007 315369.603109
    193    211     1   0.10860 323372.939139
    194    195     1   0.14007 315369.603109
    194    212     1   0.10860 323372.939139
    195    196     1   0.14007 315369.603109
    195    197     1   0.15096 200304.454301
    196    213     1   0.10860 323372.939139
    197    198     1   0.14621 202028.005745
    197    199     1   0.15336 180164.203624
    197    214     1   0.10929 317186.185379
    198    215     1   0.10186 402492.840308
    198    221     1   0.13838 273614.770188
    199    216     1   0.10929 317186.185379
    199    217     1   0.10929 317186.185379
    199    218     1   0.10929 317186.185379
    200    201     1   0.14007 315369.603109
    200    219     1   0.10860 323372.939139
    201    220     1   0.10860 323372.939139
    221    222     1   0.12250 637673.816836
    221    223     1   0.14679 223784.907186
    223    224     1   0.14007 315369.603109
    223    245     1   0.14007 315369.603109
    224    225     1   0.14007 315369.603109
    224    246     1   0.10860 323372.939139
    225    226     1   0.14007 315369.603109
    225    247     1   0.10860 323372.939139
    226    227     1   0.14679 223784.907186
    226    244     1   0.14007 315369.603109
    227    228     1   0.14007 315369.603109
    227    234     1   0.14007 315369.603109
    228    229     1   0.14007 315369.603109
    228    235     1   0.14679 223784.907186
    229    230     1   0.14007 315369.603109
    229    248     1   0.10860 323372.939139
    230    231     1   0.13720 266731.066407
    230    233     1   0.14007 315369.603109
    231    232     1   0.14363 189984.684332
    232    249     1   0.10929 317186.185379
    232    250     1   0.10929 317186.185379
    232    251     1   0.10929 317186.185379
    233    234     1   0.14007 315369.603109
    233    252     1   0.10860 323372.939139
    234    253     1   0.10860 323372.939139
    235    236     1   0.14007 315369.603109
    235    240     1   0.14007 315369.603109
    236    237     1   0.14007 315369.603109
    236    254     1   0.10860 323372.939139
    237    238     1   0.14007 315369.603109
    237    255     1   0.10860 323372.939139
    238    239     1   0.14007 315369.603109
    238    256     1   0.10860 323372.939139
    239    240     1   0.14007 315369.603109
    239    241     1   0.15096 200304.454301
    240    257     1   0.10860 323372.939139
    241    242     1   0.14621 202028.005745
    241    243     1   0.15336 180164.203624
    241    258     1   0.10929 317186.185379
    242    259     1   0.10186 402492.840308
    242    265     1   0.13838 273614.770188
    243    260     1   0.10929 317186.185379
    243    261     1   0.10929 317186.185379
    243    262     1   0.10929 317186.185379
    244    245     1   0.14007 315369.603109
    244    263     1   0.10860 323372.939139
    245    264     1   0.10860 323372.939139
    265    266     1   0.12250 637673.816836
    265    267     1   0.14679 223784.907186
    267    268     1   0.14007 315369.603109
    267    289     1   0.14007 315369.603109
    268    269     1   0.14007 315369.603109
    268    290     1   0.10860 323372.939139
    269    270     1   0.14007 315369.603109
    269    291     1   0.10860 323372.939139
    270    271     1   0.14679 223784.907186
    270    288     1   0.14007 315369.603109
    271    272     1   0.14007 315369.603109
    271    278     1   0.14007 315369.603109
    272    273     1   0.14007 315369.603109
    272    279     1   0.14679 223784.907186
    273    274     1   0.14007 315369.603109
    273    292     1   0.10860 323372.939139
    274    275     1   0.13720 266731.066407
    274    277     1   0.14007 315369.603109
    275    276     1   0.14363 189984.684332
    276    293     1   0.10929 317186.185379
    276    294     1   0.10929 317186.185379
    276    295     1   0.10929 317186.185379
    277    278     1   0.14007 315369.603109
    277    296     1   0.10860 323372.939139
    278    297     1   0.10860 323372.939139
    279    280     1   0.14007 315369.603109
    279    284     1   0.14007 315369.603109
    280    281     1   0.14007 315369.603109
    280    298     1   0.10860 323372.939139
    281    282     1   0.14007 315369.603109
    281    299     1   0.10860 323372.939139
    282    283     1   0.14007 315369.603109
    282    300     1   0.10860 323372.939139
    283    284     1   0.14007 315369.603109
    283    285     1   0.15096 200304.454301
    284    301     1   0.10860 323372.939139
    285    286     1   0.14621 202028.005745
    285    287     1   0.15336 180164.203624
    285    302     1   0.10929 317186.185379
    286    303     1   0.10186 402492.840308
    286    309     1   0.13838 273614.770188
    287    304     1   0.10929 317186.185379
    287    305     1   0.10929 317186.185379
    287    306     1   0.10929 317186.185379
    288    289     1   0.14007 315369.603109
    288    307     1   0.10860 323372.939139
    289    308     1   0.10860 323372.939139
    309    310     1   0.12250 637673.816836
    309    311     1   0.14679 223784.907186
    311    312     1   0.14007 315369.603109
    311    333     1   0.14007 315369.603109
    312    313     1   0.14007 315369.603109
    312    334     1   0.10860 323372.939139
    313    314     1   0.14007 315369.603109
    313    335     1   0.10860 323372.939139
    314    315     1   0.14679 223784.907186
    314    332     1   0.14007 315369.603109
    315    316     1   0.14007 315369.603109
    315    322     1   0.14007 315369.603109
    316    317     1   0.14007 315369.603109
    316    323     1   0.14679 223784.907186
    317    318     1   0.14007 315369.603109
    317    336     1   0.10860 323372.939139
    318    319     1   0.13720 266731.066407
    318    321     1   0.14007 315369.603109
    319    320     1   0.14363 189984.684332
    320    337     1   0.10929 317186.185379
    320    338     1   0.10929 317186.185379
    320    339     1   0.10929 317186.185379
    321    322     1   0.14007 315369.603109
    321    340     1   0.10860 323372.939139
    322    341     1   0.10860 323372.939139
    323    324     1   0.14007 315369.603109
    323    328     1   0.14007 315369.603109
    324    325     1   0.14007 315369.603109
    324    342     1   0.10860 323372.939139
    325    326     1   0.14007 315369.603109
    325    343     1   0.10860 323372.939139
    326    327     1   0.14007 315369.603109
    326    344     1   0.10860 323372.939139
    327    328     1   0.14007 315369.603109
    327    329     1   0.15096 200304.454301
    328    345     1   0.10860 323372.939139
    329    330     1   0.14621 202028.005745
    329    331     1   0.15336 180164.203624
    329    346     1   0.10929 317186.185379
    330    347     1   0.10186 402492.840308
    330    363     1   0.13838 273614.770188
    331    348     1   0.10929 317186.185379
    331    349     1   0.10929 317186.185379
    331    350     1   0.10929 317186.185379
    332    333     1   0.14007 315369.603109
    332    351     1   0.10860 323372.939139
    333    352     1   0.10860 323372.939139
    353    354     1   0.14363 189984.684332
    353    355     1   0.10929 317186.185379
    353    356     1   0.10929 317186.185379
    353    357     1   0.10929 317186.185379
    358    359     1   0.15336 180164.203624
    358    365     1   0.10929 317186.185379
    358    366     1   0.10929 317186.185379
    358    367     1   0.10929 317186.185379
    359    360     1   0.15336 180164.203624
    359    361     1   0.15336 180164.203624
    359    362     1   0.14363 189984.684332
    360    368     1   0.10929 317186.185379
    360    369     1   0.10929 317186.185379
    360    370     1   0.10929 317186.185379
    361    371     1   0.10929 317186.185379
    361    372     1   0.10929 317186.185379
    361    373     1   0.10929 317186.185379
    362    363     1   0.13561 243795.038367
    363    364     1   0.12250 637673.816836

[ pairs ]
;    ai     aj funct         c0         c1         c2         c3
    227    240     1
     65     80     1
     62     82     1
    151    167     1
    134    157     1
    111    127     1
     89    132     1
    313    333     1
    259    267     1
     38     39     1
    270    279     1
    314    323     1
    180    200     1
    265    288     1
     83     91     1
     51     87     1
    258    259     1
    140    165     1
     98    117     1
     55     72     1
    183    204     1
    224    244     1
     66    113     1
      8     34     1
     64     82     1
     62     67     1
    138    158     1
    139    159     1
    133    158     1
    154    174     1
     98    119     1
    228    253     1
    279    285     1
    327    348     1
     95    104     1
    177    200     1
    186    209     1
     52     78     1
    271    307     1
     89    114     1
    286    304     1
     96    105     1
     46     48     1
    148    151     1
     95    120     1
    254    255     1
     18     22     1
    258    261     1
    126    129     1
    283    299     1
    150    169     1
    318    341     1
    329    344     1
     64     67     1
    184    209     1
    328    346     1
    267    307     1
     95     98     1
    314    352     1
    313    351     1
     60     81     1
    109    134     1
    140    151     1
    274    293     1
    226    235     1
    327    347     1
     99    116     1
    360    371     1
    228    254     1
    167    168     1
    109    135     1
    186    191     1
    270    308     1
    150    170     1
     63     79     1
    135    138     1
      4    354     1
    359    364     1
     24     27     1
     64     80     1
    230    249     1
     96    122     1
     21     47     1
    170    172     1
    139    160     1
    194    213     1
    183    219     1
    326    345     1
    314    334     1
    275    292     1
    229    240     1
    265    269     1
      7     25     1
      9     14     1
    196    214     1
    153    179     1
    309    313     1
    140    156     1
    242    261     1
    360    363     1
    259    266     1
    186    207     1
      8     13     1
      7     10     1
     17     20     1
    241    256     1
     93    113     1
    309    332     1
     18     37     1
      6     33     1
    194    210     1
    230    250     1
     52     57     1
    192    213     1
    315    340     1
    134    136     1
    279    299     1
    240    256     1
    269    307     1
     98    118     1
    241    267     1
     53     76     1
    314    321     1
     96    121     1
    316    327     1
    361    363     1
    187    190     1
     94     97     1
     47     71     1
     49     69     1
    346    348     1
     10     29     1
     63     83     1
    123    124     1
    314    341     1
    147    160     1
    285    301     1
    186    205     1
    327    343     1
    106    110     1
    284    302     1
     10     15     1
    185    190     1
    195    218     1
    236    257     1
     18     38     1
    240    242     1
     50     59     1
    229    234     1
    182    209     1
     95    108     1
    180    183     1
    230    235     1
    272    298     1
     63     86     1
     94    101     1
     91    131     1
     83     90     1
     95    116     1
    198    224     1
    286    306     1
    346    347     1
     62     66     1
    139    164     1
    362    368     1
    135    175     1
    279    282     1
     96    112     1
    327    349     1
     38     40     1
    273    296     1
     34     35     1
    325    328     1
    347    364     1
    328    330     1
      8     24     1
    302    305     1
     82     83     1
     48     51     1
    152    154     1
    137    146     1
    195    221     1
    235    255     1
    188    189     1
    265    290     1
     64     66     1
    127    134     1
     90    113     1
    126    127     1
     11     14     1
    127    135     1
     94    132     1
    329    345     1
    185    192     1
    138    165     1
    184    195     1
    296    297     1
    222    245     1
    226    233     1
    332    335     1
    284    287     1
     82     86     1
    215    222     1
    194    199     1
    237    240     1
    142    147     1
    197    212     1
    284    298     1
    280    283     1
    139    142     1
     52     81     1
     92     95     1
     63     84     1
     25    354     1
    225    234     1
    360    367     1
    103    109     1
     23     39     1
    321    336     1
    276    277     1
     78     79     1
    326    346     1
     61     64     1
    104    125     1
     60     63     1
    318    338     1
    273    278     1
    238    254     1
     21     36     1
    151    171     1
    171    178     1
    221    225     1
     87     88     1
    358    371     1
     53     56     1
    122    123     1
    361    367     1
    154    201     1
     54     77     1
     60     80     1
    265    308     1
    268    288     1
     82     85     1
     82     84     1
    136    139     1
    328    342     1
      7     43     1
     22     40     1
    147    153     1
    133    156     1
    224    227     1
    238    258     1
     57     72     1
    190    191     1
    208    209     1
    227    248     1
    284    300     1
    225    228     1
    283    305     1
    236    256     1
    319    336     1
    277    292     1
    283    309     1
    330    350     1
    223    247     1
    107    128     1
    221    244     1
    104    124     1
    226    264     1
    184    193     1
    185    196     1
      6     26     1
    275    296     1
    110    128     1
    234    235     1
     45     68     1
     89     93     1
    235    248     1
     38     45     1
    146    147     1
    288    291     1
    108    126     1
    238    243     1
    331    363     1
     12     13     1
    100    101     1
    330    359     1
     63     89     1
     62     78     1
    317    328     1
     20     34     1
    273    280     1
    102    103     1
    310    333     1
    278    288     1
    183    186     1
    312    352     1
     47     50     1
    181    219     1
    289    290     1
    225    263     1
    133    137     1
    282    286     1
    152    155     1
     15     21     1
     46     69     1
     95    131     1
     43     44     1
    192    212     1
    228    233     1
    231    248     1
    286    333     1
    139    152     1
    151    174     1
    199    215     1
    240    254     1
    183    203     1
    266    268     1
    211    212     1
    315    351     1
    326    330     1
    285    311     1
     82     89     1
     97    104     1
    328    331     1
    228    231     1
    272    297     1
    229    236     1
    316    321     1
     17     21     1
      5     14     1
    272    281     1
      5     25     1
    178    180     1
     52     61     1
    214    218     1
    227    230     1
     97    120     1
    144    145     1
    104    107     1
    153    169     1
     19     39     1
    275    278     1
    152    166     1
    316    341     1
    195    216     1
     39     46     1
     18     34     1
     65     91     1
    170    173     1
    362    371     1
    109    125     1
     21     37     1
    280    301     1
     66     86     1
    107    123     1
      3      6     1
     69     70     1
    329    362     1
    157    158     1
      3    353     1
      5      8     1
     26     27     1
      2    353     1
    196    210     1
     96    125     1
    183    201     1
    282    301     1
    214    221     1
     91     94     1
    236    239     1
    107    130     1
    315    335     1
    141    148     1
    302    303     1
    156    159     1
    240    243     1
    303    310     1
     98    103     1
    114    115     1
    222    224     1
    210    211     1
    140    143     1
     14     24     1
    110    130     1
    274    295     1
    358    370     1
     25     26     1
    235    241     1
     51     72     1
    281    285     1
     92    132     1
    287    309     1
    180    220     1
    154    172     1
    185    188     1
     70     71     1
     67     83     1
    147    150     1
    187    208     1
    110    157     1
    109    124     1
    221    246     1
    252    253     1
    154    173     1
    273    276     1
     89    112     1
     66     85     1
    333    334     1
     66     84     1
    315    328     1
    106    122     1
    351    352     1
     15     35     1
    177    220     1
    271    284     1
    140    166     1
    311    314     1
    360    372     1
    191    197     1
    226    229     1
     13     28     1
    183    192     1
     22     48     1
    320    321     1
     45     88     1
    151    172     1
      1    356     1
    170    177     1
    286    305     1
    360    366     1
    302    309     1
     52     77     1
      8     17     1
     97    108     1
     38     42     1
      3     27     1
     97    100     1
     14     15     1
    147    167     1
    318    337     1
     59     65     1
     51     54     1
     55     76     1
    103    123     1
    316    342     1
    106    126     1
      6     44     1
    272    288     1
     66     92     1
    331    347     1
     59     72     1
     10     31     1
    361    366     1
    268    308     1
      2      4     1
      1      5     1
    126    128     1
    278    279     1
    327    363     1
     35     36     1
    136    156     1
    186    206     1
    150    154     1
    316    332     1
     47     87     1
    181    184     1
    241    266     1
     58     59     1
      6     13     1
    153    168     1
    319    322     1
    322    323     1
    198    218     1
     49     58     1
     55     58     1
     94    114     1
     65     90     1
    182    202     1
     50     88     1
     19     35     1
    196    198     1
    283    303     1
     23     45     1
    309    352     1
    227    252     1
    299    300     1
    191    211     1
    197    222     1
     96    107     1
    137    140     1
    242    289     1
     19     40     1
     51     69     1
    177    181     1
    245    246     1
    279    292     1
    312    332     1
    329    364     1
     10     33     1
    235    238     1
     97    102     1
     49     87     1
     50     57     1
    271    291     1
     93    102     1
    323    336     1
      5     43     1
    362    367     1
    110    136     1
      9     12     1
    361    370     1
    309    334     1
    138    141     1
    108    122     1
    142    165     1
     50     53     1
    135    159     1
    145    160     1
     15     18     1
    183    196     1
    318    323     1
    267    291     1
    274    297     1
    330    348     1
    139    175     1
      7     27     1
    120    121     1
    346    349     1
    112    115     1
    271    274     1
     51     60     1
    268    271     1
     92    112     1
    155    177     1
    325    329     1
    316    319     1
    242    268     1
      7     28     1
    361    369     1
    360    373     1
    200    203     1
     22     42     1
    138    176     1
    258    262     1
     54     75     1
    133    176     1
     99    120     1
    324    345     1
    182    185     1
     54     73     1
    323    326     1
    274    279     1
    231    252     1
      8     11     1
    105    109     1
      8     19     1
    219    220     1
    318    339     1
    360    365     1
    196    212     1
    214    216     1
    315    333     1
    171    179     1
    140    145     1
     22     41     1
    266    289     1
    102    112     1
    280    300     1
    149    153     1
      1     26     1
    179    203     1
    107    133     1
    184    210     1
    233    248     1
    313    322     1
    244    247     1
    107    127     1
     49     52     1
     67     89     1
    258    265     1
     50     77     1
    285    310     1
    361    365     1
     76     77     1
    228    257     1
    126    130     1
    232    233     1
    311    335     1
    298    299     1
     96    101     1
    179    219     1
      8     33     1
    227    245     1
    140    149     1
     64     78     1
    271    292     1
    111    133     1
    242    262     1
     94    103     1
    141    144     1
    108    124     1
     21     46     1
    181    201     1
    131    132     1
    141    146     1
      2     25     1
      6     15     1
    223    263     1
     59     79     1
    358    372     1
     10     30     1
    272    301     1
    285    300     1
    137    175     1
    319    340     1
    258    260     1
    181    190     1
     98    121     1
    347    362     1
     90     92     1
    192    195     1
    272    277     1
    150    155     1
    287    303     1
    312    315     1
     19     45     1
    187    204     1
    152    170     1
    175    176     1
     93    131     1
    358    368     1
      4      7     1
    153    178     1
    317    324     1
    238    242     1
    302    304     1
    240    258     1
    315    336     1
     11     28     1
     51     64     1
      7     20     1
     91    115     1
    313    316     1
     32     33     1
      8     37     1
     52     63     1
    327    350     1
      9     20     1
    184    200     1
    328    344     1
      1    355     1
    182    189     1
    177    202     1
     16     36     1
     45     70     1
    195    215     1
    271    280     1
    143    160     1
    179    182     1
     68     71     1
    242    260     1
    330    349     1
    150    166     1
    142    162     1
    230    251     1
    269    278     1
    273    284     1
    113    114     1
    272    275     1
     95    113     1
    201    202     1
    214    217     1
    166    167     1
    143    146     1
    141    164     1
    323    329     1
    255    256     1
    148    169     1
     54     59     1
    286    312     1
    183    208     1
      6      9     1
     20     38     1
    239    262     1
    202    203     1
     58     68     1
    274    294     1
      7     32     1
    103    106     1
      9     32     1
    140    169     1
     65     81     1
    139    157     1
     53     60     1
    146    156     1
     96     99     1
    149    152     1
    194    214     1
    324    344     1
    227    247     1
    178    201     1
     48     68     1
    358    369     1
     16     19     1
     39     47     1
    343    344     1
    198    216     1
    326    342     1
    185    208     1
    281    284     1
    243    265     1
     56     57     1
     22     69     1
     50     70     1
    239    265     1
    215    223     1
     99    102     1
      4     44     1
    316    345     1
    231    234     1
    151    173     1
    199    221     1
    315    318     1
    269    272     1
    107    129     1
    272    283     1
    358    373     1
    184    187     1
    106    125     1
    267    270     1
      7     16     1
     45     49     1
    138    147     1
    138    145     1
    282    302     1
    317    322     1
    322    332     1
      9     16     1
    110    129     1
    362    372     1
     62     81     1
    195    217     1
    196    199     1
    229    232     1
    290    291     1
    143    164     1
    283    304     1
    271    289     1
    303    311     1
    346    350     1
    243    259     1
    106    111     1
    152    168     1
     53     58     1
    239    260     1
    139    148     1
    197    223     1
    225    245     1
     38     41     1
    170    171     1
    228    237     1
    239    259     1
    263    264     1
    302    306     1
     52     55     1
    362    366     1
    227    263     1
    361    368     1
      1     44     1
    238    257     1
    239    255     1
     93     96     1
    226    246     1
    228    244     1
    315    324     1
     20     23     1
    226    253     1
    154    180     1
    136    176     1
    126    133     1
    101    116     1
    182    191     1
    137    157     1
      3     43     1
    239    261     1
    334    335     1
    282    287     1
     11     32     1
    307    308     1
    326    331     1
    103    116     1
     16     37     1
    340    341     1
     20     36     1
    282    298     1
     19     42     1
    142    163     1
      1    357     1
    271    296     1
     53     64     1
    362    370     1
      4     24     1
    164    165     1
     63     85     1
    142    161     1
    151    177     1
    221    264     1
    246    247     1
    317    320     1
     52     68     1
    191    204     1
    148    168     1
    198    217     1
    311    351     1
     51     71     1
     19     41     1
    189    204     1
     59     62     1
     54     74     1
    158    159     1
    193    197     1
    316    325     1
     95    115     1
    269    289     1
    184    213     1
    198    245     1
    194    198     1
     18     23     1
    362    369     1
    193    196     1
    342    343     1
     94    121     1
    224    264     1
    324    327     1
    310    312     1
    190    200     1
    228    239     1
    108    110     1
    184    189     1
    270    273     1
      1     24     1
     51     76     1
     61     65     1
    314    317     1
    170    174     1
    105    108     1
     15     28     1
    108    111     1
    155    171     1
    241    257     1
    141    152     1
     48     88     1
    346    363     1
    362    373     1
    234    244     1
    237    241     1
    283    306     1
     79     80     1
    230    253     1
    227    236     1
    191    194     1
    197    213     1
    229    252     1
    323    343     1
    182    220     1
    223    226     1
    317    340     1
    270    297     1
     20     22     1
    362    365     1
    214    215     1
    284    286     1
    270    277     1
    270    290     1
    195    211     1
    358    363     1

[ angles ]
;    ai     aj     ak funct         c0         c1         c2         c3
      1      3      4     1   120.1049996 707.494800
      1      3     25     1   120.1049996 707.494800
      1    354    353     1   112.8736161 1003.288804
      2      1      3     1   120.1049996 707.494800
      2      1    354     1   123.6058900 529.778360
      3      1    354     1   120.1049996 707.494800
      3      4      5     1   120.1049996 707.494800
      3      4     26     1   119.8544860 275.494454
      3     25     24     1   120.1049996 707.494800
      3     25     44     1   119.8544860 275.494454
      4      3     25     1   120.1049996 707.494800
      4      5      6     1   120.1049996 707.494800
      4      5     27     1   119.8544860 275.494454
      5      4     26     1   119.8544860 275.494454
      5      6      7     1   120.1049996 707.494800
      5      6     24     1   120.1049996 707.494800
      6      5     27     1   119.8544860 275.494454
      6      7      8     1   120.1049996 707.494800
      6      7     14     1   120.1049996 707.494800
      6     24     25     1   120.1049996 707.494800
      6     24     43     1   119.8544860 275.494454
      7      6     24     1   120.1049996 707.494800
      7      8      9     1   120.1049996 707.494800
      7      8     15     1   120.1049996 707.494800
      7     14     13     1   120.1049996 707.494800
      7     14     33     1   119.8544860 275.494454
      8      7     14     1   120.1049996 707.494800
      8      9     10     1   120.1049996 707.494800
      8      9     28     1   119.8544860 275.494454
      8     15     16     1   120.1049996 707.494800
      8     15     20     1   120.1049996 707.494800
      9      8     15     1   120.1049996 707.494800
      9     10     11     1   120.1049996 707.494800
      9     10     13     1   120.1049996 707.494800
     10      9     28     1   119.8544860 275.494454
     10     11     12     1   112.8736161 1003.288804
     10     13     14     1   120.1049996 707.494800
     10     13     32     1   119.8544860 275.494454
     11     10     13     1   120.1049996 707.494800
     11     12     29     1   107.6607822 425.669015
     11     12     30     1   107.6607822 425.669015
     11     12     31     1   107.6607822 425.669015
     13     14     33     1   119.8544860 275.494454
     14     13     32     1   119.8544860 275.494454
     15     16     17     1   120.1049996 707.494800
     15     16     34     1   119.8544860 275.494454
     15     20     19     1   120.1049996 707.494800
     15     20     37     1   119.8544860 275.494454
     16     15     20     1   120.1049996 707.494800
     16     17     18     1   120.1049996 707.494800
     16     17     35     1   119.8544860 275.494454
     17     16     34     1   119.8544860 275.494454
     17     18     19     1   120.1049996 707.494800
     17     18     36     1   119.8544860 275.494454
     18     17     35     1   119.8544860 275.494454
     18     19     20     1   120.1049996 707.494800
     18     19     21     1   120.1049996 707.494800
     19     18     36     1   119.8544860 275.494454
     19     20     37     1   119.8544860 275.494454
     19     21     22     1   107.6607822 425.669015
     19     21     23     1   107.6607822 425.669015
     19     21     38     1   107.6607822 425.669015
     20     19     21     1   120.1049996 707.494800
     21     22     39     1   118.0636611 310.493310
     21     22     45     1   121.7705344 665.074568
     21     23     40     1   107.6607822 425.669015
     21     23     41     1   107.6607822 425.669015
     21     23     42     1   107.6607822 425.669015
     22     21     23     1   107.6607822 425.669015
     22     21     38     1   107.6607822 425.669015
     22     45     46     1   120.1049996 707.494800
     22     45     47     1   120.1049996 707.494800
     23     21     38     1   107.6607822 425.669015
     24     25     44     1   119.8544860 275.494454
     25     24     43     1   119.8544860 275.494454
     29     12     30     1   108.3543135 307.746906
     29     12     31     1   108.3543135 307.746906
     30     12     31     1   108.3543135 307.746906
     39     22     45     1   118.0636611 310.493310
     40     23     41     1   108.3543135 307.746906
     40     23     42     1   108.3543135 307.746906
     41     23     42     1   108.3543135 307.746906
     45     47     48     1   120.1049996 707.494800
     45     47     69     1   120.1049996 707.494800
     46     45     47     1   120.1049996 707.494800
     47     48     49     1   120.1049996 707.494800
     47     48     70     1   119.8544860 275.494454
     47     69     68     1   120.1049996 707.494800
     47     69     88     1   119.8544860 275.494454
     48     47     69     1   120.1049996 707.494800
     48     49     50     1   120.1049996 707.494800
     48     49     71     1   119.8544860 275.494454
     49     48     70     1   119.8544860 275.494454
     49     50     51     1   120.1049996 707.494800
     49     50     68     1   120.1049996 707.494800
     50     49     71     1   119.8544860 275.494454
     50     51     52     1   120.1049996 707.494800
     50     51     58     1   120.1049996 707.494800
     50     68     69     1   120.1049996 707.494800
     50     68     87     1   119.8544860 275.494454
     51     50     68     1   120.1049996 707.494800
     51     52     53     1   120.1049996 707.494800
     51     52     59     1   120.1049996 707.494800
     51     58     57     1   120.1049996 707.494800
     51     58     77     1   119.8544860 275.494454
     52     51     58     1   120.1049996 707.494800
     52     53     54     1   120.1049996 707.494800
     52     53     72     1   119.8544860 275.494454
     52     59     60     1   120.1049996 707.494800
     52     59     64     1   120.1049996 707.494800
     53     52     59     1   120.1049996 707.494800
     53     54     55     1   120.1049996 707.494800
     53     54     57     1   120.1049996 707.494800
     54     53     72     1   119.8544860 275.494454
     54     55     56     1   112.8736161 1003.288804
     54     57     58     1   120.1049996 707.494800
     54     57     76     1   119.8544860 275.494454
     55     54     57     1   120.1049996 707.494800
     55     56     73     1   107.6607822 425.669015
     55     56     74     1   107.6607822 425.669015
     55     56     75     1   107.6607822 425.669015
     57     58     77     1   119.8544860 275.494454
     58     57     76     1   119.8544860 275.494454
     59     60     61     1   120.1049996 707.494800
     59     60     78     1   119.8544860 275.494454
     59     64     63     1   120.1049996 707.494800
     59     64     81     1   119.8544860 275.494454
     60     59     64     1   120.1049996 707.494800
     60     61     62     1   120.1049996 707.494800
     60     61     79     1   119.8544860 275.494454
     61     60     78     1   119.8544860 275.494454
     61     62     63     1   120.1049996 707.494800
     61     62     80     1   119.8544860 275.494454
     62     61     79     1   119.8544860 275.494454
     62     63     64     1   120.1049996 707.494800
     62     63     65     1   120.1049996 707.494800
     63     62     80     1   119.8544860 275.494454
     63     64     81     1   119.8544860 275.494454
     63     65     66     1   107.6607822 425.669015
     63     65     67     1   107.6607822 425.669015
     63     65     82     1   107.6607822 425.669015
     64     63     65     1   120.1049996 707.494800
     65     66     83     1   118.0636611 310.493310
     65     66     89     1   121.7705344 665.074568
     65     67     84     1   107.6607822 425.669015
     65     67     85     1   107.6607822 425.669015
     65     67     86     1   107.6607822 425.669015
     66     65     67     1   107.6607822 425.669015
     66     65     82     1   107.6607822 425.669015
     66     89     90     1   120.1049996 707.494800
     66     89     91     1   120.1049996 707.494800
     67     65     82     1   107.6607822 425.669015
     68     69     88     1   119.8544860 275.494454
     69     68     87     1   119.8544860 275.494454
     73     56     74     1   108.3543135 307.746906
     73     56     75     1   108.3543135 307.746906
     74     56     75     1   108.3543135 307.746906
     83     66     89     1   118.0636611 310.493310
     84     67     85     1   108.3543135 307.746906
     84     67     86     1   108.3543135 307.746906
     85     67     86     1   108.3543135 307.746906
     89     91     92     1   120.1049996 707.494800
     89     91    113     1   120.1049996 707.494800
     90     89     91     1   120.1049996 707.494800
     91     92     93     1   120.1049996 707.494800
     91     92    114     1   119.8544860 275.494454
     91    113    112     1   120.1049996 707.494800
     91    113    132     1   119.8544860 275.494454
     92     91    113     1   120.1049996 707.494800
     92     93     94     1   120.1049996 707.494800
     92     93    115     1   119.8544860 275.494454
     93     92    114     1   119.8544860 275.494454
     93     94     95     1   120.1049996 707.494800
     93     94    112     1   120.1049996 707.494800
     94     93    115     1   119.8544860 275.494454
     94     95     96     1   120.1049996 707.494800
     94     95    102     1   120.1049996 707.494800
     94    112    113     1   120.1049996 707.494800
     94    112    131     1   119.8544860 275.494454
     95     94    112     1   120.1049996 707.494800
     95     96     97     1   120.1049996 707.494800
     95     96    103     1   120.1049996 707.494800
     95    102    101     1   120.1049996 707.494800
     95    102    121     1   119.8544860 275.494454
     96     95    102     1   120.1049996 707.494800
     96     97     98     1   120.1049996 707.494800
     96     97    116     1   119.8544860 275.494454
     96    103    104     1   120.1049996 707.494800
     96    103    108     1   120.1049996 707.494800
     97     96    103     1   120.1049996 707.494800
     97     98     99     1   120.1049996 707.494800
     97     98    101     1   120.1049996 707.494800
     98     97    116     1   119.8544860 275.494454
     98     99    100     1   112.8736161 1003.288804
     98    101    102     1   120.1049996 707.494800
     98    101    120     1   119.8544860 275.494454
     99     98    101     1   120.1049996 707.494800
     99    100    117     1   107.6607822 425.669015
     99    100    118     1   107.6607822 425.669015
     99    100    119     1   107.6607822 425.669015
    101    102    121     1   119.8544860 275.494454
    102    101    120     1   119.8544860 275.494454
    103    104    105     1   120.1049996 707.494800
    103    104    122     1   119.8544860 275.494454
    103    108    107     1   120.1049996 707.494800
    103    108    125     1   119.8544860 275.494454
    104    103    108     1   120.1049996 707.494800
    104    105    106     1   120.1049996 707.494800
    104    105    123     1   119.8544860 275.494454
    105    104    122     1   119.8544860 275.494454
    105    106    107     1   120.1049996 707.494800
    105    106    124     1   119.8544860 275.494454
    106    105    123     1   119.8544860 275.494454
    106    107    108     1   120.1049996 707.494800
    106    107    109     1   120.1049996 707.494800
    107    106    124     1   119.8544860 275.494454
    107    108    125     1   119.8544860 275.494454
    107    109    110     1   107.6607822 425.669015
    107    109    111     1   107.6607822 425.669015
    107    109    126     1   107.6607822 425.669015
    108    107    109     1   120.1049996 707.494800
    109    110    127     1   118.0636611 310.493310
    109    110    133     1   121.7705344 665.074568
    109    111    128     1   107.6607822 425.669015
    109    111    129     1   107.6607822 425.669015
    109    111    130     1   107.6607822 425.669015
    110    109    111     1   107.6607822 425.669015
    110    109    126     1   107.6607822 425.669015
    110    133    134     1   120.1049996 707.494800
    110    133    135     1   120.1049996 707.494800
    111    109    126     1   107.6607822 425.669015
    112    113    132     1   119.8544860 275.494454
    113    112    131     1   119.8544860 275.494454
    117    100    118     1   108.3543135 307.746906
    117    100    119     1   108.3543135 307.746906
    118    100    119     1   108.3543135 307.746906
    127    110    133     1   118.0636611 310.493310
    128    111    129     1   108.3543135 307.746906
    128    111    130     1   108.3543135 307.746906
    129    111    130     1   108.3543135 307.746906
    133    135    136     1   120.1049996 707.494800
    133    135    157     1   120.1049996 707.494800
    134    133    135     1   120.1049996 707.494800
    135    136    137     1   120.1049996 707.494800
    135    136    158     1   119.8544860 275.494454
    135    157    156     1   120.1049996 707.494800
    135    157    176     1   119.8544860 275.494454
    136    135    157     1   120.1049996 707.494800
    136    137    138     1   120.1049996 707.494800
    136    137    159     1   119.8544860 275.494454
    137    136    158     1   119.8544860 275.494454
    137    138    139     1   120.1049996 707.494800
    137    138    156     1   120.1049996 707.494800
    138    137    159     1   119.8544860 275.494454
    138    139    140     1   120.1049996 707.494800
    138    139    146     1   120.1049996 707.494800
    138    156    157     1   120.1049996 707.494800
    138    156    175     1   119.8544860 275.494454
    139    138    156     1   120.1049996 707.494800
    139    140    141     1   120.1049996 707.494800
    139    140    147     1   120.1049996 707.494800
    139    146    145     1   120.1049996 707.494800
    139    146    165     1   119.8544860 275.494454
    140    139    146     1   120.1049996 707.494800
    140    141    142     1   120.1049996 707.494800
    140    141    160     1   119.8544860 275.494454
    140    147    148     1   120.1049996 707.494800
    140    147    152     1   120.1049996 707.494800
    141    140    147     1   120.1049996 707.494800
    141    142    143     1   120.1049996 707.494800
    141    142    145     1   120.1049996 707.494800
    142    141    160     1   119.8544860 275.494454
    142    143    144     1   112.8736161 1003.288804
    142    145    146     1   120.1049996 707.494800
    142    145    164     1   119.8544860 275.494454
    143    142    145     1   120.1049996 707.494800
    143    144    161     1   107.6607822 425.669015
    143    144    162     1   107.6607822 425.669015
    143    144    163     1   107.6607822 425.669015
    145    146    165     1   119.8544860 275.494454
    146    145    164     1   119.8544860 275.494454
    147    148    149     1   120.1049996 707.494800
    147    148    166     1   119.8544860 275.494454
    147    152    151     1   120.1049996 707.494800
    147    152    169     1   119.8544860 275.494454
    148    147    152     1   120.1049996 707.494800
    148    149    150     1   120.1049996 707.494800
    148    149    167     1   119.8544860 275.494454
    149    148    166     1   119.8544860 275.494454
    149    150    151     1   120.1049996 707.494800
    149    150    168     1   119.8544860 275.494454
    150    149    167     1   119.8544860 275.494454
    150    151    152     1   120.1049996 707.494800
    150    151    153     1   120.1049996 707.494800
    151    150    168     1   119.8544860 275.494454
    151    152    169     1   119.8544860 275.494454
    151    153    154     1   107.6607822 425.669015
    151    153    155     1   107.6607822 425.669015
    151    153    170     1   107.6607822 425.669015
    152    151    153     1   120.1049996 707.494800
    153    154    171     1   118.0636611 310.493310
    153    154    177     1   121.7705344 665.074568
    153    155    172     1   107.6607822 425.669015
    153    155    173     1   107.6607822 425.669015
    153    155    174     1   107.6607822 425.669015
    154    153    155     1   107.6607822 425.669015
    154    153    170     1   107.6607822 425.669015
    154    177    178     1   120.1049996 707.494800
    154    177    179     1   120.1049996 707.494800
    155    153    170     1   107.6607822 425.669015
    156    157    176     1   119.8544860 275.494454
    157    156    175     1   119.8544860 275.494454
    161    144    162     1   108.3543135 307.746906
    161    144    163     1   108.3543135 307.746906
    162    144    163     1   108.3543135 307.746906
    171    154    177     1   118.0636611 310.493310
    172    155    173     1   108.3543135 307.746906
    172    155    174     1   108.3543135 307.746906
    173    155    174     1   108.3543135 307.746906
    177    179    180     1   120.1049996 707.494800
    177    179    201     1   120.1049996 707.494800
    178    177    179     1   120.1049996 707.494800
    179    180    181     1   120.1049996 707.494800
    179    180    202     1   119.8544860 275.494454
    179    201    200     1   120.1049996 707.494800
    179    201    220     1   119.8544860 275.494454
    180    179    201     1   120.1049996 707.494800
    180    181    182     1   120.1049996 707.494800
    180    181    203     1   119.8544860 275.494454
    181    180    202     1   119.8544860 275.494454
    181    182    183     1   120.1049996 707.494800
    181    182    200     1   120.1049996 707.494800
    182    181    203     1   119.8544860 275.494454
    182    183    184     1   120.1049996 707.494800
    182    183    190     1   120.1049996 707.494800
    182    200    201     1   120.1049996 707.494800
    182    200    219     1   119.8544860 275.494454
    183    182    200     1   120.1049996 707.494800
    183    184    185     1   120.1049996 707.494800
    183    184    191     1   120.1049996 707.494800
    183    190    189     1   120.1049996 707.494800
    183    190    209     1   119.8544860 275.494454
    184    183    190     1   120.1049996 707.494800
    184    185    186     1   120.1049996 707.494800
    184    185    204     1   119.8544860 275.494454
    184    191    192     1   120.1049996 707.494800
    184    191    196     1   120.1049996 707.494800
    185    184    191     1   120.1049996 707.494800
    185    186    187     1   120.1049996 707.494800
    185    186    189     1   120.1049996 707.494800
    186    185    204     1   119.8544860 275.494454
    186    187    188     1   112.8736161 1003.288804
    186    189    190     1   120.1049996 707.494800
    186    189    208     1   119.8544860 275.494454
    187    186    189     1   120.1049996 707.494800
    187    188    205     1   107.6607822 425.669015
    187    188    206     1   107.6607822 425.669015
    187    188    207     1   107.6607822 425.669015
    189    190    209     1   119.8544860 275.494454
    190    189    208     1   119.8544860 275.494454
    191    192    193     1   120.1049996 707.494800
    191    192    210     1   119.8544860 275.494454
    191    196    195     1   120.1049996 707.494800
    191    196    213     1   119.8544860 275.494454
    192    191    196     1   120.1049996 707.494800
    192    193    194     1   120.1049996 707.494800
    192    193    211     1   119.8544860 275.494454
    193    192    210     1   119.8544860 275.494454
    193    194    195     1   120.1049996 707.494800
    193    194    212     1   119.8544860 275.494454
    194    193    211     1   119.8544860 275.494454
    194    195    196     1   120.1049996 707.494800
    194    195    197     1   120.1049996 707.494800
    195    194    212     1   119.8544860 275.494454
    195    196    213     1   119.8544860 275.494454
    195    197    198     1   107.6607822 425.669015
    195    197    199     1   107.6607822 425.669015
    195    197    214     1   107.6607822 425.669015
    196    195    197     1   120.1049996 707.494800
    197    198    215     1   118.0636611 310.493310
    197    198    221     1   121.7705344 665.074568
    197    199    216     1   107.6607822 425.669015
    197    199    217     1   107.6607822 425.669015
    197    199    218     1   107.6607822 425.669015
    198    197    199     1   107.6607822 425.669015
    198    197    214     1   107.6607822 425.669015
    198    221    222     1   120.1049996 707.494800
    198    221    223     1   120.1049996 707.494800
    199    197    214     1   107.6607822 425.669015
    200    201    220     1   119.8544860 275.494454
    201    200    219     1   119.8544860 275.494454
    205    188    206     1   108.3543135 307.746906
    205    188    207     1   108.3543135 307.746906
    206    188    207     1   108.3543135 307.746906
    215    198    221     1   118.0636611 310.493310
    216    199    217     1   108.3543135 307.746906
    216    199    218     1   108.3543135 307.746906
    217    199    218     1   108.3543135 307.746906
    221    223    224     1   120.1049996 707.494800
    221    223    245     1   120.1049996 707.494800
    222    221    223     1   120.1049996 707.494800
    223    224    225     1   120.1049996 707.494800
    223    224    246     1   119.8544860 275.494454
    223    245    244     1   120.1049996 707.494800
    223    245    264     1   119.8544860 275.494454
    224    223    245     1   120.1049996 707.494800
    224    225    226     1   120.1049996 707.494800
    224    225    247     1   119.8544860 275.494454
    225    224    246     1   119.8544860 275.494454
    225    226    227     1   120.1049996 707.494800
    225    226    244     1   120.1049996 707.494800
    226    225    247     1   119.8544860 275.494454
    226    227    228     1   120.1049996 707.494800
    226    227    234     1   120.1049996 707.494800
    226    244    245     1   120.1049996 707.494800
    226    244    263     1   119.8544860 275.494454
    227    226    244     1   120.1049996 707.494800
    227    228    229     1   120.1049996 707.494800
    227    228    235     1   120.1049996 707.494800
    227    234    233     1   120.1049996 707.494800
    227    234    253     1   119.8544860 275.494454
    228    227    234     1   120.1049996 707.494800
    228    229    230     1   120.1049996 707.494800
    228    229    248     1   119.8544860 275.494454
    228    235    236     1   120.1049996 707.494800
    228    235    240     1   120.1049996 707.494800
    229    228    235     1   120.1049996 707.494800
    229    230    231     1   120.1049996 707.494800
    229    230    233     1   120.1049996 707.494800
    230    229    248     1   119.8544860 275.494454
    230    231    232     1   112.8736161 1003.288804
    230    233    234     1   120.1049996 707.494800
    230    233    252     1   119.8544860 275.494454
    231    230    233     1   120.1049996 707.494800
    231    232    249     1   107.6607822 425.669015
    231    232    250     1   107.6607822 425.669015
    231    232    251     1   107.6607822 425.669015
    233    234    253     1   119.8544860 275.494454
    234    233    252     1   119.8544860 275.494454
    235    236    237     1   120.1049996 707.494800
    235    236    254     1   119.8544860 275.494454
    235    240    239     1   120.1049996 707.494800
    235    240    257     1   119.8544860 275.494454
    236    235    240     1   120.1049996 707.494800
    236    237    238     1   120.1049996 707.494800
    236    237    255     1   119.8544860 275.494454
    237    236    254     1   119.8544860 275.494454
    237    238    239     1   120.1049996 707.494800
    237    238    256     1   119.8544860 275.494454
    238    237    255     1   119.8544860 275.494454
    238    239    240     1   120.1049996 707.494800
    238    239    241     1   120.1049996 707.494800
    239    238    256     1   119.8544860 275.494454
    239    240    257     1   119.8544860 275.494454
    239    241    242     1   107.6607822 425.669015
    239    241    243     1   107.6607822 425.669015
    239    241    258     1   107.6607822 425.669015
    240    239    241     1   120.1049996 707.494800
    241    242    259     1   118.0636611 310.493310
    241    242    265     1   121.7705344 665.074568
    241    243    260     1   107.6607822 425.669015
    241    243    261     1   107.6607822 425.669015
    241    243    262     1   107.6607822 425.669015
    242    241    243     1   107.6607822 425.669015
    242    241    258     1   107.6607822 425.669015
    242    265    266     1   120.1049996 707.494800
    242    265    267     1   120.1049996 707.494800
    243    241    258     1   107.6607822 425.669015
    244    245    264     1   119.8544860 275.494454
    245    244    263     1   119.8544860 275.494454
    249    232    250     1   108.3543135 307.746906
    249    232    251     1   108.3543135 307.746906
    250    232    251     1   108.3543135 307.746906
    259    242    265     1   118.0636611 310.493310
    260    243    261     1   108.3543135 307.746906
    260    243    262     1   108.3543135 307.746906
    261    243    262     1   108.3543135 307.746906
    265    267    268     1   120.1049996 707.494800
    265    267    289     1   120.1049996 707.494800
    266    265    267     1   120.1049996 707.494800
    267    268    269     1   120.1049996 707.494800
    267    268    290     1   119.8544860 275.494454
    267    289    288     1   120.1049996 707.494800
    267    289    308     1   119.8544860 275.494454
    268    267    289     1   120.1049996 707.494800
    268    269    270     1   120.1049996 707.494800
    268    269    291     1   119.8544860 275.494454
    269    268    290     1   119.8544860 275.494454
    269    270    271     1   120.1049996 707.494800
    269    270    288     1   120.1049996 707.494800
    270    269    291     1   119.8544860 275.494454
    270    271    272     1   120.1049996 707.494800
    270    271    278     1   120.1049996 707.494800
    270    288    289     1   120.1049996 707.494800
    270    288    307     1   119.8544860 275.494454
    271    270    288     1   120.1049996 707.494800
    271    272    273     1   120.1049996 707.494800
    271    272    279     1   120.1049996 707.494800
    271    278    277     1   120.1049996 707.494800
    271    278    297     1   119.8544860 275.494454
    272    271    278     1   120.1049996 707.494800
    272    273    274     1   120.1049996 707.494800
    272    273    292     1   119.8544860 275.494454
    272    279    280     1   120.1049996 707.494800
    272    279    284     1   120.1049996 707.494800
    273    272    279     1   120.1049996 707.494800
    273    274    275     1   120.1049996 707.494800
    273    274    277     1   120.1049996 707.494800
    274    273    292     1   119.8544860 275.494454
    274    275    276     1   112.8736161 1003.288804
    274    277    278     1   120.1049996 707.494800
    274    277    296     1   119.8544860 275.494454
    275    274    277     1   120.1049996 707.494800
    275    276    293     1   107.6607822 425.669015
    275    276    294     1   107.6607822 425.669015
    275    276    295     1   107.6607822 425.669015
    277    278    297     1   119.8544860 275.494454
    278    277    296     1   119.8544860 275.494454
    279    280    281     1   120.1049996 707.494800
    279    280    298     1   119.8544860 275.494454
    279    284    283     1   120.1049996 707.494800
    279    284    301     1   119.8544860 275.494454
    280    279    284     1   120.1049996 707.494800
    280    281    282     1   120.1049996 707.494800
    280    281    299     1   119.8544860 275.494454
    281    280    298     1   119.8544860 275.494454
    281    282    283     1   120.1049996 707.494800
    281    282    300     1   119.8544860 275.494454
    282    281    299     1   119.8544860 275.494454
    282    283    284     1   120.1049996 707.494800
    282    283    285     1   120.1049996 707.494800
    283    282    300     1   119.8544860 275.494454
    283    284    301     1   119.8544860 275.494454
    283    285    286     1   107.6607822 425.669015
    283    285    287     1   107.6607822 425.669015
    283    285    302     1   107.6607822 425.669015
    284    283    285     1   120.1049996 707.494800
    285    286    303     1   118.0636611 310.493310
    285    286    309     1   121.7705344 665.074568
    285    287    304     1   107.6607822 425.669015
    285    287    305     1   107.6607822 425.669015
    285    287    306     1   107.6607822 425.669015
    286    285    287     1   107.6607822 425.669015
    286    285    302     1   107.6607822 425.669015
    286    309    310     1   120.1049996 707.494800
    286    309    311     1   120.1049996 707.494800
    287    285    302     1   107.6607822 425.669015
    288    289    308     1   119.8544860 275.494454
    289    288    307     1   119.8544860 275.494454
    293    276    294     1   108.3543135 307.746906
    293    276    295     1   108.3543135 307.746906
    294    276    295     1   108.3543135 307.746906
    303    286    309     1   118.0636611 310.493310
    304    287    305     1   108.3543135 307.746906
    304    287    306     1   108.3543135 307.746906
    305    287    306     1   108.3543135 307.746906
    309    311    312     1   120.1049996 707.494800
    309    311    333     1   120.1049996 707.494800
    310    309    311     1   120.1049996 707.494800
    311    312    313     1   120.1049996 707.494800
    311    312    334     1   119.8544860 275.494454
    311    333    332     1   120.1049996 707.494800
    311    333    352     1   119.8544860 275.494454
    312    311    333     1   120.1049996 707.494800
    312    313    314     1   120.1049996 707.494800
    312    313    335     1   119.8544860 275.494454
    313    312    334     1   119.8544860 275.494454
    313    314    315     1   120.1049996 707.494800
    313    314    332     1   120.1049996 707.494800
    314    313    335     1   119.8544860 275.494454
    314    315    316     1   120.1049996 707.494800
    314    315    322     1   120.1049996 707.494800
    314    332    333     1   120.1049996 707.494800
    314    332    351     1   119.8544860 275.494454
    315    314    332     1   120.1049996 707.494800
    315    316    317     1   120.1049996 707.494800
    315    316    323     1   120.1049996 707.494800
    315    322    321     1   120.1049996 707.494800
    315    322    341     1   119.8544860 275.494454
    316    315    322     1   120.1049996 707.494800
    316    317    318     1   120.1049996 707.494800
    316    317    336     1   119.8544860 275.494454
    316    323    324     1   120.1049996 707.494800
    316    323    328     1   120.1049996 707.494800
    317    316    323     1   120.1049996 707.494800
    317    318    319     1   120.1049996 707.494800
    317    318    321     1   120.1049996 707.494800
    318    317    336     1   119.8544860 275.494454
    318    319    320     1   112.8736161 1003.288804
    318    321    322     1   120.1049996 707.494800
    318    321    340     1   119.8544860 275.494454
    319    318    321     1   120.1049996 707.494800
    319    320    337     1   107.6607822 425.669015
    319    320    338     1   107.6607822 425.669015
    319    320    339     1   107.6607822 425.669015
    321    322    341     1   119.8544860 275.494454
    322    321    340     1   119.8544860 275.494454
    323    324    325     1   120.1049996 707.494800
    323    324    342     1   119.8544860 275.494454
    323    328    327     1   120.1049996 707.494800
    323    328    345     1   119.8544860 275.494454
    324    323    328     1   120.1049996 707.494800
    324    325    326     1   120.1049996 707.494800
    324    325    343     1   119.8544860 275.494454
    325    324    342     1   119.8544860 275.494454
    325    326    327     1   120.1049996 707.494800
    325    326    344     1   119.8544860 275.494454
    326    325    343     1   119.8544860 275.494454
    326    327    328     1   120.1049996 707.494800
    326    327    329     1   120.1049996 707.494800
    327    326    344     1   119.8544860 275.494454
    327    328    345     1   119.8544860 275.494454
    327    329    330     1   107.6607822 425.669015
    327    329    331     1   107.6607822 425.669015
    327    329    346     1   107.6607822 425.669015
    328    327    329     1   120.1049996 707.494800
    329    330    347     1   118.0636611 310.493310
    329    330    363     1   121.7705344 665.074568
    329    331    348     1   107.6607822 425.669015
    329    331    349     1   107.6607822 425.669015
    329    331    350     1   107.6607822 425.669015
    330    329    331     1   107.6607822 425.669015
    330    329    346     1   107.6607822 425.669015
    330    363    362     1   120.1049996 707.494800
    330    363    364     1   120.1049996 707.494800
    331    329    346     1   107.6607822 425.669015
    332    333    352     1   119.8544860 275.494454
    333    332    351     1   119.8544860 275.494454
    337    320    338     1   108.3543135 307.746906
    337    320    339     1   108.3543135 307.746906
    338    320    339     1   108.3543135 307.746906
    347    330    363     1   118.0636611 310.493310
    348    331    349     1   108.3543135 307.746906
    348    331    350     1   108.3543135 307.746906
    349    331    350     1   108.3543135 307.746906
    354    353    355     1   107.6607822 425.669015
    354    353    356     1   107.6607822 425.669015
    354    353    357     1   107.6607822 425.669015
    355    353    356     1   108.3543135 307.746906
    355    353    357     1   108.3543135 307.746906
    356    353    357     1   108.3543135 307.746906
    358    359    360     1   107.6607822 425.669015
    358    359    361     1   107.6607822 425.669015
    358    359    362     1   107.6607822 425.669015
    359    358    365     1   107.6607822 425.669015
    359    358    366     1   107.6607822 425.669015
    359    358    367     1   107.6607822 425.669015
    359    360    368     1   107.6607822 425.669015
    359    360    369     1   107.6607822 425.669015
    359    360    370     1   107.6607822 425.669015
    359    361    371     1   107.6607822 425.669015
    359    361    372     1   107.6607822 425.669015
    359    361    373     1   107.6607822 425.669015
    359    362    363     1   112.8736161 1003.288804
    360    359    361     1   107.6607822 425.669015
    360    359    362     1   107.6607822 425.669015
    361    359    362     1   107.6607822 425.669015
    362    363    364     1   123.6058900 529.778360
    365    358    366     1   108.3543135 307.746906
    365    358    367     1   108.3543135 307.746906
    366    358    367     1   108.3543135 307.746906
    368    360    369     1   108.3543135 307.746906
    368    360    370     1   108.3543135 307.746906
    369    360    370     1   108.3543135 307.746906
    371    361    372     1   108.3543135 307.746906
    371    361    373     1   108.3543135 307.746906
    372    361    373     1   108.3543135 307.746906

[ dihedrals ]
;    ai     aj     ak     al funct         c0         c1         c2         c3         c4         c5
      1      3      4      5     1  180.0000000  13.6752988  2
      1      3      4     26     1  180.0000000  13.6752988  2
      1      3     25     24     1  180.0000000  13.6752988  2
      1      3     25     44     1  180.0000000  13.6752988  2
      1    354    353    355     1  0.0000000  1.1008580  3
      1    354    353    356     1  0.0000000  1.1008580  3
      1    354    353    357     1  0.0000000  1.1008580  3
      2      1      3      4     1  0.0000000  0.1053308  1
      2      1      3      4     1  180.0000000  1.8303774  2
      2      1      3      4     1  0.0000000  0.1643575  3
      2      1      3      4     1  180.0000000  0.2437889  4
      2      1      3     25     1  0.0000000  0.1053308  1
      2      1      3     25     1  180.0000000  1.8303774  2
      2      1      3     25     1  0.0000000  0.1643575  3
      2      1      3     25     1  180.0000000  0.2437889  4
      2      1    354    353     1  0.0000000  4.0204358  1
      2      1    354    353     1  180.0000000  3.1935690  2
      2      1    354    353     1  0.0000000  -2.4760574  3
      2      1    354    353     1  180.0000000  0.4542811  4
      3      1    354    353     1  0.0000000  1.4832824  1
      3      1    354    353     1  180.0000000  16.3549879  2
      3      1    354    353     1  0.0000000  3.2075159  3
      3      1    354    353     1  180.0000000  2.3822350  4
      3      4      5      6     1  180.0000000  13.6752988  2
      3      4      5     27     1  180.0000000  13.6752988  2
      3     25     24      6     1  180.0000000  13.6752988  2
      3     25     24     43     1  180.0000000  13.6752988  2
      4      3      1    354     1  0.0000000  -0.1007282  1
      4      3      1    354     1  180.0000000  2.0610186  2
      4      3      1    354     1  0.0000000  -0.1823201  3
      4      3      1    354     1  180.0000000  -0.0813612  4
      4      3     25     24     1  180.0000000  13.6752988  2
      4      3     25     44     1  180.0000000  13.6752988  2
      4      5      6      7     1  180.0000000  13.6752988  2
      4      5      6     24     1  180.0000000  13.6752988  2
      5      4      3     25     1  180.0000000  13.6752988  2
      5      6      7      8     1  0.0000000  -0.3044739  1
      5      6      7      8     1  180.0000000  5.6385197  2
      5      6      7      8     1  0.0000000  -0.3378759  3
      5      6      7      8     1  180.0000000  -0.3104712  4
      5      6      7     14     1  0.0000000  0.3277016  1
      5      6      7     14     1  180.0000000  6.2144778  2
      5      6      7     14     1  0.0000000  0.3475371  3
      5      6      7     14     1  180.0000000  2.0623258  4
      5      6     24     25     1  180.0000000  13.6752988  2
      5      6     24     43     1  180.0000000  13.6752988  2
      6      5      4     26     1  180.0000000  13.6752988  2
      6      7      8      9     1  180.0000000  13.6752988  2
      6      7      8     15     1  180.0000000  13.6752988  2
      6      7     14     13     1  180.0000000  13.6752988  2
      6      7     14     33     1  180.0000000  13.6752988  2
      6     24     25     44     1  180.0000000  13.6752988  2
      7      6      5     27     1  180.0000000  13.6752988  2
      7      6     24     25     1  180.0000000  13.6752988  2
      7      6     24     43     1  180.0000000  13.6752988  2
      7      8      9     10     1  180.0000000  13.6752988  2
      7      8      9     28     1  180.0000000  13.6752988  2
      7      8     15     16     1  180.0000000  5.1777217  2
      7      8     15     20     1  180.0000000  5.1777217  2
      7     14     13     10     1  180.0000000  13.6752988  2
      7     14     13     32     1  180.0000000  13.6752988  2
      8      7      6     24     1  0.0000000  -0.3044739  1
      8      7      6     24     1  180.0000000  5.6385197  2
      8      7      6     24     1  0.0000000  -0.3378759  3
      8      7      6     24     1  180.0000000  -0.3104712  4
      8      7     14     13     1  180.0000000  13.6752988  2
      8      7     14     33     1  180.0000000  13.6752988  2
      8      9     10     11     1  180.0000000  13.6752988  2
      8      9     10     13     1  180.0000000  13.6752988  2
      8     15     16     17     1  180.0000000  13.6752988  2
      8     15     16     34     1  180.0000000  13.6752988  2
      8     15     20     19     1  180.0000000  13.6752988  2
      8     15     20     37     1  180.0000000  13.6752988  2
      9      8      7     14     1  180.0000000  13.6752988  2
      9      8     15     16     1  180.0000000  5.1777217  2
      9      8     15     20     1  180.0000000  5.1777217  2
      9     10     11     12     1  0.0000000  0.2365974  1
      9     10     11     12     1  180.0000000  9.7407113  2
      9     10     11     12     1  0.0000000  1.1711426  3
      9     10     11     12     1  180.0000000  0.6733615  4
      9     10     13     14     1  180.0000000  13.6752988  2
      9     10     13     32     1  180.0000000  13.6752988  2
     10      9      8     15     1  180.0000000  13.6752988  2
     10     11     12     29     1  0.0000000  1.1008580  3
     10     11     12     30     1  0.0000000  1.1008580  3
     10     11     12     31     1  0.0000000  1.1008580  3
     10     13     14     33     1  180.0000000  13.6752988  2
     11     10      9     28     1  180.0000000  13.6752988  2
     11     10     13     14     1  180.0000000  13.6752988  2
     11     10     13     32     1  180.0000000  13.6752988  2
     12     11     10     13     1  0.0000000  0.2365974  1
     12     11     10     13     1  180.0000000  9.7407113  2
     12     11     10     13     1  0.0000000  1.1711426  3
     12     11     10     13     1  180.0000000  0.6733615  4
     13     10      9     28     1  180.0000000  13.6752988  2
     14      7      6     24     1  0.0000000  0.3277016  1
     14      7      6     24     1  180.0000000  6.2144778  2
     14      7      6     24     1  0.0000000  0.3475371  3
     14      7      6     24     1  180.0000000  2.0623258  4
     14      7      8     15     1  180.0000000  13.6752988  2
     15      8      9     28     1  180.0000000  13.6752988  2
     15     16     17     18     1  180.0000000  13.6752988  2
     15     16     17     35     1  180.0000000  13.6752988  2
     15     20     19     18     1  180.0000000  13.6752988  2
     15     20     19     21     1  180.0000000  13.6752988  2
     16     15     20     19     1  180.0000000  13.6752988  2
     16     15     20     37     1  180.0000000  13.6752988  2
     16     17     18     19     1  180.0000000  13.6752988  2
     16     17     18     36     1  180.0000000  13.6752988  2
     17     16     15     20     1  180.0000000  13.6752988  2
     17     18     19     20     1  180.0000000  13.6752988  2
     17     18     19     21     1  180.0000000  13.6752988  2
     18     17     16     34     1  180.0000000  13.6752988  2
     18     19     20     37     1  180.0000000  13.6752988  2
     18     19     21     22     1  0.0000000  0.2144354  1
     18     19     21     22     1  180.0000000  1.2858558  2
     18     19     21     22     1  0.0000000  0.1204628  3
     18     19     21     22     1  180.0000000  0.0486336  4
     18     19     21     23     1  0.0000000  -0.0970197  1
     18     19     21     23     1  180.0000000  -0.2508233  2
     18     19     21     23     1  0.0000000  0.1317265  3
     18     19     21     23     1  180.0000000  0.0220621  4
     18     19     21     38     1  0.0000000  -0.1241755  1
     18     19     21     38     1  180.0000000  -0.9799809  2
     18     19     21     38     1  0.0000000  0.1320141  3
     18     19     21     38     1  180.0000000  0.1840938  4
     19     18     17     35     1  180.0000000  13.6752988  2
     19     21     22     39     1  0.0000000  3.7626531  1
     19     21     22     39     1  180.0000000  2.7460423  2
     19     21     22     39     1  0.0000000  1.1471976  3
     19     21     22     39     1  180.0000000  0.7259066  4
     19     21     22     45     1  0.0000000  -5.2829675  1
     19     21     22     45     1  180.0000000  1.9322644  2
     19     21     22     45     1  0.0000000  -0.7025389  3
     19     21     22     45     1  180.0000000  -0.7088846  4
     19     21     23     40     1  0.0000000  0.6020980  3
     19     21     23     41     1  0.0000000  0.6020980  3
     19     21     23     42     1  0.0000000  0.6020980  3
     20     15     16     34     1  180.0000000  13.6752988  2
     20     19     18     36     1  180.0000000  13.6752988  2
     20     19     21     22     1  0.0000000  0.2144354  1
     20     19     21     22     1  180.0000000  1.2858558  2
     20     19     21     22     1  0.0000000  0.1204628  3
     20     19     21     22     1  180.0000000  0.0486336  4
     20     19     21     23     1  0.0000000  -0.0970197  1
     20     19     21     23     1  180.0000000  -0.2508233  2
     20     19     21     23     1  0.0000000  0.1317265  3
     20     19     21     23     1  180.0000000  0.0220621  4
     20     19     21     38     1  0.0000000  -0.1241755  1
     20     19     21     38     1  180.0000000  -0.9799809  2
     20     19     21     38     1  0.0000000  0.1320141  3
     20     19     21     38     1  180.0000000  0.1840938  4
     21     19     18     36     1  180.0000000  13.6752988  2
     21     19     20     37     1  180.0000000  13.6752988  2
     21     22     45     46     1  0.0000000  -2.0828908  1
     21     22     45     46     1  180.0000000  9.3569096  2
     21     22     45     46     1  0.0000000  0.8396537  3
     21     22     45     46     1  180.0000000  -0.9565265  4
     21     22     45     47     1  0.0000000  1.0104317  1
     21     22     45     47     1  180.0000000  8.6977019  2
     21     22     45     47     1  0.0000000  1.6926907  3
     21     22     45     47     1  180.0000000  2.1756018  4
     22     21     23     40     1  0.0000000  0.6020980  3
     22     21     23     41     1  0.0000000  0.6020980  3
     22     21     23     42     1  0.0000000  0.6020980  3
     22     45     47     48     1  0.0000000  -0.0514420  1
     22     45     47     48     1  180.0000000  4.2608113  2
     22     45     47     48     1  0.0000000  -0.1739481  3
     22     45     47     48     1  180.0000000  0.1215182  4
     22     45     47     69     1  0.0000000  -0.0514420  1
     22     45     47     69     1  180.0000000  4.2608113  2
     22     45     47     69     1  0.0000000  -0.1739481  3
     22     45     47     69     1  180.0000000  0.1215182  4
     23     21     22     39     1  0.0000000  -1.8603561  1
     23     21     22     39     1  180.0000000  0.7624141  2
     23     21     22     39     1  0.0000000  0.7055017  3
     23     21     22     39     1  180.0000000  -0.4799419  4
     23     21     22     45     1  0.0000000  -0.1604797  1
     23     21     22     45     1  180.0000000  0.4088102  2
     23     21     22     45     1  0.0000000  -1.2284377  3
     23     21     22     45     1  180.0000000  0.1802623  4
     24      6      5     27     1  180.0000000  13.6752988  2
     25      3      1    354     1  0.0000000  -0.1007282  1
     25      3      1    354     1  180.0000000  2.0610186  2
     25      3      1    354     1  0.0000000  -0.1823201  3
     25      3      1    354     1  180.0000000  -0.0813612  4
     25      3      4     26     1  180.0000000  13.6752988  2
     26      4      5     27     1  180.0000000  13.6752988  2
     32     13     14     33     1  180.0000000  13.6752988  2
     34     16     17     35     1  180.0000000  13.6752988  2
     35     17     18     36     1  180.0000000  13.6752988  2
     38     21     22     39     1  0.0000000  -2.0964046  1
     38     21     22     39     1  180.0000000  0.8037202  2
     38     21     22     39     1  0.0000000  0.9916109  3
     38     21     22     39     1  180.0000000  -0.0310133  4
     38     21     22     45     1  0.0000000  2.5959716  1
     38     21     22     45     1  180.0000000  0.3569788  2
     38     21     22     45     1  0.0000000  0.5014050  3
     38     21     22     45     1  180.0000000  0.2759443  4
     38     21     23     40     1  0.0000000  0.9539296  3
     38     21     23     41     1  0.0000000  0.9539296  3
     38     21     23     42     1  0.0000000  0.9539296  3
     39     22     45     46     1  0.0000000  4.1249202  1
     39     22     45     46     1  180.0000000  5.0164018  2
     39     22     45     46     1  0.0000000  -0.5030933  3
     39     22     45     46     1  180.0000000  -0.9265386  4
     39     22     45     47     1  0.0000000  2.2826199  1
     39     22     45     47     1  180.0000000  9.2080338  2
     39     22     45     47     1  0.0000000  -0.0722131  3
     39     22     45     47     1  180.0000000  1.1383707  4
     43     24     25     44     1  180.0000000  13.6752988  2
     45     47     48     49     1  180.0000000  13.6752988  2
     45     47     48     70     1  180.0000000  13.6752988  2
     45     47     69     68     1  180.0000000  13.6752988  2
     45     47     69     88     1  180.0000000  13.6752988  2
     46     45     47     48     1  0.0000000  0.0402246  1
     46     45     47     48     1  180.0000000  -0.2713295  2
     46     45     47     48     1  0.0000000  0.1630696  3
     46     45     47     48     1  180.0000000  0.3314149  4
     46     45     47     69     1  0.0000000  0.0402246  1
     46     45     47     69     1  180.0000000  -0.2713295  2
     46     45     47     69     1  0.0000000  0.1630696  3
     46     45     47     69     1  180.0000000  0.3314149  4
     47     48     49     50     1  180.0000000  13.6752988  2
     47     48     49     71     1  180.0000000  13.6752988  2
     47     69     68     50     1  180.0000000  13.6752988  2
     47     69     68     87     1  180.0000000  13.6752988  2
     48     47     69     68     1  180.0000000  13.6752988  2
     48     47     69     88     1  180.0000000  13.6752988  2
     48     49     50     51     1  180.0000000  13.6752988  2
     48     49     50     68     1  180.0000000  13.6752988  2
     49     48     47     69     1  180.0000000  13.6752988  2
     49     50     51     52     1  0.0000000  -0.3044739  1
     49     50     51     52     1  180.0000000  5.6385197  2
     49     50     51     52     1  0.0000000  -0.3378759  3
     49     50     51     52     1  180.0000000  -0.3104712  4
     49     50     51     58     1  0.0000000  0.3277016  1
     49     50     51     58     1  180.0000000  6.2144778  2
     49     50     51     58     1  0.0000000  0.3475371  3
     49     50     51     58     1  180.0000000  2.0623258  4
     49     50     68     69     1  180.0000000  13.6752988  2
     49     50     68     87     1  180.0000000  13.6752988  2
     50     49     48     70     1  180.0000000  13.6752988  2
     50     51     52     53     1  180.0000000  13.6752988  2
     50     51     52     59     1  180.0000000  13.6752988  2
     50     51     58     57     1  180.0000000  13.6752988  2
     50     51     58     77     1  180.0000000  13.6752988  2
     50     68     69     88     1  180.0000000  13.6752988  2
     51     50     49     71     1  180.0000000  13.6752988  2
     51     50     68     69     1  180.0000000  13.6752988  2
     51     50     68     87     1  180.0000000  13.6752988  2
     51     52     53     54     1  180.0000000  13.6752988  2
     51     52     53     72     1  180.0000000  13.6752988  2
     51     52     59     60     1  180.0000000  5.1777217  2
     51     52     59     64     1  180.0000000  5.1777217  2
     51     58     57     54     1  180.0000000  13.6752988  2
     51     58     57     76     1  180.0000000  13.6752988  2
     52     51     50     68     1  0.0000000  -0.3044739  1
     52     51     50     68     1  180.0000000  5.6385197  2
     52     51     50     68     1  0.0000000  -0.3378759  3
     52     51     50     68     1  180.0000000  -0.3104712  4
     52     51     58     57     1  180.0000000  13.6752988  2
     52     51     58     77     1  180.0000000  13.6752988  2
     52     53     54     55     1  180.0000000  13.6752988  2
     52     53     54     57     1  180.0000000  13.6752988  2
     52     59     60     61     1  180.0000000  13.6752988  2
     52     59     60     78     1  180.0000000  13.6752988  2
     52     59     64     63     1  180.0000000  13.6752988  2
     52     59     64     81     1  180.0000000  13.6752988  2
     53     52     51     58     1  180.0000000  13.6752988  2
     53     52     59     60     1  180.0000000  5.1777217  2
     53     52     59     64     1  180.0000000  5.1777217  2
     53     54     55     56     1  0.0000000  0.2365974  1
     53     54     55     56     1  180.0000000  9.7407113  2
     53     54     55     56     1  0.0000000  1.1711426  3
     53     54     55     56     1  180.0000000  0.6733615  4
     53     54     57     58     1  180.0000000  13.6752988  2
     53     54     57     76     1  180.0000000  13.6752988  2
     54     53     52     59     1  180.0000000  13.6752988  2
     54     55     56     73     1  0.0000000  1.1008580  3
     54     55     56     74     1  0.0000000  1.1008580  3
     54     55     56     75     1  0.0000000  1.1008580  3
     54     57     58     77     1  180.0000000  13.6752988  2
     55     54     53     72     1  180.0000000  13.6752988  2
     55     54     57     58     1  180.0000000  13.6752988  2
     55     54     57     76     1  180.0000000  13.6752988  2
     56     55     54     57     1  0.0000000  0.2365974  1
     56     55     54     57     1  180.0000000  9.7407113  2
     56     55     54     57     1  0.0000000  1.1711426  3
     56     55     54     57     1  180.0000000  0.6733615  4
     57     54     53     72     1  180.0000000  13.6752988  2
     58     51     50     68     1  0.0000000  0.3277016  1
     58     51     50     68     1  180.0000000  6.2144778  2
     58     51     50     68     1  0.0000000  0.3475371  3
     58     51     50     68     1  180.0000000  2.0623258  4
     58     51     52     59     1  180.0000000  13.6752988  2
     59     52     53     72     1  180.0000000  13.6752988  2
     59     60     61     62     1  180.0000000  13.6752988  2
     59     60     61     79     1  180.0000000  13.6752988  2
     59     64     63     62     1  180.0000000  13.6752988  2
     59     64     63     65     1  180.0000000  13.6752988  2
     60     59     64     63     1  180.0000000  13.6752988  2
     60     59     64     81     1  180.0000000  13.6752988  2
     60     61     62     63     1  180.0000000  13.6752988  2
     60     61     62     80     1  180.0000000  13.6752988  2
     61     60     59     64     1  180.0000000  13.6752988  2
     61     62     63     64     1  180.0000000  13.6752988  2
     61     62     63     65     1  180.0000000  13.6752988  2
     62     61     60     78     1  180.0000000  13.6752988  2
     62     63     64     81     1  180.0000000  13.6752988  2
     62     63     65     66     1  0.0000000  0.2144354  1
     62     63     65     66     1  180.0000000  1.2858558  2
     62     63     65     66     1  0.0000000  0.1204628  3
     62     63     65     66     1  180.0000000  0.0486336  4
     62     63     65     67     1  0.0000000  -0.0970197  1
     62     63     65     67     1  180.0000000  -0.2508233  2
     62     63     65     67     1  0.0000000  0.1317265  3
     62     63     65     67     1  180.0000000  0.0220621  4
     62     63     65     82     1  0.0000000  -0.1241755  1
     62     63     65     82     1  180.0000000  -0.9799809  2
     62     63     65     82     1  0.0000000  0.1320141  3
     62     63     65     82     1  180.0000000  0.1840938  4
     63     62     61     79     1  180.0000000  13.6752988  2
     63     65     66     83     1  0.0000000  3.7626531  1
     63     65     66     83     1  180.0000000  2.7460423  2
     63     65     66     83     1  0.0000000  1.1471976  3
     63     65     66     83     1  180.0000000  0.7259066  4
     63     65     66     89     1  0.0000000  -5.2829675  1
     63     65     66     89     1  180.0000000  1.9322644  2
     63     65     66     89     1  0.0000000  -0.7025389  3
     63     65     66     89     1  180.0000000  -0.7088846  4
     63     65     67     84     1  0.0000000  0.6020980  3
     63     65     67     85     1  0.0000000  0.6020980  3
     63     65     67     86     1  0.0000000  0.6020980  3
     64     59     60     78     1  180.0000000  13.6752988  2
     64     63     62     80     1  180.0000000  13.6752988  2
     64     63     65     66     1  0.0000000  0.2144354  1
     64     63     65     66     1  180.0000000  1.2858558  2
     64     63     65     66     1  0.0000000  0.1204628  3
     64     63     65     66     1  180.0000000  0.0486336  4
     64     63     65     67     1  0.0000000  -0.0970197  1
     64     63     65     67     1  180.0000000  -0.2508233  2
     64     63     65     67     1  0.0000000  0.1317265  3
     64     63     65     67     1  180.0000000  0.0220621  4
     64     63     65     82     1  0.0000000  -0.1241755  1
     64     63     65     82     1  180.0000000  -0.9799809  2
     64     63     65     82     1  0.0000000  0.1320141  3
     64     63     65     82     1  180.0000000  0.1840938  4
     65     63     62     80     1  180.0000000  13.6752988  2
     65     63     64     81     1  180.0000000  13.6752988  2
     65     66     89     90     1  0.0000000  -2.0828908  1
     65     66     89     90     1  180.0000000  9.3569096  2
     65     66     89     90     1  0.0000000  0.8396537  3
     65     66     89     90     1  180.0000000  -0.9565265  4
     65     66     89     91     1  0.0000000  1.0104317  1
     65     66     89     91     1  180.0000000  8.6977019  2
     65     66     89     91     1  0.0000000  1.6926907  3
     65     66     89     91     1  180.0000000  2.1756018  4
     66     65     67     84     1  0.0000000  0.6020980  3
     66     65     67     85     1  0.0000000  0.6020980  3
     66     65     67     86     1  0.0000000  0.6020980  3
     66     89     91     92     1  0.0000000  -0.0514420  1
     66     89     91     92     1  180.0000000  4.2608113  2
     66     89     91     92     1  0.0000000  -0.1739481  3
     66     89     91     92     1  180.0000000  0.1215182  4
     66     89     91    113     1  0.0000000  -0.0514420  1
     66     89     91    113     1  180.0000000  4.2608113  2
     66     89     91    113     1  0.0000000  -0.1739481  3
     66     89     91    113     1  180.0000000  0.1215182  4
     67     65     66     83     1  0.0000000  -1.8603561  1
     67     65     66     83     1  180.0000000  0.7624141  2
     67     65     66     83     1  0.0000000  0.7055017  3
     67     65     66     83     1  180.0000000  -0.4799419  4
     67     65     66     89     1  0.0000000  -0.1604797  1
     67     65     66     89     1  180.0000000  0.4088102  2
     67     65     66     89     1  0.0000000  -1.2284377  3
     67     65     66     89     1  180.0000000  0.1802623  4
     68     50     49     71     1  180.0000000  13.6752988  2
     69     47     48     70     1  180.0000000  13.6752988  2
     70     48     49     71     1  180.0000000  13.6752988  2
     76     57     58     77     1  180.0000000  13.6752988  2
     78     60     61     79     1  180.0000000  13.6752988  2
     79     61     62     80     1  180.0000000  13.6752988  2
     82     65     66     83     1  0.0000000  -2.0964046  1
     82     65     66     83     1  180.0000000  0.8037202  2
     82     65     66     83     1  0.0000000  0.9916109  3
     82     65     66     83     1  180.0000000  -0.0310133  4
     82     65     66     89     1  0.0000000  2.5959716  1
     82     65     66     89     1  180.0000000  0.3569788  2
     82     65     66     89     1  0.0000000  0.5014050  3
     82     65     66     89     1  180.0000000  0.2759443  4
     82     65     67     84     1  0.0000000  0.9539296  3
     82     65     67     85     1  0.0000000  0.9539296  3
     82     65     67     86     1  0.0000000  0.9539296  3
     83     66     89     90     1  0.0000000  4.1249202  1
     83     66     89     90     1  180.0000000  5.0164018  2
     83     66     89     90     1  0.0000000  -0.5030933  3
     83     66     89     90     1  180.0000000  -0.9265386  4
     83     66     89     91     1  0.0000000  2.2826199  1
     83     66     89     91     1  180.0000000  9.2080338  2
     83     66     89     91     1  0.0000000  -0.0722131  3
     83     66     89     91     1  180.0000000  1.1383707  4
     87     68     69     88     1  180.0000000  13.6752988  2
     89     91     92     93     1  180.0000000  13.6752988  2
     89     91     92    114     1  180.0000000  13.6752988  2
     89     91    113    112     1  180.0000000  13.6752988  2
     89     91    113    132     1  180.0000000  13.6752988  2
     90     89     91     92     1  0.0000000  0.0402246  1
     90     89     91     92     1  180.0000000  -0.2713295  2
     90     89     91     92     1  0.0000000  0.1630696  3
     90     89     91     92     1  180.0000000  0.3314149  4
     90     89     91    113     1  0.0000000  0.0402246  1
     90     89     91    113     1  180.0000000  -0.2713295  2
     90     89     91    113     1  0.0000000  0.1630696  3
     90     89     91    113     1  180.0000000  0.3314149  4
     91     92     93     94     1  180.0000000  13.6752988  2
     91     92     93    115     1  180.0000000  13.6752988  2
     91    113    112     94     1  180.0000000  13.6752988  2
     91    113    112    131     1  180.0000000  13.6752988  2
     92     91    113    112     1  180.0000000  13.6752988  2
     92     91    113    132     1  180.0000000  13.6752988  2
     92     93     94     95     1  180.0000000  13.6752988  2
     92     93     94    112     1  180.0000000  13.6752988  2
     93     92     91    113     1  180.0000000  13.6752988  2
     93     94     95     96     1  0.0000000  -0.3044739  1
     93     94     95     96     1  180.0000000  5.6385197  2
     93     94     95     96     1  0.0000000  -0.3378759  3
     93     94     95     96     1  180.0000000  -0.3104712  4
     93     94     95    102     1  0.0000000  0.3277016  1
     93     94     95    102     1  180.0000000  6.2144778  2
     93     94     95    102     1  0.0000000  0.3475371  3
     93     94     95    102     1  180.0000000  2.0623258  4
     93     94    112    113     1  180.0000000  13.6752988  2
     93     94    112    131     1  180.0000000  13.6752988  2
     94     93     92    114     1  180.0000000  13.6752988  2
     94     95     96     97     1  180.0000000  13.6752988  2
     94     95     96    103     1  180.0000000  13.6752988  2
     94     95    102    101     1  180.0000000  13.6752988  2
     94     95    102    121     1  180.0000000  13.6752988  2
     94    112    113    132     1  180.0000000  13.6752988  2
     95     94     93    115     1  180.0000000  13.6752988  2
     95     94    112    113     1  180.0000000  13.6752988  2
     95     94    112    131     1  180.0000000  13.6752988  2
     95     96     97     98     1  180.0000000  13.6752988  2
     95     96     97    116     1  180.0000000  13.6752988  2
     95     96    103    104     1  180.0000000  5.1777217  2
     95     96    103    108     1  180.0000000  5.1777217  2
     95    102    101     98     1  180.0000000  13.6752988  2
     95    102    101    120     1  180.0000000  13.6752988  2
     96     95     94    112     1  0.0000000  -0.3044739  1
     96     95     94    112     1  180.0000000  5.6385197  2
     96     95     94    112     1  0.0000000  -0.3378759  3
     96     95     94    112     1  180.0000000  -0.3104712  4
     96     95    102    101     1  180.0000000  13.6752988  2
     96     95    102    121     1  180.0000000  13.6752988  2
     96     97     98     99     1  180.0000000  13.6752988  2
     96     97     98    101     1  180.0000000  13.6752988  2
     96    103    104    105     1  180.0000000  13.6752988  2
     96    103    104    122     1  180.0000000  13.6752988  2
     96    103    108    107     1  180.0000000  13.6752988  2
     96    103    108    125     1  180.0000000  13.6752988  2
     97     96     95    102     1  180.0000000  13.6752988  2
     97     96    103    104     1  180.0000000  5.1777217  2
     97     96    103    108     1  180.0000000  5.1777217  2
     97     98     99    100     1  0.0000000  0.2365974  1
     97     98     99    100     1  180.0000000  9.7407113  2
     97     98     99    100     1  0.0000000  1.1711426  3
     97     98     99    100     1  180.0000000  0.6733615  4
     97     98    101    102     1  180.0000000  13.6752988  2
     97     98    101    120     1  180.0000000  13.6752988  2
     98     97     96    103     1  180.0000000  13.6752988  2
     98     99    100    117     1  0.0000000  1.1008580  3
     98     99    100    118     1  0.0000000  1.1008580  3
     98     99    100    119     1  0.0000000  1.1008580  3
     98    101    102    121     1  180.0000000  13.6752988  2
     99     98     97    116     1  180.0000000  13.6752988  2
     99     98    101    102     1  180.0000000  13.6752988  2
     99     98    101    120     1  180.0000000  13.6752988  2
    100     99     98    101     1  0.0000000  0.2365974  1
    100     99     98    101     1  180.0000000  9.7407113  2
    100     99     98    101     1  0.0000000  1.1711426  3
    100     99     98    101     1  180.0000000  0.6733615  4
    101     98     97    116     1  180.0000000  13.6752988  2
    102     95     94    112     1  0.0000000  0.3277016  1
    102     95     94    112     1  180.0000000  6.2144778  2
    102     95     94    112     1  0.0000000  0.3475371  3
    102     95     94    112     1  180.0000000  2.0623258  4
    102     95     96    103     1  180.0000000  13.6752988  2
    103     96     97    116     1  180.0000000  13.6752988  2
    103    104    105    106     1  180.0000000  13.6752988  2
    103    104    105    123     1  180.0000000  13.6752988  2
    103    108    107    106     1  180.0000000  13.6752988  2
    103    108    107    109     1  180.0000000  13.6752988  2
    104    103    108    107     1  180.0000000  13.6752988  2
    104    103    108    125     1  180.0000000  13.6752988  2
    104    105    106    107     1  180.0000000  13.6752988  2
    104    105    106    124     1  180.0000000  13.6752988  2
    105    104    103    108     1  180.0000000  13.6752988  2
    105    106    107    108     1  180.0000000  13.6752988  2
    105    106    107    109     1  180.0000000  13.6752988  2
    106    105    104    122     1  180.0000000  13.6752988  2
    106    107    108    125     1  180.0000000  13.6752988  2
    106    107    109    110     1  0.0000000  0.2144354  1
    106    107    109    110     1  180.0000000  1.2858558  2
    106    107    109    110     1  0.0000000  0.1204628  3
    106    107    109    110     1  180.0000000  0.0486336  4
    106    107    109    111     1  0.0000000  -0.0970197  1
    106    107    109    111     1  180.0000000  -0.2508233  2
    106    107    109    111     1  0.0000000  0.1317265  3
    106    107    109    111     1  180.0000000  0.0220621  4
    106    107    109    126     1  0.0000000  -0.1241755  1
    106    107    109    126     1  180.0000000  -0.9799809  2
    106    107    109    126     1  0.0000000  0.1320141  3
    106    107    109    126     1  180.0000000  0.1840938  4
    107    106    105    123     1  180.0000000  13.6752988  2
    107    109    110    127     1  0.0000000  3.7626531  1
    107    109    110    127     1  180.0000000  2.7460423  2
    107    109    110    127     1  0.0000000  1.1471976  3
    107    109    110    127     1  180.0000000  0.7259066  4
    107    109    110    133     1  0.0000000  -5.2829675  1
    107    109    110    133     1  180.0000000  1.9322644  2
    107    109    110    133     1  0.0000000  -0.7025389  3
    107    109    110    133     1  180.0000000  -0.7088846  4
    107    109    111    128     1  0.0000000  0.6020980  3
    107    109    111    129     1  0.0000000  0.6020980  3
    107    109    111    130     1  0.0000000  0.6020980  3
    108    103    104    122     1  180.0000000  13.6752988  2
    108    107    106    124     1  180.0000000  13.6752988  2
    108    107    109    110     1  0.0000000  0.2144354  1
    108    107    109    110     1  180.0000000  1.2858558  2
    108    107    109    110     1  0.0000000  0.1204628  3
    108    107    109    110     1  180.0000000  0.0486336  4
    108    107    109    111     1  0.0000000  -0.0970197  1
    108    107    109    111     1  180.0000000  -0.2508233  2
    108    107    109    111     1  0.0000000  0.1317265  3
    108    107    109    111     1  180.0000000  0.0220621  4
    108    107    109    126     1  0.0000000  -0.1241755  1
    108    107    109    126     1  180.0000000  -0.9799809  2
    108    107    109    126     1  0.0000000  0.1320141  3
    108    107    109    126     1  180.0000000  0.1840938  4
    109    107    106    124     1  180.0000000  13.6752988  2
    109    107    108    125     1  180.0000000  13.6752988  2
    109    110    133    134     1  0.0000000  -2.0828908  1
    109    110    133    134     1  180.0000000  9.3569096  2
    109    110    133    134     1  0.0000000  0.8396537  3
    109    110    133    134     1  180.0000000  -0.9565265  4
    109    110    133    135     1  0.0000000  1.0104317  1
    109    110    133    135     1  180.0000000  8.6977019  2
    109    110    133    135     1  0.0000000  1.6926907  3
    109    110    133    135     1  180.0000000  2.1756018  4
    110    109    111    128     1  0.0000000  0.6020980  3
    110    109    111    129     1  0.0000000  0.6020980  3
    110    109    111    130     1  0.0000000  0.6020980  3
    110    133    135    136     1  0.0000000  -0.0514420  1
    110    133    135    136     1  180.0000000  4.2608113  2
    110    133    135    136     1  0.0000000  -0.1739481  3
    110    133    135    136     1  180.0000000  0.1215182  4
    110    133    135    157     1  0.0000000  -0.0514420  1
    110    133    135    157     1  180.0000000  4.2608113  2
    110    133    135    157     1  0.0000000  -0.1739481  3
    110    133    135    157     1  180.0000000  0.1215182  4
    111    109    110    127     1  0.0000000  -1.8603561  1
    111    109    110    127     1  180.0000000  0.7624141  2
    111    109    110    127     1  0.0000000  0.7055017  3
    111    109    110    127     1  180.0000000  -0.4799419  4
    111    109    110    133     1  0.0000000  -0.1604797  1
    111    109    110    133     1  180.0000000  0.4088102  2
    111    109    110    133     1  0.0000000  -1.2284377  3
    111    109    110    133     1  180.0000000  0.1802623  4
    112     94     93    115     1  180.0000000  13.6752988  2
    113     91     92    114     1  180.0000000  13.6752988  2
    114     92     93    115     1  180.0000000  13.6752988  2
    120    101    102    121     1  180.0000000  13.6752988  2
    122    104    105    123     1  180.0000000  13.6752988  2
    123    105    106    124     1  180.0000000  13.6752988  2
    126    109    110    127     1  0.0000000  -2.0964046  1
    126    109    110    127     1  180.0000000  0.8037202  2
    126    109    110    127     1  0.0000000  0.9916109  3
    126    109    110    127     1  180.0000000  -0.0310133  4
    126    109    110    133     1  0.0000000  2.5959716  1
    126    109    110    133     1  180.0000000  0.3569788  2
    126    109    110    133     1  0.0000000  0.5014050  3
    126    109    110    133     1  180.0000000  0.2759443  4
    126    109    111    128     1  0.0000000  0.9539296  3
    126    109    111    129     1  0.0000000  0.9539296  3
    126    109    111    130     1  0.0000000  0.9539296  3
    127    110    133    134     1  0.0000000  4.1249202  1
    127    110    133    134     1  180.0000000  5.0164018  2
    127    110    133    134     1  0.0000000  -0.5030933  3
    127    110    133    134     1  180.0000000  -0.9265386  4
    127    110    133    135     1  0.0000000  2.2826199  1
    127    110    133    135     1  180.0000000  9.2080338  2
    127    110    133    135     1  0.0000000  -0.0722131  3
    127    110    133    135     1  180.0000000  1.1383707  4
    131    112    113    132     1  180.0000000  13.6752988  2
    133    135    136    137     1  180.0000000  13.6752988  2
    133    135    136    158     1  180.0000000  13.6752988  2
    133    135    157    156     1  180.0000000  13.6752988  2
    133    135    157    176     1  180.0000000  13.6752988  2
    134    133    135    136     1  0.0000000  0.0402246  1
    134    133    135    136     1  180.0000000  -0.2713295  2
    134    133    135    136     1  0.0000000  0.1630696  3
    134    133    135    136     1  180.0000000  0.3314149  4
    134    133    135    157     1  0.0000000  0.0402246  1
    134    133    135    157     1  180.0000000  -0.2713295  2
    134    133    135    157     1  0.0000000  0.1630696  3
    134    133    135    157     1  180.0000000  0.3314149  4
    135    136    137    138     1  180.0000000  13.6752988  2
    135    136    137    159     1  180.0000000  13.6752988  2
    135    157    156    138     1  180.0000000  13.6752988  2
    135    157    156    175     1  180.0000000  13.6752988  2
    136    135    157    156     1  180.0000000  13.6752988  2
    136    135    157    176     1  180.0000000  13.6752988  2
    136    137    138    139     1  180.0000000  13.6752988  2
    136    137    138    156     1  180.0000000  13.6752988  2
    137    136    135    157     1  180.0000000  13.6752988  2
    137    138    139    140     1  0.0000000  -0.3044739  1
    137    138    139    140     1  180.0000000  5.6385197  2
    137    138    139    140     1  0.0000000  -0.3378759  3
    137    138    139    140     1  180.0000000  -0.3104712  4
    137    138    139    146     1  0.0000000  0.3277016  1
    137    138    139    146     1  180.0000000  6.2144778  2
    137    138    139    146     1  0.0000000  0.3475371  3
    137    138    139    146     1  180.0000000  2.0623258  4
    137    138    156    157     1  180.0000000  13.6752988  2
    137    138    156    175     1  180.0000000  13.6752988  2
    138    137    136    158     1  180.0000000  13.6752988  2
    138    139    140    141     1  180.0000000  13.6752988  2
    138    139    140    147     1  180.0000000  13.6752988  2
    138    139    146    145     1  180.0000000  13.6752988  2
    138    139    146    165     1  180.0000000  13.6752988  2
    138    156    157    176     1  180.0000000  13.6752988  2
    139    138    137    159     1  180.0000000  13.6752988  2
    139    138    156    157     1  180.0000000  13.6752988  2
    139    138    156    175     1  180.0000000  13.6752988  2
    139    140    141    142     1  180.0000000  13.6752988  2
    139    140    141    160     1  180.0000000  13.6752988  2
    139    140    147    148     1  180.0000000  5.1777217  2
    139    140    147    152     1  180.0000000  5.1777217  2
    139    146    145    142     1  180.0000000  13.6752988  2
    139    146    145    164     1  180.0000000  13.6752988  2
    140    139    138    156     1  0.0000000  -0.3044739  1
    140    139    138    156     1  180.0000000  5.6385197  2
    140    139    138    156     1  0.0000000  -0.3378759  3
    140    139    138    156     1  180.0000000  -0.3104712  4
    140    139    146    145     1  180.0000000  13.6752988  2
    140    139    146    165     1  180.0000000  13.6752988  2
    140    141    142    143     1  180.0000000  13.6752988  2
    140    141    142    145     1  180.0000000  13.6752988  2
    140    147    148    149     1  180.0000000  13.6752988  2
    140    147    148    166     1  180.0000000  13.6752988  2
    140    147    152    151     1  180.0000000  13.6752988  2
    140    147    152    169     1  180.0000000  13.6752988  2
    141    140    139    146     1  180.0000000  13.6752988  2
    141    140    147    148     1  180.0000000  5.1777217  2
    141    140    147    152     1  180.0000000  5.1777217  2
    141    142    143    144     1  0.0000000  0.2365974  1
    141    142    143    144     1  180.0000000  9.7407113  2
    141    142    143    144     1  0.0000000  1.1711426  3
    141    142    143    144     1  180.0000000  0.6733615  4
    141    142    145    146     1  180.0000000  13.6752988  2
    141    142    145    164     1  180.0000000  13.6752988  2
    142    141    140    147     1  180.0000000  13.6752988  2
    142    143    144    161     1  0.0000000  1.1008580  3
    142    143    144    162     1  0.0000000  1.1008580  3
    142    143    144    163     1  0.0000000  1.1008580  3
    142    145    146    165     1  180.0000000  13.6752988  2
    143    142    141    160     1  180.0000000  13.6752988  2
    143    142    145    146     1  180.0000000  13.6752988  2
    143    142    145    164     1  180.0000000  13.6752988  2
    144    143    142    145     1  0.0000000  0.2365974  1
    144    143    142    145     1  180.0000000  9.7407113  2
    144    143    142    145     1  0.0000000  1.1711426  3
    144    143    142    145     1  180.0000000  0.6733615  4
    145    142    141    160     1  180.0000000  13.6752988  2
    146    139    138    156     1  0.0000000  0.3277016  1
    146    139    138    156     1  180.0000000  6.2144778  2
    146    139    138    156     1  0.0000000  0.3475371  3
    146    139    138    156     1  180.0000000  2.0623258  4
    146    139    140    147     1  180.0000000  13.6752988  2
    147    140    141    160     1  180.0000000  13.6752988  2
    147    148    149    150     1  180.0000000  13.6752988  2
    147    148    149    167     1  180.0000000  13.6752988  2
    147    152    151    150     1  180.0000000  13.6752988  2
    147    152    151    153     1  180.0000000  13.6752988  2
    148    147    152    151     1  180.0000000  13.6752988  2
    148    147    152    169     1  180.0000000  13.6752988  2
    148    149    150    151     1  180.0000000  13.6752988  2
    148    149    150    168     1  180.0000000  13.6752988  2
    149    148    147    152     1  180.0000000  13.6752988  2
    149    150    151    152     1  180.0000000  13.6752988  2
    149    150    151    153     1  180.0000000  13.6752988  2
    150    149    148    166     1  180.0000000  13.6752988  2
    150    151    152    169     1  180.0000000  13.6752988  2
    150    151    153    154     1  0.0000000  0.2144354  1
    150    151    153    154     1  180.0000000  1.2858558  2
    150    151    153    154     1  0.0000000  0.1204628  3
    150    151    153    154     1  180.0000000  0.0486336  4
    150    151    153    155     1  0.0000000  -0.0970197  1
    150    151    153    155     1  180.0000000  -0.2508233  2
    150    151    153    155     1  0.0000000  0.1317265  3
    150    151    153    155     1  180.0000000  0.0220621  4
    150    151    153    170     1  0.0000000  -0.1241755  1
    150    151    153    170     1  180.0000000  -0.9799809  2
    150    151    153    170     1  0.0000000  0.1320141  3
    150    151    153    170     1  180.0000000  0.1840938  4
    151    150    149    167     1  180.0000000  13.6752988  2
    151    153    154    171     1  0.0000000  3.7626531  1
    151    153    154    171     1  180.0000000  2.7460423  2
    151    153    154    171     1  0.0000000  1.1471976  3
    151    153    154    171     1  180.0000000  0.7259066  4
    151    153    154    177     1  0.0000000  -5.2829675  1
    151    153    154    177     1  180.0000000  1.9322644  2
    151    153    154    177     1  0.0000000  -0.7025389  3
    151    153    154    177     1  180.0000000  -0.7088846  4
    151    153    155    172     1  0.0000000  0.6020980  3
    151    153    155    173     1  0.0000000  0.6020980  3
    151    153    155    174     1  0.0000000  0.6020980  3
    152    147    148    166     1  180.0000000  13.6752988  2
    152    151    150    168     1  180.0000000  13.6752988  2
    152    151    153    154     1  0.0000000  0.2144354  1
    152    151    153    154     1  180.0000000  1.2858558  2
    152    151    153    154     1  0.0000000  0.1204628  3
    152    151    153    154     1  180.0000000  0.0486336  4
    152    151    153    155     1  0.0000000  -0.0970197  1
    152    151    153    155     1  180.0000000  -0.2508233  2
    152    151    153    155     1  0.0000000  0.1317265  3
    152    151    153    155     1  180.0000000  0.0220621  4
    152    151    153    170     1  0.0000000  -0.1241755  1
    152    151    153    170     1  180.0000000  -0.9799809  2
    152    151    153    170     1  0.0000000  0.1320141  3
    152    151    153    170     1  180.0000000  0.1840938  4
    153    151    150    168     1  180.0000000  13.6752988  2
    153    151    152    169     1  180.0000000  13.6752988  2
    153    154    177    178     1  0.0000000  -2.0828908  1
    153    154    177    178     1  180.0000000  9.3569096  2
    153    154    177    178     1  0.0000000  0.8396537  3
    153    154    177    178     1  180.0000000  -0.9565265  4
    153    154    177    179     1  0.0000000  1.0104317  1
    153    154    177    179     1  180.0000000  8.6977019  2
    153    154    177    179     1  0.0000000  1.6926907  3
    153    154    177    179     1  180.0000000  2.1756018  4
    154    153    155    172     1  0.0000000  0.6020980  3
    154    153    155    173     1  0.0000000  0.6020980  3
    154    153    155    174     1  0.0000000  0.6020980  3
    154    177    179    180     1  0.0000000  -0.0514420  1
    154    177    179    180     1  180.0000000  4.2608113  2
    154    177    179    180     1  0.0000000  -0.1739481  3
    154    177    179    180     1  180.0000000  0.1215182  4
    154    177    179    201     1  0.0000000  -0.0514420  1
    154    177    179    201     1  180.0000000  4.2608113  2
    154    177    179    201     1  0.0000000  -0.1739481  3
    154    177    179    201     1  180.0000000  0.1215182  4
    155    153    154    171     1  0.0000000  -1.8603561  1
    155    153    154    171     1  180.0000000  0.7624141  2
    155    153    154    171     1  0.0000000  0.7055017  3
    155    153    154    171     1  180.0000000  -0.4799419  4
    155    153    154    177     1  0.0000000  -0.1604797  1
    155    153    154    177     1  180.0000000  0.4088102  2
    155    153    154    177     1  0.0000000  -1.2284377  3
    155    153    154    177     1  180.0000000  0.1802623  4
    156    138    137    159     1  180.0000000  13.6752988  2
    157    135    136    158     1  180.0000000  13.6752988  2
    158    136    137    159     1  180.0000000  13.6752988  2
    164    145    146    165     1  180.0000000  13.6752988  2
    166    148    149    167     1  180.0000000  13.6752988  2
    167    149    150    168     1  180.0000000  13.6752988  2
    170    153    154    171     1  0.0000000  -2.0964046  1
    170    153    154    171     1  180.0000000  0.8037202  2
    170    153    154    171     1  0.0000000  0.9916109  3
    170    153    154    171     1  180.0000000  -0.0310133  4
    170    153    154    177     1  0.0000000  2.5959716  1
    170    153    154    177     1  180.0000000  0.3569788  2
    170    153    154    177     1  0.0000000  0.5014050  3
    170    153    154    177     1  180.0000000  0.2759443  4
    170    153    155    172     1  0.0000000  0.9539296  3
    170    153    155    173     1  0.0000000  0.9539296  3
    170    153    155    174     1  0.0000000  0.9539296  3
    171    154    177    178     1  0.0000000  4.1249202  1
    171    154    177    178     1  180.0000000  5.0164018  2
    171    154    177    178     1  0.0000000  -0.5030933  3
    171    154    177    178     1  180.0000000  -0.9265386  4
    171    154    177    179     1  0.0000000  2.2826199  1
    171    154    177    179     1  180.0000000  9.2080338  2
    171    154    177    179     1  0.0000000  -0.0722131  3
    171    154    177    179     1  180.0000000  1.1383707  4
    175    156    157    176     1  180.0000000  13.6752988  2
    177    179    180    181     1  180.0000000  13.6752988  2
    177    179    180    202     1  180.0000000  13.6752988  2
    177    179    201    200     1  180.0000000  13.6752988  2
    177    179    201    220     1  180.0000000  13.6752988  2
    178    177    179    180     1  0.0000000  0.0402246  1
    178    177    179    180     1  180.0000000  -0.2713295  2
    178    177    179    180     1  0.0000000  0.1630696  3
    178    177    179    180     1  180.0000000  0.3314149  4
    178    177    179    201     1  0.0000000  0.0402246  1
    178    177    179    201     1  180.0000000  -0.2713295  2
    178    177    179    201     1  0.0000000  0.1630696  3
    178    177    179    201     1  180.0000000  0.3314149  4
    179    180    181    182     1  180.0000000  13.6752988  2
    179    180    181    203     1  180.0000000  13.6752988  2
    179    201    200    182     1  180.0000000  13.6752988  2
    179    201    200    219     1  180.0000000  13.6752988  2
    180    179    201    200     1  180.0000000  13.6752988  2
    180    179    201    220     1  180.0000000  13.6752988  2
    180    181    182    183     1  180.0000000  13.6752988  2
    180    181    182    200     1  180.0000000  13.6752988  2
    181    180    179    201     1  180.0000000  13.6752988  2
    181    182    183    184     1  0.0000000  -0.3044739  1
    181    182    183    184     1  180.0000000  5.6385197  2
    181    182    183    184     1  0.0000000  -0.3378759  3
    181    182    183    184     1  180.0000000  -0.3104712  4
    181    182    183    190     1  0.0000000  0.3277016  1
    181    182    183    190     1  180.0000000  6.2144778  2
    181    182    183    190     1  0.0000000  0.3475371  3
    181    182    183    190     1  180.0000000  2.0623258  4
    181    182    200    201     1  180.0000000  13.6752988  2
    181    182    200    219     1  180.0000000  13.6752988  2
    182    181    180    202     1  180.0000000  13.6752988  2
    182    183    184    185     1  180.0000000  13.6752988  2
    182    183    184    191     1  180.0000000  13.6752988  2
    182    183    190    189     1  180.0000000  13.6752988  2
    182    183    190    209     1  180.0000000  13.6752988  2
    182    200    201    220     1  180.0000000  13.6752988  2
    183    182    181    203     1  180.0000000  13.6752988  2
    183    182    200    201     1  180.0000000  13.6752988  2
    183    182    200    219     1  180.0000000  13.6752988  2
    183    184    185    186     1  180.0000000  13.6752988  2
    183    184    185    204     1  180.0000000  13.6752988  2
    183    184    191    192     1  180.0000000  5.1777217  2
    183    184    191    196     1  180.0000000  5.1777217  2
    183    190    189    186     1  180.0000000  13.6752988  2
    183    190    189    208     1  180.0000000  13.6752988  2
    184    183    182    200     1  0.0000000  -0.3044739  1
    184    183    182    200     1  180.0000000  5.6385197  2
    184    183    182    200     1  0.0000000  -0.3378759  3
    184    183    182    200     1  180.0000000  -0.3104712  4
    184    183    190    189     1  180.0000000  13.6752988  2
    184    183    190    209     1  180.0000000  13.6752988  2
    184    185    186    187     1  180.0000000  13.6752988  2
    184    185    186    189     1  180.0000000  13.6752988  2
    184    191    192    193     1  180.0000000  13.6752988  2
    184    191    192    210     1  180.0000000  13.6752988  2
    184    191    196    195     1  180.0000000  13.6752988  2
    184    191    196    213     1  180.0000000  13.6752988  2
    185    184    183    190     1  180.0000000  13.6752988  2
    185    184    191    192     1  180.0000000  5.1777217  2
    185    184    191    196     1  180.0000000  5.1777217  2
    185    186    187    188     1  0.0000000  0.2365974  1
    185    186    187    188     1  180.0000000  9.7407113  2
    185    186    187    188     1  0.0000000  1.1711426  3
    185    186    187    188     1  180.0000000  0.6733615  4
    185    186    189    190     1  180.0000000  13.6752988  2
    185    186    189    208     1  180.0000000  13.6752988  2
    186    185    184    191     1  180.0000000  13.6752988  2
    186    187    188    205     1  0.0000000  1.1008580  3
    186    187    188    206     1  0.0000000  1.1008580  3
    186    187    188    207     1  0.0000000  1.1008580  3
    186    189    190    209     1  180.0000000  13.6752988  2
    187    186    185    204     1  180.0000000  13.6752988  2
    187    186    189    190     1  180.0000000  13.6752988  2
    187    186    189    208     1  180.0000000  13.6752988  2
    188    187    186    189     1  0.0000000  0.2365974  1
    188    187    186    189     1  180.0000000  9.7407113  2
    188    187    186    189     1  0.0000000  1.1711426  3
    188    187    186    189     1  180.0000000  0.6733615  4
    189    186    185    204     1  180.0000000  13.6752988  2
    190    183    182    200     1  0.0000000  0.3277016  1
    190    183    182    200     1  180.0000000  6.2144778  2
    190    183    182    200     1  0.0000000  0.3475371  3
    190    183    182    200     1  180.0000000  2.0623258  4
    190    183    184    191     1  180.0000000  13.6752988  2
    191    184    185    204     1  180.0000000  13.6752988  2
    191    192    193    194     1  180.0000000  13.6752988  2
    191    192    193    211     1  180.0000000  13.6752988  2
    191    196    195    194     1  180.0000000  13.6752988  2
    191    196    195    197     1  180.0000000  13.6752988  2
    192    191    196    195     1  180.0000000  13.6752988  2
    192    191    196    213     1  180.0000000  13.6752988  2
    192    193    194    195     1  180.0000000  13.6752988  2
    192    193    194    212     1  180.0000000  13.6752988  2
    193    192    191    196     1  180.0000000  13.6752988  2
    193    194    195    196     1  180.0000000  13.6752988  2
    193    194    195    197     1  180.0000000  13.6752988  2
    194    193    192    210     1  180.0000000  13.6752988  2
    194    195    196    213     1  180.0000000  13.6752988  2
    194    195    197    198     1  0.0000000  0.2144354  1
    194    195    197    198     1  180.0000000  1.2858558  2
    194    195    197    198     1  0.0000000  0.1204628  3
    194    195    197    198     1  180.0000000  0.0486336  4
    194    195    197    199     1  0.0000000  -0.0970197  1
    194    195    197    199     1  180.0000000  -0.2508233  2
    194    195    197    199     1  0.0000000  0.1317265  3
    194    195    197    199     1  180.0000000  0.0220621  4
    194    195    197    214     1  0.0000000  -0.1241755  1
    194    195    197    214     1  180.0000000  -0.9799809  2
    194    195    197    214     1  0.0000000  0.1320141  3
    194    195    197    214     1  180.0000000  0.1840938  4
    195    194    193    211     1  180.0000000  13.6752988  2
    195    197    198    215     1  0.0000000  3.7626531  1
    195    197    198    215     1  180.0000000  2.7460423  2
    195    197    198    215     1  0.0000000  1.1471976  3
    195    197    198    215     1  180.0000000  0.7259066  4
    195    197    198    221     1  0.0000000  -5.2829675  1
    195    197    198    221     1  180.0000000  1.9322644  2
    195    197    198    221     1  0.0000000  -0.7025389  3
    195    197    198    221     1  180.0000000  -0.7088846  4
    195    197    199    216     1  0.0000000  0.6020980  3
    195    197    199    217     1  0.0000000  0.6020980  3
    195    197    199    218     1  0.0000000  0.6020980  3
    196    191    192    210     1  180.0000000  13.6752988  2
    196    195    194    212     1  180.0000000  13.6752988  2
    196    195    197    198     1  0.0000000  0.2144354  1
    196    195    197    198     1  180.0000000  1.2858558  2
    196    195    197    198     1  0.0000000  0.1204628  3
    196    195    197    198     1  180.0000000  0.0486336  4
    196    195    197    199     1  0.0000000  -0.0970197  1
    196    195    197    199     1  180.0000000  -0.2508233  2
    196    195    197    199     1  0.0000000  0.1317265  3
    196    195    197    199     1  180.0000000  0.0220621  4
    196    195    197    214     1  0.0000000  -0.1241755  1
    196    195    197    214     1  180.0000000  -0.9799809  2
    196    195    197    214     1  0.0000000  0.1320141  3
    196    195    197    214     1  180.0000000  0.1840938  4
    197    195    194    212     1  180.0000000  13.6752988  2
    197    195    196    213     1  180.0000000  13.6752988  2
    197    198    221    222     1  0.0000000  -2.0828908  1
    197    198    221    222     1  180.0000000  9.3569096  2
    197    198    221    222     1  0.0000000  0.8396537  3
    197    198    221    222     1  180.0000000  -0.9565265  4
    197    198    221    223     1  0.0000000  1.0104317  1
    197    198    221    223     1  180.0000000  8.6977019  2
    197    198    221    223     1  0.0000000  1.6926907  3
    197    198    221    223     1  180.0000000  2.1756018  4
    198    197    199    216     1  0.0000000  0.6020980  3
    198    197    199    217     1  0.0000000  0.6020980  3
    198    197    199    218     1  0.0000000  0.6020980  3
    198    221    223    224     1  0.0000000  -0.0514420  1
    198    221    223    224     1  180.0000000  4.2608113  2
    198    221    223    224     1  0.0000000  -0.1739481  3
    198    221    223    224     1  180.0000000  0.1215182  4
    198    221    223    245     1  0.0000000  -0.0514420  1
    198    221    223    245     1  180.0000000  4.2608113  2
    198    221    223    245     1  0.0000000  -0.1739481  3
    198    221    223    245     1  180.0000000  0.1215182  4
    199    197    198    215     1  0.0000000  -1.8603561  1
    199    197    198    215     1  180.0000000  0.7624141  2
    199    197    198    215     1  0.0000000  0.7055017  3
    199    197    198    215     1  180.0000000  -0.4799419  4
    199    197    198    221     1  0.0000000  -0.1604797  1
    199    197    198    221     1  180.0000000  0.4088102  2
    199    197    198    221     1  0.0000000  -1.2284377  3
    199    197    198    221     1  180.0000000  0.1802623  4
    200    182    181    203     1  180.0000000  13.6752988  2
    201    179    180    202     1  180.0000000  13.6752988  2
    202    180    181    203     1  180.0000000  13.6752988  2
    208    189    190    209     1  180.0000000  13.6752988  2
    210    192    193    211     1  180.0000000  13.6752988  2
    211    193    194    212     1  180.0000000  13.6752988  2
    214    197    198    215     1  0.0000000  -2.0964046  1
    214    197    198    215     1  180.0000000  0.8037202  2
    214    197    198    215     1  0.0000000  0.9916109  3
    214    197    198    215     1  180.0000000  -0.0310133  4
    214    197    198    221     1  0.0000000  2.5959716  1
    214    197    198    221     1  180.0000000  0.3569788  2
    214    197    198    221     1  0.0000000  0.5014050  3
    214    197    198    221     1  180.0000000  0.2759443  4
    214    197    199    216     1  0.0000000  0.9539296  3
    214    197    199    217     1  0.0000000  0.9539296  3
    214    197    199    218     1  0.0000000  0.9539296  3
    215    198    221    222     1  0.0000000  4.1249202  1
    215    198    221    222     1  180.0000000  5.0164018  2
    215    198    221    222     1  0.0000000  -0.5030933  3
    215    198    221    222     1  180.0000000  -0.9265386  4
    215    198    221    223     1  0.0000000  2.2826199  1
    215    198    221    223     1  180.0000000  9.2080338  2
    215    198    221    223     1  0.0000000  -0.0722131  3
    215    198    221    223     1  180.0000000  1.1383707  4
    219    200    201    220     1  180.0000000  13.6752988  2
    221    223    224    225     1  180.0000000  13.6752988  2
    221    223    224    246     1  180.0000000  13.6752988  2
    221    223    245    244     1  180.0000000  13.6752988  2
    221    223    245    264     1  180.0000000  13.6752988  2
    222    221    223    224     1  0.0000000  0.0402246  1
    222    221    223    224     1  180.0000000  -0.2713295  2
    222    221    223    224     1  0.0000000  0.1630696  3
    222    221    223    224     1  180.0000000  0.3314149  4
    222    221    223    245     1  0.0000000  0.0402246  1
    222    221    223    245     1  180.0000000  -0.2713295  2
    222    221    223    245     1  0.0000000  0.1630696  3
    222    221    223    245     1  180.0000000  0.3314149  4
    223    224    225    226     1  180.0000000  13.6752988  2
    223    224    225    247     1  180.0000000  13.6752988  2
    223    245    244    226     1  180.0000000  13.6752988  2
    223    245    244    263     1  180.0000000  13.6752988  2
    224    223    245    244     1  180.0000000  13.6752988  2
    224    223    245    264     1  180.0000000  13.6752988  2
    224    225    226    227     1  180.0000000  13.6752988  2
    224    225    226    244     1  180.0000000  13.6752988  2
    225    224    223    245     1  180.0000000  13.6752988  2
    225    226    227    228     1  0.0000000  -0.3044739  1
    225    226    227    228     1  180.0000000  5.6385197  2
    225    226    227    228     1  0.0000000  -0.3378759  3
    225    226    227    228     1  180.0000000  -0.3104712  4
    225    226    227    234     1  0.0000000  0.3277016  1
    225    226    227    234     1  180.0000000  6.2144778  2
    225    226    227    234     1  0.0000000  0.3475371  3
    225    226    227    234     1  180.0000000  2.0623258  4
    225    226    244    245     1  180.0000000  13.6752988  2
    225    226    244    263     1  180.0000000  13.6752988  2
    226    225    224    246     1  180.0000000  13.6752988  2
    226    227    228    229     1  180.0000000  13.6752988  2
    226    227    228    235     1  180.0000000  13.6752988  2
    226    227    234    233     1  180.0000000  13.6752988  2
    226    227    234    253     1  180.0000000  13.6752988  2
    226    244    245    264     1  180.0000000  13.6752988  2
    227    226    225    247     1  180.0000000  13.6752988  2
    227    226    244    245     1  180.0000000  13.6752988  2
    227    226    244    263     1  180.0000000  13.6752988  2
    227    228    229    230     1  180.0000000  13.6752988  2
    227    228    229    248     1  180.0000000  13.6752988  2
    227    228    235    236     1  180.0000000  5.1777217  2
    227    228    235    240     1  180.0000000  5.1777217  2
    227    234    233    230     1  180.0000000  13.6752988  2
    227    234    233    252     1  180.0000000  13.6752988  2
    228    227    226    244     1  0.0000000  -0.3044739  1
    228    227    226    244     1  180.0000000  5.6385197  2
    228    227    226    244     1  0.0000000  -0.3378759  3
    228    227    226    244     1  180.0000000  -0.3104712  4
    228    227    234    233     1  180.0000000  13.6752988  2
    228    227    234    253     1  180.0000000  13.6752988  2
    228    229    230    231     1  180.0000000  13.6752988  2
    228    229    230    233     1  180.0000000  13.6752988  2
    228    235    236    237     1  180.0000000  13.6752988  2
    228    235    236    254     1  180.0000000  13.6752988  2
    228    235    240    239     1  180.0000000  13.6752988  2
    228    235    240    257     1  180.0000000  13.6752988  2
    229    228    227    234     1  180.0000000  13.6752988  2
    229    228    235    236     1  180.0000000  5.1777217  2
    229    228    235    240     1  180.0000000  5.1777217  2
    229    230    231    232     1  0.0000000  0.2365974  1
    229    230    231    232     1  180.0000000  9.7407113  2
    229    230    231    232     1  0.0000000  1.1711426  3
    229    230    231    232     1  180.0000000  0.6733615  4
    229    230    233    234     1  180.0000000  13.6752988  2
    229    230    233    252     1  180.0000000  13.6752988  2
    230    229    228    235     1  180.0000000  13.6752988  2
    230    231    232    249     1  0.0000000  1.1008580  3
    230    231    232    250     1  0.0000000  1.1008580  3
    230    231    232    251     1  0.0000000  1.1008580  3
    230    233    234    253     1  180.0000000  13.6752988  2
    231    230    229    248     1  180.0000000  13.6752988  2
    231    230    233    234     1  180.0000000  13.6752988  2
    231    230    233    252     1  180.0000000  13.6752988  2
    232    231    230    233     1  0.0000000  0.2365974  1
    232    231    230    233     1  180.0000000  9.7407113  2
    232    231    230    233     1  0.0000000  1.1711426  3
    232    231    230    233     1  180.0000000  0.6733615  4
    233    230    229    248     1  180.0000000  13.6752988  2
    234    227    226    244     1  0.0000000  0.3277016  1
    234    227    226    244     1  180.0000000  6.2144778  2
    234    227    226    244     1  0.0000000  0.3475371  3
    234    227    226    244     1  180.0000000  2.0623258  4
    234    227    228    235     1  180.0000000  13.6752988  2
    235    228    229    248     1  180.0000000  13.6752988  2
    235    236    237    238     1  180.0000000  13.6752988  2
    235    236    237    255     1  180.0000000  13.6752988  2
    235    240    239    238     1  180.0000000  13.6752988  2
    235    240    239    241     1  180.0000000  13.6752988  2
    236    235    240    239     1  180.0000000  13.6752988  2
    236    235    240    257     1  180.0000000  13.6752988  2
    236    237    238    239     1  180.0000000  13.6752988  2
    236    237    238    256     1  180.0000000  13.6752988  2
    237    236    235    240     1  180.0000000  13.6752988  2
    237    238    239    240     1  180.0000000  13.6752988  2
    237    238    239    241     1  180.0000000  13.6752988  2
    238    237    236    254     1  180.0000000  13.6752988  2
    238    239    240    257     1  180.0000000  13.6752988  2
    238    239    241    242     1  0.0000000  0.2144354  1
    238    239    241    242     1  180.0000000  1.2858558  2
    238    239    241    242     1  0.0000000  0.1204628  3
    238    239    241    242     1  180.0000000  0.0486336  4
    238    239    241    243     1  0.0000000  -0.0970197  1
    238    239    241    243     1  180.0000000  -0.2508233  2
    238    239    241    243     1  0.0000000  0.1317265  3
    238    239    241    243     1  180.0000000  0.0220621  4
    238    239    241    258     1  0.0000000  -0.1241755  1
    238    239    241    258     1  180.0000000  -0.9799809  2
    238    239    241    258     1  0.0000000  0.1320141  3
    238    239    241    258     1  180.0000000  0.1840938  4
    239    238    237    255     1  180.0000000  13.6752988  2
    239    241    242    259     1  0.0000000  3.7626531  1
    239    241    242    259     1  180.0000000  2.7460423  2
    239    241    242    259     1  0.0000000  1.1471976  3
    239    241    242    259     1  180.0000000  0.7259066  4
    239    241    242    265     1  0.0000000  -5.2829675  1
    239    241    242    265     1  180.0000000  1.9322644  2
    239    241    242    265     1  0.0000000  -0.7025389  3
    239    241    242    265     1  180.0000000  -0.7088846  4
    239    241    243    260     1  0.0000000  0.6020980  3
    239    241    243    261     1  0.0000000  0.6020980  3
    239    241    243    262     1  0.0000000  0.6020980  3
    240    235    236    254     1  180.0000000  13.6752988  2
    240    239    238    256     1  180.0000000  13.6752988  2
    240    239    241    242     1  0.0000000  0.2144354  1
    240    239    241    242     1  180.0000000  1.2858558  2
    240    239    241    242     1  0.0000000  0.1204628  3
    240    239    241    242     1  180.0000000  0.0486336  4
    240    239    241    243     1  0.0000000  -0.0970197  1
    240    239    241    243     1  180.0000000  -0.2508233  2
    240    239    241    243     1  0.0000000  0.1317265  3
    240    239    241    243     1  180.0000000  0.0220621  4
    240    239    241    258     1  0.0000000  -0.1241755  1
    240    239    241    258     1  180.0000000  -0.9799809  2
    240    239    241    258     1  0.0000000  0.1320141  3
    240    239    241    258     1  180.0000000  0.1840938  4
    241    239    238    256     1  180.0000000  13.6752988  2
    241    239    240    257     1  180.0000000  13.6752988  2
    241    242    265    266     1  0.0000000  -2.0828908  1
    241    242    265    266     1  180.0000000  9.3569096  2
    241    242    265    266     1  0.0000000  0.8396537  3
    241    242    265    266     1  180.0000000  -0.9565265  4
    241    242    265    267     1  0.0000000  1.0104317  1
    241    242    265    267     1  180.0000000  8.6977019  2
    241    242    265    267     1  0.0000000  1.6926907  3
    241    242    265    267     1  180.0000000  2.1756018  4
    242    241    243    260     1  0.0000000  0.6020980  3
    242    241    243    261     1  0.0000000  0.6020980  3
    242    241    243    262     1  0.0000000  0.6020980  3
    242    265    267    268     1  0.0000000  -0.0514420  1
    242    265    267    268     1  180.0000000  4.2608113  2
    242    265    267    268     1  0.0000000  -0.1739481  3
    242    265    267    268     1  180.0000000  0.1215182  4
    242    265    267    289     1  0.0000000  -0.0514420  1
    242    265    267    289     1  180.0000000  4.2608113  2
    242    265    267    289     1  0.0000000  -0.1739481  3
    242    265    267    289     1  180.0000000  0.1215182  4
    243    241    242    259     1  0.0000000  -1.8603561  1
    243    241    242    259     1  180.0000000  0.7624141  2
    243    241    242    259     1  0.0000000  0.7055017  3
    243    241    242    259     1  180.0000000  -0.4799419  4
    243    241    242    265     1  0.0000000  -0.1604797  1
    243    241    242    265     1  180.0000000  0.4088102  2
    243    241    242    265     1  0.0000000  -1.2284377  3
    243    241    242    265     1  180.0000000  0.1802623  4
    244    226    225    247     1  180.0000000  13.6752988  2
    245    223    224    246     1  180.0000000  13.6752988  2
    246    224    225    247     1  180.0000000  13.6752988  2
    252    233    234    253     1  180.0000000  13.6752988  2
    254    236    237    255     1  180.0000000  13.6752988  2
    255    237    238    256     1  180.0000000  13.6752988  2
    258    241    242    259     1  0.0000000  -2.0964046  1
    258    241    242    259     1  180.0000000  0.8037202  2
    258    241    242    259     1  0.0000000  0.9916109  3
    258    241    242    259     1  180.0000000  -0.0310133  4
    258    241    242    265     1  0.0000000  2.5959716  1
    258    241    242    265     1  180.0000000  0.3569788  2
    258    241    242    265     1  0.0000000  0.5014050  3
    258    241    242    265     1  180.0000000  0.2759443  4
    258    241    243    260     1  0.0000000  0.9539296  3
    258    241    243    261     1  0.0000000  0.9539296  3
    258    241    243    262     1  0.0000000  0.9539296  3
    259    242    265    266     1  0.0000000  4.1249202  1
    259    242    265    266     1  180.0000000  5.0164018  2
    259    242    265    266     1  0.0000000  -0.5030933  3
    259    242    265    266     1  180.0000000  -0.9265386  4
    259    242    265    267     1  0.0000000  2.2826199  1
    259    242    265    267     1  180.0000000  9.2080338  2
    259    242    265    267     1  0.0000000  -0.0722131  3
    259    242    265    267     1  180.0000000  1.1383707  4
    263    244    245    264     1  180.0000000  13.6752988  2
    265    267    268    269     1  180.0000000  13.6752988  2
    265    267    268    290     1  180.0000000  13.6752988  2
    265    267    289    288     1  180.0000000  13.6752988  2
    265    267    289    308     1  180.0000000  13.6752988  2
    266    265    267    268     1  0.0000000  0.0402246  1
    266    265    267    268     1  180.0000000  -0.2713295  2
    266    265    267    268     1  0.0000000  0.1630696  3
    266    265    267    268     1  180.0000000  0.3314149  4
    266    265    267    289     1  0.0000000  0.0402246  1
    266    265    267    289     1  180.0000000  -0.2713295  2
    266    265    267    289     1  0.0000000  0.1630696  3
    266    265    267    289     1  180.0000000  0.3314149  4
    267    268    269    270     1  180.0000000  13.6752988  2
    267    268    269    291     1  180.0000000  13.6752988  2
    267    289    288    270     1  180.0000000  13.6752988  2
    267    289    288    307     1  180.0000000  13.6752988  2
    268    267    289    288     1  180.0000000  13.6752988  2
    268    267    289    308     1  180.0000000  13.6752988  2
    268    269    270    271     1  180.0000000  13.6752988  2
    268    269    270    288     1  180.0000000  13.6752988  2
    269    268    267    289     1  180.0000000  13.6752988  2
    269    270    271    272     1  0.0000000  -0.3044739  1
    269    270    271    272     1  180.0000000  5.6385197  2
    269    270    271    272     1  0.0000000  -0.3378759  3
    269    270    271    272     1  180.0000000  -0.3104712  4
    269    270    271    278     1  0.0000000  0.3277016  1
    269    270    271    278     1  180.0000000  6.2144778  2
    269    270    271    278     1  0.0000000  0.3475371  3
    269    270    271    278     1  180.0000000  2.0623258  4
    269    270    288    289     1  180.0000000  13.6752988  2
    269    270    288    307     1  180.0000000  13.6752988  2
    270    269    268    290     1  180.0000000  13.6752988  2
    270    271    272    273     1  180.0000000  13.6752988  2
    270    271    272    279     1  180.0000000  13.6752988  2
    270    271    278    277     1  180.0000000  13.6752988  2
    270    271    278    297     1  180.0000000  13.6752988  2
    270    288    289    308     1  180.0000000  13.6752988  2
    271    270    269    291     1  180.0000000  13.6752988  2
    271    270    288    289     1  180.0000000  13.6752988  2
    271    270    288    307     1  180.0000000  13.6752988  2
    271    272    273    274     1  180.0000000  13.6752988  2
    271    272    273    292     1  180.0000000  13.6752988  2
    271    272    279    280     1  180.0000000  5.1777217  2
    271    272    279    284     1  180.0000000  5.1777217  2
    271    278    277    274     1  180.0000000  13.6752988  2
    271    278    277    296     1  180.0000000  13.6752988  2
    272    271    270    288     1  0.0000000  -0.3044739  1
    272    271    270    288     1  180.0000000  5.6385197  2
    272    271    270    288     1  0.0000000  -0.3378759  3
    272    271    270    288     1  180.0000000  -0.3104712  4
    272    271    278    277     1  180.0000000  13.6752988  2
    272    271    278    297     1  180.0000000  13.6752988  2
    272    273    274    275     1  180.0000000  13.6752988  2
    272    273    274    277     1  180.0000000  13.6752988  2
    272    279    280    281     1  180.0000000  13.6752988  2
    272    279    280    298     1  180.0000000  13.6752988  2
    272    279    284    283     1  180.0000000  13.6752988  2
    272    279    284    301     1  180.0000000  13.6752988  2
    273    272    271    278     1  180.0000000  13.6752988  2
    273    272    279    280     1  180.0000000  5.1777217  2
    273    272    279    284     1  180.0000000  5.1777217  2
    273    274    275    276     1  0.0000000  0.2365974  1
    273    274    275    276     1  180.0000000  9.7407113  2
    273    274    275    276     1  0.0000000  1.1711426  3
    273    274    275    276     1  180.0000000  0.6733615  4
    273    274    277    278     1  180.0000000  13.6752988  2
    273    274    277    296     1  180.0000000  13.6752988  2
    274    273    272    279     1  180.0000000  13.6752988  2
    274    275    276    293     1  0.0000000  1.1008580  3
    274    275    276    294     1  0.0000000  1.1008580  3
    274    275    276    295     1  0.0000000  1.1008580  3
    274    277    278    297     1  180.0000000  13.6752988  2
    275    274    273    292     1  180.0000000  13.6752988  2
    275    274    277    278     1  180.0000000  13.6752988  2
    275    274    277    296     1  180.0000000  13.6752988  2
    276    275    274    277     1  0.0000000  0.2365974  1
    276    275    274    277     1  180.0000000  9.7407113  2
    276    275    274    277     1  0.0000000  1.1711426  3
    276    275    274    277     1  180.0000000  0.6733615  4
    277    274    273    292     1  180.0000000  13.6752988  2
    278    271    270    288     1  0.0000000  0.3277016  1
    278    271    270    288     1  180.0000000  6.2144778  2
    278    271    270    288     1  0.0000000  0.3475371  3
    278    271    270    288     1  180.0000000  2.0623258  4
    278    271    272    279     1  180.0000000  13.6752988  2
    279    272    273    292     1  180.0000000  13.6752988  2
    279    280    281    282     1  180.0000000  13.6752988  2
    279    280    281    299     1  180.0000000  13.6752988  2
    279    284    283    282     1  180.0000000  13.6752988  2
    279    284    283    285     1  180.0000000  13.6752988  2
    280    279    284    283     1  180.0000000  13.6752988  2
    280    279    284    301     1  180.0000000  13.6752988  2
    280    281    282    283     1  180.0000000  13.6752988  2
    280    281    282    300     1  180.0000000  13.6752988  2
    281    280    279    284     1  180.0000000  13.6752988  2
    281    282    283    284     1  180.0000000  13.6752988  2
    281    282    283    285     1  180.0000000  13.6752988  2
    282    281    280    298     1  180.0000000  13.6752988  2
    282    283    284    301     1  180.0000000  13.6752988  2
    282    283    285    286     1  0.0000000  0.2144354  1
    282    283    285    286     1  180.0000000  1.2858558  2
    282    283    285    286     1  0.0000000  0.1204628  3
    282    283    285    286     1  180.0000000  0.0486336  4
    282    283    285    287     1  0.0000000  -0.0970197  1
    282    283    285    287     1  180.0000000  -0.2508233  2
    282    283    285    287     1  0.0000000  0.1317265  3
    282    283    285    287     1  180.0000000  0.0220621  4
    282    283    285    302     1  0.0000000  -0.1241755  1
    282    283    285    302     1  180.0000000  -0.9799809  2
    282    283    285    302     1  0.0000000  0.1320141  3
    282    283    285    302     1  180.0000000  0.1840938  4
    283    282    281    299     1  180.0000000  13.6752988  2
    283    285    286    303     1  0.0000000  3.7626531  1
    283    285    286    303     1  180.0000000  2.7460423  2
    283    285    286    303     1  0.0000000  1.1471976  3
    283    285    286    303     1  180.0000000  0.7259066  4
    283    285    286    309     1  0.0000000  -5.2829675  1
    283    285    286    309     1  180.0000000  1.9322644  2
    283    285    286    309     1  0.0000000  -0.7025389  3
    283    285    286    309     1  180.0000000  -0.7088846  4
    283    285    287    304     1  0.0000000  0.6020980  3
    283    285    287    305     1  0.0000000  0.6020980  3
    283    285    287    306     1  0.0000000  0.6020980  3
    284    279    280    298     1  180.0000000  13.6752988  2
    284    283    282    300     1  180.0000000  13.6752988  2
    284    283    285    286     1  0.0000000  0.2144354  1
    284    283    285    286     1  180.0000000  1.2858558  2
    284    283    285    286     1  0.0000000  0.1204628  3
    284    283    285    286     1  180.0000000  0.0486336  4
    284    283    285    287     1  0.0000000  -0.0970197  1
    284    283    285    287     1  180.0000000  -0.2508233  2
    284    283    285    287     1  0.0000000  0.1317265  3
    284    283    285    287     1  180.0000000  0.0220621  4
    284    283    285    302     1  0.0000000  -0.1241755  1
    284    283    285    302     1  180.0000000  -0.9799809  2
    284    283    285    302     1  0.0000000  0.1320141  3
    284    283    285    302     1  180.0000000  0.1840938  4
    285    283    282    300     1  180.0000000  13.6752988  2
    285    283    284    301     1  180.0000000  13.6752988  2
    285    286    309    310     1  0.0000000  -2.0828908  1
    285    286    309    310     1  180.0000000  9.3569096  2
    285    286    309    310     1  0.0000000  0.8396537  3
    285    286    309    310     1  180.0000000  -0.9565265  4
    285    286    309    311     1  0.0000000  1.0104317  1
    285    286    309    311     1  180.0000000  8.6977019  2
    285    286    309    311     1  0.0000000  1.6926907  3
    285    286    309    311     1  180.0000000  2.1756018  4
    286    285    287    304     1  0.0000000  0.6020980  3
    286    285    287    305     1  0.0000000  0.6020980  3
    286    285    287    306     1  0.0000000  0.6020980  3
    286    309    311    312     1  0.0000000  -0.0514420  1
    286    309    311    312     1  180.0000000  4.2608113  2
    286    309    311    312     1  0.0000000  -0.1739481  3
    286    309    311    312     1  180.0000000  0.1215182  4
    286    309    311    333     1  0.0000000  -0.0514420  1
    286    309    311    333     1  180.0000000  4.2608113  2
    286    309    311    333     1  0.0000000  -0.1739481  3
    286    309    311    333     1  180.0000000  0.1215182  4
    287    285    286    303     1  0.0000000  -1.8603561  1
    287    285    286    303     1  180.0000000  0.7624141  2
    287    285    286    303     1  0.0000000  0.7055017  3
    287    285    286    303     1  180.0000000  -0.4799419  4
    287    285    286    309     1  0.0000000  -0.1604797  1
    287    285    286    309     1  180.0000000  0.4088102  2
    287    285    286    309     1  0.0000000  -1.2284377  3
    287    285    286    309     1  180.0000000  0.1802623  4
    288    270    269    291     1  180.0000000  13.6752988  2
    289    267    268    290     1  180.0000000  13.6752988  2
    290    268    269    291     1  180.0000000  13.6752988  2
    296    277    278    297     1  180.0000000  13.6752988  2
    298    280    281    299     1  180.0000000  13.6752988  2
    299    281    282    300     1  180.0000000  13.6752988  2
    302    285    286    303     1  0.0000000  -2.0964046  1
    302    285    286    303     1  180.0000000  0.8037202  2
    302    285    286    303     1  0.0000000  0.9916109  3
    302    285    286    303     1  180.0000000  -0.0310133  4
    302    285    286    309     1  0.0000000  2.5959716  1
    302    285    286    309     1  180.0000000  0.3569788  2
    302    285    286    309     1  0.0000000  0.5014050  3
    302    285    286    309     1  180.0000000  0.2759443  4
    302    285    287    304     1  0.0000000  0.9539296  3
    302    285    287    305     1  0.0000000  0.9539296  3
    302    285    287    306     1  0.0000000  0.9539296  3
    303    286    309    310     1  0.0000000  4.1249202  1
    303    286    309    310     1  180.0000000  5.0164018  2
    303    286    309    310     1  0.0000000  -0.5030933  3
    303    286    309    310     1  180.0000000  -0.9265386  4
    303    286    309    311     1  0.0000000  2.2826199  1
    303    286    309    311     1  180.0000000  9.2080338  2
    303    286    309    311     1  0.0000000  -0.0722131  3
    303    286    309    311     1  180.0000000  1.1383707  4
    307    288    289    308     1  180.0000000  13.6752988  2
    309    311    312    313     1  180.0000000  13.6752988  2
    309    311    312    334     1  180.0000000  13.6752988  2
    309    311    333    332     1  180.0000000  13.6752988  2
    309    311    333    352     1  180.0000000  13.6752988  2
    310    309    311    312     1  0.0000000  0.0402246  1
    310    309    311    312     1  180.0000000  -0.2713295  2
    310    309    311    312     1  0.0000000  0.1630696  3
    310    309    311    312     1  180.0000000  0.3314149  4
    310    309    311    333     1  0.0000000  0.0402246  1
    310    309    311    333     1  180.0000000  -0.2713295  2
    310    309    311    333     1  0.0000000  0.1630696  3
    310    309    311    333     1  180.0000000  0.3314149  4
    311    312    313    314     1  180.0000000  13.6752988  2
    311    312    313    335     1  180.0000000  13.6752988  2
    311    333    332    314     1  180.0000000  13.6752988  2
    311    333    332    351     1  180.0000000  13.6752988  2
    312    311    333    332     1  180.0000000  13.6752988  2
    312    311    333    352     1  180.0000000  13.6752988  2
    312    313    314    315     1  180.0000000  13.6752988  2
    312    313    314    332     1  180.0000000  13.6752988  2
    313    312    311    333     1  180.0000000  13.6752988  2
    313    314    315    316     1  0.0000000  -0.3044739  1
    313    314    315    316     1  180.0000000  5.6385197  2
    313    314    315    316     1  0.0000000  -0.3378759  3
    313    314    315    316     1  180.0000000  -0.3104712  4
    313    314    315    322     1  0.0000000  0.3277016  1
    313    314    315    322     1  180.0000000  6.2144778  2
    313    314    315    322     1  0.0000000  0.3475371  3
    313    314    315    322     1  180.0000000  2.0623258  4
    313    314    332    333     1  180.0000000  13.6752988  2
    313    314    332    351     1  180.0000000  13.6752988  2
    314    313    312    334     1  180.0000000  13.6752988  2
    314    315    316    317     1  180.0000000  13.6752988  2
    314    315    316    323     1  180.0000000  13.6752988  2
    314    315    322    321     1  180.0000000  13.6752988  2
    314    315    322    341     1  180.0000000  13.6752988  2
    314    332    333    352     1  180.0000000  13.6752988  2
    315    314    313    335     1  180.0000000  13.6752988  2
    315    314    332    333     1  180.0000000  13.6752988  2
    315    314    332    351     1  180.0000000  13.6752988  2
    315    316    317    318     1  180.0000000  13.6752988  2
    315    316    317    336     1  180.0000000  13.6752988  2
    315    316    323    324     1  180.0000000  5.1777217  2
    315    316    323    328     1  180.0000000  5.1777217  2
    315    322    321    318     1  180.0000000  13.6752988  2
    315    322    321    340     1  180.0000000  13.6752988  2
    316    315    314    332     1  0.0000000  -0.3044739  1
    316    315    314    332     1  180.0000000  5.6385197  2
    316    315    314    332     1  0.0000000  -0.3378759  3
    316    315    314    332     1  180.0000000  -0.3104712  4
    316    315    322    321     1  180.0000000  13.6752988  2
    316    315    322    341     1  180.0000000  13.6752988  2
    316    317    318    319     1  180.0000000  13.6752988  2
    316    317    318    321     1  180.0000000  13.6752988  2
    316    323    324    325     1  180.0000000  13.6752988  2
    316    323    324    342     1  180.0000000  13.6752988  2
    316    323    328    327     1  180.0000000  13.6752988  2
    316    323    328    345     1  180.0000000  13.6752988  2
    317    316    315    322     1  180.0000000  13.6752988  2
    317    316    323    324     1  180.0000000  5.1777217  2
    317    316    323    328     1  180.0000000  5.1777217  2
    317    318    319    320     1  0.0000000  0.2365974  1
    317    318    319    320     1  180.0000000  9.7407113  2
    317    318    319    320     1  0.0000000  1.1711426  3
    317    318    319    320     1  180.0000000  0.6733615  4
    317    318    321    322     1  180.0000000  13.6752988  2
    317    318    321    340     1  180.0000000  13.6752988  2
    318    317    316    323     1  180.0000000  13.6752988  2
    318    319    320    337     1  0.0000000  1.1008580  3
    318    319    320    338     1  0.0000000  1.1008580  3
    318    319    320    339     1  0.0000000  1.1008580  3
    318    321    322    341     1  180.0000000  13.6752988  2
    319    318    317    336     1  180.0000000  13.6752988  2
    319    318    321    322     1  180.0000000  13.6752988  2
    319    318    321    340     1  180.0000000  13.6752988  2
    320    319    318    321     1  0.0000000  0.2365974  1
    320    319    318    321     1  180.0000000  9.7407113  2
    320    319    318    321     1  0.0000000  1.1711426  3
    320    319    318    321     1  180.0000000  0.6733615  4
    321    318    317    336     1  180.0000000  13.6752988  2
    322    315    314    332     1  0.0000000  0.3277016  1
    322    315    314    332     1  180.0000000  6.2144778  2
    322    315    314    332     1  0.0000000  0.3475371  3
    322    315    314    332     1  180.0000000  2.0623258  4
    322    315    316    323     1  180.0000000  13.6752988  2
    323    316    317    336     1  180.0000000  13.6752988  2
    323    324    325    326     1  180.0000000  13.6752988  2
    323    324    325    343     1  180.0000000  13.6752988  2
    323    328    327    326     1  180.0000000  13.6752988  2
    323    328    327    329     1  180.0000000  13.6752988  2
    324    323    328    327     1  180.0000000  13.6752988  2
    324    323    328    345     1  180.0000000  13.6752988  2
    324    325    326    327     1  180.0000000  13.6752988  2
    324    325    326    344     1  180.0000000  13.6752988  2
    325    324    323    328     1  180.0000000  13.6752988  2
    325    326    327    328     1  180.0000000  13.6752988  2
    325    326    327    329     1  180.0000000  13.6752988  2
    326    325    324    342     1  180.0000000  13.6752988  2
    326    327    328    345     1  180.0000000  13.6752988  2
    326    327    329    330     1  0.0000000  0.1583980  1
    326    327    329    330     1  180.0000000  0.9878326  2
    326    327    329    330     1  0.0000000  0.3135170  3
    326    327    329    330     1  180.0000000  0.0998901  4
    326    327    329    331     1  0.0000000  -0.0685719  1
    326    327    329    331     1  180.0000000  0.0163110  2
    326    327    329    331     1  0.0000000  0.3158072  3
    326    327    329    331     1  180.0000000  0.1173288  4
    326    327    329    346     1  0.0000000  -0.0957281  1
    326    327    329    346     1  180.0000000  -0.7316174  2
    326    327    329    346     1  0.0000000  0.3195737  3
    326    327    329    346     1  180.0000000  0.2320354  4
    327    326    325    343     1  180.0000000  13.6752988  2
    327    329    330    347     1  0.0000000  2.6176068  1
    327    329    330    347     1  180.0000000  1.9459166  2
    327    329    330    347     1  0.0000000  0.9442926  3
    327    329    330    347     1  180.0000000  0.3680029  4
    327    329    330    363     1  0.0000000  -4.2679585  1
    327    329    330    363     1  180.0000000  1.9707127  2
    327    329    330    363     1  0.0000000  -0.9121059  3
    327    329    330    363     1  180.0000000  -0.3206260  4
    327    329    331    348     1  0.0000000  0.6020980  3
    327    329    331    349     1  0.0000000  0.6020980  3
    327    329    331    350     1  0.0000000  0.6020980  3
    328    323    324    342     1  180.0000000  13.6752988  2
    328    327    326    344     1  180.0000000  13.6752988  2
    328    327    329    330     1  0.0000000  0.1583980  1
    328    327    329    330     1  180.0000000  0.9878326  2
    328    327    329    330     1  0.0000000  0.3135170  3
    328    327    329    330     1  180.0000000  0.0998901  4
    328    327    329    331     1  0.0000000  -0.0685719  1
    328    327    329    331     1  180.0000000  0.0163110  2
    328    327    329    331     1  0.0000000  0.3158072  3
    328    327    329    331     1  180.0000000  0.1173288  4
    328    327    329    346     1  0.0000000  -0.0957281  1
    328    327    329    346     1  180.0000000  -0.7316174  2
    328    327    329    346     1  0.0000000  0.3195737  3
    328    327    329    346     1  180.0000000  0.2320354  4
    329    327    326    344     1  180.0000000  13.6752988  2
    329    327    328    345     1  180.0000000  13.6752988  2
    329    330    363    362     1  0.0000000  1.0162917  1
    329    330    363    362     1  180.0000000  8.7957312  2
    329    330    363    362     1  0.0000000  0.0471698  3
    329    330    363    362     1  180.0000000  -0.9728810  4
    329    330    363    364     1  0.0000000  1.1896318  1
    329    330    363    364     1  180.0000000  8.3263709  2
    329    330    363    364     1  0.0000000  1.4359908  3
    329    330    363    364     1  180.0000000  -1.2090571  4
    330    329    331    348     1  0.0000000  0.6020980  3
    330    329    331    349     1  0.0000000  0.6020980  3
    330    329    331    350     1  0.0000000  0.6020980  3
    330    363    362    359     1  0.0000000  1.7423672  1
    330    363    362    359     1  180.0000000  18.4810853  2
    330    363    362    359     1  0.0000000  -0.1787224  3
    330    363    362    359     1  180.0000000  1.8993397  4
    331    329    330    347     1  0.0000000  -2.0058679  1
    331    329    330    347     1  180.0000000  1.5045787  2
    331    329    330    347     1  0.0000000  1.2107589  3
    331    329    330    347     1  180.0000000  0.0427565  4
    331    329    330    363     1  0.0000000  -0.7561745  1
    331    329    330    363     1  180.0000000  -0.0239389  2
    331    329    330    363     1  0.0000000  -1.3734441  3
    331    329    330    363     1  180.0000000  -0.5105771  4
    332    314    313    335     1  180.0000000  13.6752988  2
    333    311    312    334     1  180.0000000  13.6752988  2
    334    312    313    335     1  180.0000000  13.6752988  2
    340    321    322    341     1  180.0000000  13.6752988  2
    342    324    325    343     1  180.0000000  13.6752988  2
    343    325    326    344     1  180.0000000  13.6752988  2
    346    329    330    347     1  0.0000000  -0.7441677  1
    346    329    330    347     1  180.0000000  0.8056331  2
    346    329    330    347     1  0.0000000  1.0048610  3
    346    329    330    347     1  180.0000000  -0.9364059  4
    346    329    330    363     1  0.0000000  2.1693067  1
    346    329    330    363     1  180.0000000  0.7172291  2
    346    329    330    363     1  0.0000000  0.2496756  3
    346    329    330    363     1  180.0000000  0.5229752  4
    346    329    331    348     1  0.0000000  0.9539296  3
    346    329    331    349     1  0.0000000  0.9539296  3
    346    329    331    350     1  0.0000000  0.9539296  3
    347    330    363    362     1  0.0000000  1.8901708  1
    347    330    363    362     1  180.0000000  8.3574844  2
    347    330    363    362     1  0.0000000  -0.0027464  3
    347    330    363    362     1  180.0000000  -1.6861841  4
    347    330    363    364     1  0.0000000  4.8421700  1
    347    330    363    364     1  180.0000000  1.6120031  2
    347    330    363    364     1  0.0000000  1.1446311  3
    347    330    363    364     1  180.0000000  -1.6618007  4
    351    332    333    352     1  180.0000000  13.6752988  2
    358    359    360    368     1  0.0000000  0.4122821  3
    358    359    360    369     1  0.0000000  0.4122821  3
    358    359    360    370     1  0.0000000  0.4122821  3
    358    359    361    371     1  0.0000000  0.4122821  3
    358    359    361    372     1  0.0000000  0.4122821  3
    358    359    361    373     1  0.0000000  0.4122821  3
    358    359    362    363     1  0.0000000  1.5850797  1
    358    359    362    363     1  180.0000000  0.1267765  2
    358    359    362    363     1  0.0000000  -1.7557478  3
    358    359    362    363     1  180.0000000  1.3121799  4
    359    362    363    364     1  0.0000000  3.8925064  1
    359    362    363    364     1  180.0000000  4.7178394  2
    359    362    363    364     1  0.0000000  0.5862548  3
    359    362    363    364     1  180.0000000  0.7994919  4
    360    359    358    365     1  0.0000000  0.4122821  3
    360    359    358    366     1  0.0000000  0.4122821  3
    360    359    358    367     1  0.0000000  0.4122821  3
    360    359    361    371     1  0.0000000  0.4122821  3
    360    359    361    372     1  0.0000000  0.4122821  3
    360    359    361    373     1  0.0000000  0.4122821  3
    360    359    362    363     1  0.0000000  1.5850797  1
    360    359    362    363     1  180.0000000  0.1267765  2
    360    359    362    363     1  0.0000000  -1.7557478  3
    360    359    362    363     1  180.0000000  1.3121799  4
    361    359    358    365     1  0.0000000  0.4122821  3
    361    359    358    366     1  0.0000000  0.4122821  3
    361    359    358    367     1  0.0000000  0.4122821  3
    361    359    360    368     1  0.0000000  0.4122821  3
    361    359    360    369     1  0.0000000  0.4122821  3
    361    359    360    370     1  0.0000000  0.4122821  3
    361    359    362    363     1  0.0000000  1.5850797  1
    361    359    362    363     1  180.0000000  0.1267765  2
    361    359    362    363     1  0.0000000  -1.7557478  3
    361    359    362    363     1  180.0000000  1.3121799  4
    362    359    358    365     1  0.0000000  0.5486676  3
    362    359    358    365     1  0.0000000  1.8265113  1
    362    359    358    366     1  0.0000000  0.5486676  3
    362    359    358    366     1  0.0000000  1.8265113  1
    362    359    358    367     1  0.0000000  0.5486676  3
    362    359    358    367     1  0.0000000  1.8265113  1
    362    359    360    368     1  0.0000000  0.5486676  3
    362    359    360    368     1  0.0000000  1.8265113  1
    362    359    360    369     1  0.0000000  0.5486676  3
    362    359    360    369     1  0.0000000  1.8265113  1
    362    359    360    370     1  0.0000000  0.5486676  3
    362    359    360    370     1  0.0000000  1.8265113  1
    362    359    361    371     1  0.0000000  0.5486676  3
    362    359    361    371     1  0.0000000  1.8265113  1
    362    359    361    372     1  0.0000000  0.5486676  3
    362    359    361    372     1  0.0000000  1.8265113  1
    362    359    361    373     1  0.0000000  0.5486676  3
    362    359    361    373     1  0.0000000  1.8265113  1
    152    147    151    169     4  180.0000000  7.2952092  2
     66     83     89     65     4  180.0000000  1.7520674  2
    102     95    101    121     4  180.0000000  7.2952092  2
     57     58     76     54     4  180.0000000  7.2952092  2
    282    281    283    300     4  180.0000000  7.2952092  2
    183    182    184    190     4  180.0000000  7.2952092  2
    245    244    264    223     4  180.0000000  7.2952092  2
    135    136    157    133     4  180.0000000  7.2952092  2
    318    317    319    321     4  180.0000000  7.2952092  2
    182    183    200    181     4  180.0000000  7.2952092  2
     13     10     14     32     4  180.0000000  7.2952092  2
     93     92     94    115     4  180.0000000  7.2952092  2
    108    125    103    107     4  180.0000000  7.2952092  2
    325    326    343    324     4  180.0000000  7.2952092  2
    227    228    234    226     4  180.0000000  7.2952092  2
    194    212    193    195     4  180.0000000  7.2952092  2
     14     33      7     13     4  180.0000000  7.2952092  2
    318    319    321    317     4  180.0000000  7.2952092  2
    240    235    239    257     4  180.0000000  7.2952092  2
    112    131     94    113     4  180.0000000  7.2952092  2
    315    322    314    316     4  180.0000000  7.2952092  2
    267    268    289    265     4  180.0000000  7.2952092  2
    326    325    327    344     4  180.0000000  7.2952092  2
    272    279    271    273     4  180.0000000  7.2952092  2
    110    127    133    109     4  180.0000000  1.7520674  2
    148    147    149    166     4  180.0000000  7.2952092  2
     50     68     49     51     4  180.0000000  7.2952092  2
    148    166    147    149     4  180.0000000  7.2952092  2
    236    235    237    254     4  180.0000000  7.2952092  2
    191    184    192    196     4  180.0000000  7.2952092  2
    318    321    317    319     4  180.0000000  7.2952092  2
    195    197    194    196     4  180.0000000  7.2952092  2
    105    104    106    123     4  180.0000000  7.2952092  2
    137    138    159    136     4  180.0000000  7.2952092  2
    151    150    152    153     4  180.0000000  7.2952092  2
     62     63     80     61     4  180.0000000  7.2952092  2
    271    270    272    278     4  180.0000000  7.2952092  2
    139    146    138    140     4  180.0000000  7.2952092  2
    245    264    223    244     4  180.0000000  7.2952092  2
      5      4      6     27     4  180.0000000  7.2952092  2
     13     32     10     14     4  180.0000000  7.2952092  2
    288    270    289    307     4  180.0000000  7.2952092  2
    102    121     95    101     4  180.0000000  7.2952092  2
    145    146    164    142     4  180.0000000  7.2952092  2
    185    204    184    186     4  180.0000000  7.2952092  2
    184    183    185    191     4  180.0000000  7.2952092  2
    224    225    246    223     4  180.0000000  7.2952092  2
    235    240    228    236     4  180.0000000  7.2952092  2
    179    180    201    177     4  180.0000000  7.2952092  2
      3      4     25      1     4  180.0000000  7.2952092  2
    221    198    222    223     4  180.0000000  7.2952092  2
     95    102     94     96     4  180.0000000  7.2952092  2
    183    184    190    182     4  180.0000000  7.2952092  2
     47     48     69     45     4  180.0000000  7.2952092  2
    110    109    127    133     4  180.0000000  1.7520674  2
    229    230    248    228     4  180.0000000  7.2952092  2
    281    299    280    282     4  180.0000000  7.2952092  2
    138    139    156    137     4  180.0000000  7.2952092  2
    286    309    285    303     4  180.0000000  1.7520674  2
     49     71     48     50     4  180.0000000  7.2952092  2
     10      9     11     13     4  180.0000000  7.2952092  2
    229    228    230    248     4  180.0000000  7.2952092  2
    244    263    226    245     4  180.0000000  7.2952092  2
    278    297    271    277     4  180.0000000  7.2952092  2
    268    269    290    267     4  180.0000000  7.2952092  2
    142    145    141    143     4  180.0000000  7.2952092  2
    189    186    190    208     4  180.0000000  7.2952092  2
    273    272    274    292     4  180.0000000  7.2952092  2
    103    108     96    104     4  180.0000000  7.2952092  2
    101     98    102    120     4  180.0000000  7.2952092  2
      4     26      3      5     4  180.0000000  7.2952092  2
    192    193    210    191     4  180.0000000  7.2952092  2
    312    334    311    313     4  180.0000000  7.2952092  2
    150    149    151    168     4  180.0000000  7.2952092  2
    311    333    309    312     4  180.0000000  7.2952092  2
    311    312    333    309     4  180.0000000  7.2952092  2
    221    223    198    222     4  180.0000000  7.2952092  2
    225    224    226    247     4  180.0000000  7.2952092  2
    281    280    282    299     4  180.0000000  7.2952092  2
    107    108    109    106     4  180.0000000  7.2952092  2
    181    182    203    180     4  180.0000000  7.2952092  2
    154    177    153    171     4  180.0000000  1.7520674  2
    200    182    201    219     4  180.0000000  7.2952092  2
    191    196    184    192     4  180.0000000  7.2952092  2
    133    134    135    110     4  180.0000000  7.2952092  2
     97     96     98    116     4  180.0000000  7.2952092  2
    315    314    316    322     4  180.0000000  7.2952092  2
    192    191    193    210     4  180.0000000  7.2952092  2
     61     79     60     62     4  180.0000000  7.2952092  2
    313    335    312    314     4  180.0000000  7.2952092  2
    135    157    133    136     4  180.0000000  7.2952092  2
    230    233    229    231     4  180.0000000  7.2952092  2
    104    105    122    103     4  180.0000000  7.2952092  2
    267    289    265    268     4  180.0000000  7.2952092  2
     98    101     97     99     4  180.0000000  7.2952092  2
    309    310    311    286     4  180.0000000  7.2952092  2
    283    285    282    284     4  180.0000000  7.2952092  2
    244    226    245    263     4  180.0000000  7.2952092  2
    269    268    270    291     4  180.0000000  7.2952092  2
    190    183    189    209     4  180.0000000  7.2952092  2
     15     20      8     16     4  180.0000000  7.2952092  2
    154    153    171    177     4  180.0000000  1.7520674  2
    333    311    332    352     4  180.0000000  7.2952092  2
    277    278    296    274     4  180.0000000  7.2952092  2
     45     47     22     46     4  180.0000000  7.2952092  2
     62     80     61     63     4  180.0000000  7.2952092  2
    233    230    234    252     4  180.0000000  7.2952092  2
     19     21     18     20     4  180.0000000  7.2952092  2
    278    271    277    297     4  180.0000000  7.2952092  2
    281    282    299    280     4  180.0000000  7.2952092  2
    103    104    108     96     4  180.0000000  7.2952092  2
     17     35     16     18     4  180.0000000  7.2952092  2
    242    241    259    265     4  180.0000000  1.7520674  2
      9     10     28      8     4  180.0000000  7.2952092  2
    180    181    202    179     4  180.0000000  7.2952092  2
    102    101    121     95     4  180.0000000  7.2952092  2
    105    106    123    104     4  180.0000000  7.2952092  2
    283    282    284    285     4  180.0000000  7.2952092  2
    139    140    146    138     4  180.0000000  7.2952092  2
    201    179    200    220     4  180.0000000  7.2952092  2
      6     24      5      7     4  180.0000000  7.2952092  2
    142    143    145    141     4  180.0000000  7.2952092  2
    150    168    149    151     4  180.0000000  7.2952092  2
    229    248    228    230     4  180.0000000  7.2952092  2
    179    201    177    180     4  180.0000000  7.2952092  2
    104    103    105    122     4  180.0000000  7.2952092  2
    113    132     91    112     4  180.0000000  7.2952092  2
     97     98    116     96     4  180.0000000  7.2952092  2
     95     94     96    102     4  180.0000000  7.2952092  2
    328    345    323    327     4  180.0000000  7.2952092  2
     89     91     66     90     4  180.0000000  7.2952092  2
    101    120     98    102     4  180.0000000  7.2952092  2
    108    103    107    125     4  180.0000000  7.2952092  2
     13     14     32     10     4  180.0000000  7.2952092  2
    268    290    267    269     4  180.0000000  7.2952092  2
    330    363    329    347     4  180.0000000  1.7520674  2
    233    252    230    234     4  180.0000000  7.2952092  2
    200    201    219    182     4  180.0000000  7.2952092  2
    195    194    196    197     4  180.0000000  7.2952092  2
    327    329    326    328     4  180.0000000  7.2952092  2
    190    189    209    183     4  180.0000000  7.2952092  2
    146    145    165    139     4  180.0000000  7.2952092  2
     20     37     15     19     4  180.0000000  7.2952092  2
    326    327    344    325     4  180.0000000  7.2952092  2
    274    273    275    277     4  180.0000000  7.2952092  2
     49     50     71     48     4  180.0000000  7.2952092  2
    224    223    225    246     4  180.0000000  7.2952092  2
     63     65     62     64     4  180.0000000  7.2952092  2
    271    272    278    270     4  180.0000000  7.2952092  2
    191    192    196    184     4  180.0000000  7.2952092  2
    140    147    139    141     4  180.0000000  7.2952092  2
     63     64     65     62     4  180.0000000  7.2952092  2
      4      3      5     26     4  180.0000000  7.2952092  2
     60     61     78     59     4  180.0000000  7.2952092  2
     22     21     39     45     4  180.0000000  1.7520674  2
    181    203    180    182     4  180.0000000  7.2952092  2
    133    135    110    134     4  180.0000000  7.2952092  2
    272    271    273    279     4  180.0000000  7.2952092  2
     96     97    103     95     4  180.0000000  7.2952092  2
    201    200    220    179     4  180.0000000  7.2952092  2
     52     59     51     53     4  180.0000000  7.2952092  2
    196    213    191    195     4  180.0000000  7.2952092  2
     66     89     65     83     4  180.0000000  1.7520674  2
    186    189    185    187     4  180.0000000  7.2952092  2
    190    209    183    189     4  180.0000000  7.2952092  2
    314    313    315    332     4  180.0000000  7.2952092  2
    151    152    153    150     4  180.0000000  7.2952092  2
    321    318    322    340     4  180.0000000  7.2952092  2
    228    229    235    227     4  180.0000000  7.2952092  2
      7      6      8     14     4  180.0000000  7.2952092  2
    180    202    179    181     4  180.0000000  7.2952092  2
    322    341    315    321     4  180.0000000  7.2952092  2
     18     17     19     36     4  180.0000000  7.2952092  2
     53     54     72     52     4  180.0000000  7.2952092  2
      7      8     14      6     4  180.0000000  7.2952092  2
     58     77     51     57     4  180.0000000  7.2952092  2
    198    215    221    197     4  180.0000000  1.7520674  2
    225    226    247    224     4  180.0000000  7.2952092  2
    268    267    269    290     4  180.0000000  7.2952092  2
    186    187    189    185     4  180.0000000  7.2952092  2
    180    179    181    202     4  180.0000000  7.2952092  2
    141    140    142    160     4  180.0000000  7.2952092  2
    330    347    363    329     4  180.0000000  1.7520674  2
     48     49     70     47     4  180.0000000  7.2952092  2
     93    115     92     94     4  180.0000000  7.2952092  2
    192    210    191    193     4  180.0000000  7.2952092  2
     45     46     47     22     4  180.0000000  7.2952092  2
    328    323    327    345     4  180.0000000  7.2952092  2
     14      7     13     33     4  180.0000000  7.2952092  2
    156    157    175    138     4  180.0000000  7.2952092  2
    224    246    223    225     4  180.0000000  7.2952092  2
     94     95    112     93     4  180.0000000  7.2952092  2
      5      6     27      4     4  180.0000000  7.2952092  2
    140    141    147    139     4  180.0000000  7.2952092  2
      4      5     26      3     4  180.0000000  7.2952092  2
    184    191    183    185     4  180.0000000  7.2952092  2
     96     95     97    103     4  180.0000000  7.2952092  2
    239    238    240    241     4  180.0000000  7.2952092  2
    150    151    168    149     4  180.0000000  7.2952092  2
    149    148    150    167     4  180.0000000  7.2952092  2
    237    238    255    236     4  180.0000000  7.2952092  2
    141    142    160    140     4  180.0000000  7.2952092  2
    107    106    108    109     4  180.0000000  7.2952092  2
    238    239    256    237     4  180.0000000  7.2952092  2
    317    316    318    336     4  180.0000000  7.2952092  2
    315    316    322    314     4  180.0000000  7.2952092  2
     69     47     68     88     4  180.0000000  7.2952092  2
     92    114     91     93     4  180.0000000  7.2952092  2
    185    186    204    184     4  180.0000000  7.2952092  2
     98     99    101     97     4  180.0000000  7.2952092  2
    200    219    182    201     4  180.0000000  7.2952092  2
    277    296    274    278     4  180.0000000  7.2952092  2
    316    317    323    315     4  180.0000000  7.2952092  2
     20     15     19     37     4  180.0000000  7.2952092  2
     17     16     18     35     4  180.0000000  7.2952092  2
    327    326    328    329     4  180.0000000  7.2952092  2
    145    164    142    146     4  180.0000000  7.2952092  2
     22     45     21     39     4  180.0000000  1.7520674  2
    103     96    104    108     4  180.0000000  7.2952092  2
    322    321    341    315     4  180.0000000  7.2952092  2
     91    113     89     92     4  180.0000000  7.2952092  2
    141    160    140    142     4  180.0000000  7.2952092  2
    327    328    329    326     4  180.0000000  7.2952092  2
     24      6     25     43     4  180.0000000  7.2952092  2
    321    322    340    318     4  180.0000000  7.2952092  2
     91     89     92    113     4  180.0000000  7.2952092  2
     96    103     95     97     4  180.0000000  7.2952092  2
    137    159    136    138     4  180.0000000  7.2952092  2
    226    227    244    225     4  180.0000000  7.2952092  2
    142    141    143    145     4  180.0000000  7.2952092  2
    227    226    228    234     4  180.0000000  7.2952092  2
    267    265    268    289     4  180.0000000  7.2952092  2
     57     54     58     76     4  180.0000000  7.2952092  2
     24     25     43      6     4  180.0000000  7.2952092  2
    239    241    238    240     4  180.0000000  7.2952092  2
    147    148    152    140     4  180.0000000  7.2952092  2
    311    309    312    333     4  180.0000000  7.2952092  2
    106    124    105    107     4  180.0000000  7.2952092  2
    230    231    233    229     4  180.0000000  7.2952092  2
    313    312    314    335     4  180.0000000  7.2952092  2
     91     92    113     89     4  180.0000000  7.2952092  2
     92     93    114     91     4  180.0000000  7.2952092  2
     97    116     96     98     4  180.0000000  7.2952092  2
    233    234    252    230     4  180.0000000  7.2952092  2
     54     55     57     53     4  180.0000000  7.2952092  2
    145    142    146    164     4  180.0000000  7.2952092  2
    194    193    195    212     4  180.0000000  7.2952092  2
     18     19     36     17     4  180.0000000  7.2952092  2
    156    138    157    175     4  180.0000000  7.2952092  2
    189    208    186    190     4  180.0000000  7.2952092  2
     58     51     57     77     4  180.0000000  7.2952092  2
     48     47     49     70     4  180.0000000  7.2952092  2
    324    342    323    325     4  180.0000000  7.2952092  2
     49     48     50     71     4  180.0000000  7.2952092  2
      1      3    354      2     4  180.0000000  18.0130916  2
    147    140    148    152     4  180.0000000  7.2952092  2
    234    227    233    253     4  180.0000000  7.2952092  2
    183    190    182    184     4  180.0000000  7.2952092  2
    280    281    298    279     4  180.0000000  7.2952092  2
    147    152    140    148     4  180.0000000  7.2952092  2
    177    179    154    178     4  180.0000000  7.2952092  2
     60     78     59     61     4  180.0000000  7.2952092  2
     61     60     62     79     4  180.0000000  7.2952092  2
    314    332    313    315     4  180.0000000  7.2952092  2
     68     69     87     50     4  180.0000000  7.2952092  2
    221    222    223    198     4  180.0000000  7.2952092  2
    226    244    225    227     4  180.0000000  7.2952092  2
    236    237    254    235     4  180.0000000  7.2952092  2
     89     66     90     91     4  180.0000000  7.2952092  2
    228    227    229    235     4  180.0000000  7.2952092  2
    148    149    166    147     4  180.0000000  7.2952092  2
    146    165    139    145     4  180.0000000  7.2952092  2
    314    315    332    313     4  180.0000000  7.2952092  2
      6      5      7     24     4  180.0000000  7.2952092  2
    328    327    345    323     4  180.0000000  7.2952092  2
     50     51     68     49     4  180.0000000  7.2952092  2
     45     22     46     47     4  180.0000000  7.2952092  2
     47     69     45     48     4  180.0000000  7.2952092  2
    284    279    283    301     4  180.0000000  7.2952092  2
    363    362    364    330     4  180.0000000  18.0130916  2
     94     93     95    112     4  180.0000000  7.2952092  2
     51     52     58     50     4  180.0000000  7.2952092  2
    235    236    240    228     4  180.0000000  7.2952092  2
     52     53     59     51     4  180.0000000  7.2952092  2
    238    237    239    256     4  180.0000000  7.2952092  2
     25     44      3     24     4  180.0000000  7.2952092  2
     64     63     81     59     4  180.0000000  7.2952092  2
    108    107    125    103     4  180.0000000  7.2952092  2
    110    133    109    127     4  180.0000000  1.7520674  2
    136    158    135    137     4  180.0000000  7.2952092  2
    179    177    180    201     4  180.0000000  7.2952092  2
    112     94    113    131     4  180.0000000  7.2952092  2
     16     17     34     15     4  180.0000000  7.2952092  2
    182    200    181    183     4  180.0000000  7.2952092  2
    234    253    227    233     4  180.0000000  7.2952092  2
    157    156    176    135     4  180.0000000  7.2952092  2
    265    266    267    242     4  180.0000000  7.2952092  2
    137    136    138    159     4  180.0000000  7.2952092  2
     50     49     51     68     4  180.0000000  7.2952092  2
     24     43      6     25     4  180.0000000  7.2952092  2
    324    325    342    323     4  180.0000000  7.2952092  2
      8      7      9     15     4  180.0000000  7.2952092  2
    316    323    315    317     4  180.0000000  7.2952092  2
    133    110    134    135     4  180.0000000  7.2952092  2
    230    229    231    233     4  180.0000000  7.2952092  2
    288    307    270    289     4  180.0000000  7.2952092  2
    313    314    335    312     4  180.0000000  7.2952092  2
    286    303    309    285     4  180.0000000  1.7520674  2
    280    298    279    281     4  180.0000000  7.2952092  2
    321    340    318    322     4  180.0000000  7.2952092  2
     18     36     17     19     4  180.0000000  7.2952092  2
     16     34     15     17     4  180.0000000  7.2952092  2
    269    270    291    268     4  180.0000000  7.2952092  2
    289    267    288    308     4  180.0000000  7.2952092  2
    223    245    221    224     4  180.0000000  7.2952092  2
    284    301    279    283     4  180.0000000  7.2952092  2
    106    105    107    124     4  180.0000000  7.2952092  2
    317    336    316    318     4  180.0000000  7.2952092  2
    154    171    177    153     4  180.0000000  1.7520674  2
    225    247    224    226     4  180.0000000  7.2952092  2
    186    185    187    189     4  180.0000000  7.2952092  2
    242    259    265    241     4  180.0000000  1.7520674  2
    282    283    300    281     4  180.0000000  7.2952092  2
    279    280    284    272     4  180.0000000  7.2952092  2
      3     25      1      4     4  180.0000000  7.2952092  2
     25     24     44      3     4  180.0000000  7.2952092  2
     25      3     24     44     4  180.0000000  7.2952092  2
    193    192    194    211     4  180.0000000  7.2952092  2
    270    269    271    288     4  180.0000000  7.2952092  2
     98     97     99    101     4  180.0000000  7.2952092  2
      9      8     10     28     4  180.0000000  7.2952092  2
     10     11     13      9     4  180.0000000  7.2952092  2
    309    311    286    310     4  180.0000000  7.2952092  2
    322    315    321    341     4  180.0000000  7.2952092  2
    184    185    191    183     4  180.0000000  7.2952092  2
     22     39     45     21     4  180.0000000  1.7520674  2
    113     91    112    132     4  180.0000000  7.2952092  2
    138    156    137    139     4  180.0000000  7.2952092  2
    227    234    226    228     4  180.0000000  7.2952092  2
    136    137    158    135     4  180.0000000  7.2952092  2
     54     53     55     57     4  180.0000000  7.2952092  2
    177    154    178    179     4  180.0000000  7.2952092  2
    277    274    278    296     4  180.0000000  7.2952092  2
    152    169    147    151     4  180.0000000  7.2952092  2
    193    211    192    194     4  180.0000000  7.2952092  2
     53     72     52     54     4  180.0000000  7.2952092  2
     60     59     61     78     4  180.0000000  7.2952092  2
    272    273    279    271     4  180.0000000  7.2952092  2
    201    220    179    200     4  180.0000000  7.2952092  2
    326    344    325    327     4  180.0000000  7.2952092  2
    112    113    131     94     4  180.0000000  7.2952092  2
    279    284    272    280     4  180.0000000  7.2952092  2
    239    240    241    238     4  180.0000000  7.2952092  2
    157    176    135    156     4  180.0000000  7.2952092  2
    244    245    263    226     4  180.0000000  7.2952092  2
    149    167    148    150     4  180.0000000  7.2952092  2
    104    122    103    105     4  180.0000000  7.2952092  2
     59     64     52     60     4  180.0000000  7.2952092  2
     51     50     52     58     4  180.0000000  7.2952092  2
    273    274    292    272     4  180.0000000  7.2952092  2
      5     27      4      6     4  180.0000000  7.2952092  2
    289    308    267    288     4  180.0000000  7.2952092  2
    269    291    268    270     4  180.0000000  7.2952092  2
     15      8     16     20     4  180.0000000  7.2952092  2
    113    112    132     91     4  180.0000000  7.2952092  2
    223    224    245    221     4  180.0000000  7.2952092  2
    196    195    213    191     4  180.0000000  7.2952092  2
    312    313    334    311     4  180.0000000  7.2952092  2
    332    351    314    333     4  180.0000000  7.2952092  2
    288    289    307    270     4  180.0000000  7.2952092  2
     68     87     50     69     4  180.0000000  7.2952092  2
    245    223    244    264     4  180.0000000  7.2952092  2
    278    277    297    271     4  180.0000000  7.2952092  2
    223    221    224    245     4  180.0000000  7.2952092  2
    234    233    253    227     4  180.0000000  7.2952092  2
    237    236    238    255     4  180.0000000  7.2952092  2
    325    324    326    343     4  180.0000000  7.2952092  2
     48     70     47     49     4  180.0000000  7.2952092  2
    135    133    136    157     4  180.0000000  7.2952092  2
     15     16     20      8     4  180.0000000  7.2952092  2
     62     61     63     80     4  180.0000000  7.2952092  2
    189    190    208    186     4  180.0000000  7.2952092  2
    228    235    227    229     4  180.0000000  7.2952092  2
    333    352    311    332     4  180.0000000  7.2952092  2
    270    271    288    269     4  180.0000000  7.2952092  2
     14     13     33      7     4  180.0000000  7.2952092  2
    333    332    352    311     4  180.0000000  7.2952092  2
    237    255    236    238     4  180.0000000  7.2952092  2
    312    311    313    334     4  180.0000000  7.2952092  2
    363    330    362    364     4  180.0000000  18.0130916  2
    198    221    197    215     4  180.0000000  1.7520674  2
     59     52     60     64     4  180.0000000  7.2952092  2
    177    178    179    154     4  180.0000000  7.2952092  2
    101    102    120     98     4  180.0000000  7.2952092  2
     58     57     77     51     4  180.0000000  7.2952092  2
    196    191    195    213     4  180.0000000  7.2952092  2
    139    138    140    146     4  180.0000000  7.2952092  2
     89     90     91     66     4  180.0000000  7.2952092  2
    181    180    182    203     4  180.0000000  7.2952092  2
    270    288    269    271     4  180.0000000  7.2952092  2
    279    272    280    284     4  180.0000000  7.2952092  2
     93     94    115     92     4  180.0000000  7.2952092  2
      9     28      8     10     4  180.0000000  7.2952092  2
    271    278    270    272     4  180.0000000  7.2952092  2
    240    257    235    239     4  180.0000000  7.2952092  2
    323    316    324    328     4  180.0000000  7.2952092  2
    265    242    266    267     4  180.0000000  7.2952092  2
    138    137    139    156     4  180.0000000  7.2952092  2
    238    256    237    239     4  180.0000000  7.2952092  2
    323    324    328    316     4  180.0000000  7.2952092  2
      1    354      2      3     4  180.0000000  18.0130916  2
    146    139    145    165     4  180.0000000  7.2952092  2
     17     18     35     16     4  180.0000000  7.2952092  2
     69     68     88     47     4  180.0000000  7.2952092  2
    193    194    211    192     4  180.0000000  7.2952092  2
     57     76     54     58     4  180.0000000  7.2952092  2
    185    184    186    204     4  180.0000000  7.2952092  2
    309    286    310    311     4  180.0000000  7.2952092  2
    152    151    169    147     4  180.0000000  7.2952092  2
     16     15     17     34     4  180.0000000  7.2952092  2
     59     60     64     52     4  180.0000000  7.2952092  2
    286    285    303    309     4  180.0000000  1.7520674  2
    151    153    150    152     4  180.0000000  7.2952092  2
    274    275    277    273     4  180.0000000  7.2952092  2
    317    318    336    316     4  180.0000000  7.2952092  2
      1      2      3    354     4  180.0000000  18.0130916  2
     51     58     50     52     4  180.0000000  7.2952092  2
    330    329    347    363     4  180.0000000  1.7520674  2
    332    314    333    351     4  180.0000000  7.2952092  2
    240    239    257    235     4  180.0000000  7.2952092  2
     19     18     20     21     4  180.0000000  7.2952092  2
    325    343    324    326     4  180.0000000  7.2952092  2
     92     91     93    114     4  180.0000000  7.2952092  2
     53     52     54     72     4  180.0000000  7.2952092  2
     64     59     63     81     4  180.0000000  7.2952092  2
     94    112     93     95     4  180.0000000  7.2952092  2
    182    181    183    200     4  180.0000000  7.2952092  2
    332    333    351    314     4  180.0000000  7.2952092  2
    156    175    138    157     4  180.0000000  7.2952092  2
      8      9     15      7     4  180.0000000  7.2952092  2
     69     88     47     68     4  180.0000000  7.2952092  2
    236    254    235    237     4  180.0000000  7.2952092  2
     47     45     48     69     4  180.0000000  7.2952092  2
    274    277    273    275     4  180.0000000  7.2952092  2
     54     57     53     55     4  180.0000000  7.2952092  2
      8     15      7      9     4  180.0000000  7.2952092  2
    198    197    215    221     4  180.0000000  1.7520674  2
    316    315    317    323     4  180.0000000  7.2952092  2
    226    225    227    244     4  180.0000000  7.2952092  2
     61     62     79     60     4  180.0000000  7.2952092  2
      6      7     24      5     4  180.0000000  7.2952092  2
    282    300    281    283     4  180.0000000  7.2952092  2
    106    107    124    105     4  180.0000000  7.2952092  2
    140    139    141    147     4  180.0000000  7.2952092  2
      7     14      6      8     4  180.0000000  7.2952092  2
     95     96    102     94     4  180.0000000  7.2952092  2
    194    195    212    193     4  180.0000000  7.2952092  2
    280    279    281    298     4  180.0000000  7.2952092  2
    235    228    236    240     4  180.0000000  7.2952092  2
     63     62     64     65     4  180.0000000  7.2952092  2
    136    135    137    158     4  180.0000000  7.2952092  2
    324    323    325    342     4  180.0000000  7.2952092  2
     66     65     83     89     4  180.0000000  1.7520674  2
      3      1      4     25     4  180.0000000  7.2952092  2
     20     19     37     15     4  180.0000000  7.2952092  2
    105    123    104    106     4  180.0000000  7.2952092  2
    265    267    242    266     4  180.0000000  7.2952092  2
    157    135    156    176     4  180.0000000  7.2952092  2
    149    150    167    148     4  180.0000000  7.2952092  2
    273    292    272    274     4  180.0000000  7.2952092  2
    363    364    330    362     4  180.0000000  18.0130916  2
     10     13      9     11     4  180.0000000  7.2952092  2
     19     20     21     18     4  180.0000000  7.2952092  2
    195    196    197    194     4  180.0000000  7.2952092  2
    323    328    316    324     4  180.0000000  7.2952092  2
    283    284    285    282     4  180.0000000  7.2952092  2
    284    283    301    279     4  180.0000000  7.2952092  2
     68     50     69     87     4  180.0000000  7.2952092  2
    242    265    241    259     4  180.0000000  1.7520674  2
    107    109    106    108     4  180.0000000  7.2952092  2
     64     81     59     63     4  180.0000000  7.2952092  2
    289    288    308    267     4  180.0000000  7.2952092  2
     52     51     53     59     4  180.0000000  7.2952092  2


[ moleculetype ]
; Name            nrexcl
TCM          3

[ atoms ]
;   nr       type  resnr residue  atom   cgnr    charge       mass  typeB    chargeB      massB
; residue    1 TCM rtp TCM q 0.0
    1      TCM_0      1    TCM     c1      1 0.22438000   9.994886   ; qtot 0.224380
    2      TCM_1      1    TCM    cl1      2 -0.11463000  35.453200   ; qtot 0.109750
    3      TCM_2      1    TCM    cl2      3 -0.11463000  35.453200   ; qtot -0.004880
    4      TCM_3      1    TCM     h1      4 0.11951000   3.023841   ; qtot 0.114630
    5      TCM_4      1    TCM    cl3      5 -0.11463000  35.453200   ; qtot 0.000000

[ bonds ]
;    ai     aj funct         c0         c1         c2         c3
      1      2     1   0.17948 173885.040698
      1      3     1   0.17948 173885.040698
      1      4     1   0.10929 317186.185379
      1      5     1   0.17948 173885.040698

[ angles ]
;    ai     aj     ak funct         c0         c1         c2         c3
      2      1      3     1   107.6607822 425.669015
      2      1      4     1   107.6607822 425.669015
      2      1      5     1   107.6607822 425.669015
      3      1      4     1   107.6607822 425.669015
      3      1      5     1   107.6607822 425.669015
      4      1      5     1   107.6607822 425.669015

[ system ]
; Name
FOO

[ molecules ]
; Compound       #mols
system1              1
TCM                634
