[ defaults ]
; nbfunc	comb-rule	gen-pairs	fudgeLJ	fudgeQQ
     1	     2	yes   	0.500000	0.833333

[ atomtypes ]
;type, bondingtype, atomic_number, mass, charge, ptype, sigma, epsilon
em_helix_mop_octamer_0	     6	12.01078	0.0000000000000000	A    	0.3480646886945065	0.3635030558377792
em_helix_mop_octamer_1	     8	15.99943	0.0000000000000000	A    	0.3039812205065809	0.8795023257036865
em_helix_mop_octamer_2	     6	12.01078	0.0000000000000000	A    	0.3480646886945065	0.3635030558377792
em_helix_mop_octamer_3	     6	12.01078	0.0000000000000000	A    	0.3480646886945065	0.3635030558377792
em_helix_mop_octamer_4	     6	12.01078	0.0000000000000000	A    	0.3480646886945065	0.3635030558377792
em_helix_mop_octamer_5	     6	12.01078	0.0000000000000000	A    	0.3480646886945065	0.3635030558377792
em_helix_mop_octamer_6	     6	12.01078	0.0000000000000000	A    	0.3480646886945065	0.3635030558377792
em_helix_mop_octamer_7	     6	12.01078	0.0000000000000000	A    	0.3480646886945065	0.3635030558377792
em_helix_mop_octamer_8	     6	12.01078	0.0000000000000000	A    	0.3480646886945065	0.3635030558377792
em_helix_mop_octamer_9	     6	12.01078	0.0000000000000000	A    	0.3480646886945065	0.3635030558377792
em_helix_mop_octamer_10	     8	15.99943	0.0000000000000000	A    	0.3025106490435313	0.7048581468486769
em_helix_mop_octamer_11	     6	12.01078	0.0000000000000000	A    	0.3399669508423535	0.4577296
em_helix_mop_octamer_12	     6	12.01078	0.0000000000000000	A    	0.3480646886945065	0.3635030558377792
em_helix_mop_octamer_13	     6	12.01078	0.0000000000000000	A    	0.3480646886945065	0.3635030558377792
em_helix_mop_octamer_14	     6	12.01078	0.0000000000000000	A    	0.3480646886945065	0.3635030558377792
em_helix_mop_octamer_15	     6	12.01078	0.0000000000000000	A    	0.3480646886945065	0.3635030558377792
em_helix_mop_octamer_16	     6	12.01078	0.0000000000000000	A    	0.3480646886945065	0.3635030558377792
em_helix_mop_octamer_17	     6	12.01078	0.0000000000000000	A    	0.3480646886945065	0.3635030558377792
em_helix_mop_octamer_18	     6	12.01078	0.0000000000000000	A    	0.3480646886945065	0.3635030558377792
em_helix_mop_octamer_19	     6	12.01078	0.0000000000000000	A    	0.3480646886945065	0.3635030558377792
em_helix_mop_octamer_20	     6	12.01078	0.0000000000000000	A    	0.3399669508423535	0.4577296
em_helix_mop_octamer_21	     7	14.00672	0.0000000000000000	A    	0.3206876023663901	0.7016212989374017
em_helix_mop_octamer_22	     6	12.01078	0.0000000000000000	A    	0.3399669508423535	0.4577296
em_helix_mop_octamer_23	     6	12.01078	0.0000000000000000	A    	0.3480646886945065	0.3635030558377792
em_helix_mop_octamer_24	     6	12.01078	0.0000000000000000	A    	0.3480646886945065	0.3635030558377792
em_helix_mop_octamer_25	     1	1.007947	0.0000000000000000	A    	0.2572581535063279	0.06531785996356952
em_helix_mop_octamer_26	     1	1.007947	0.0000000000000000	A    	0.2572581535063279	0.06531785996356952
em_helix_mop_octamer_27	     1	1.007947	0.0000000000000000	A    	0.2572581535063279	0.06531785996356952
em_helix_mop_octamer_28	     1	1.007947	0.0000000000000000	A    	0.2583225710839196	0.068656285380106
em_helix_mop_octamer_29	     1	1.007947	0.0000000000000000	A    	0.2583225710839196	0.068656285380106
em_helix_mop_octamer_30	     1	1.007947	0.0000000000000000	A    	0.2583225710839196	0.068656285380106
em_helix_mop_octamer_31	     1	1.007947	0.0000000000000000	A    	0.2572581535063279	0.06531785996356952
em_helix_mop_octamer_32	     1	1.007947	0.0000000000000000	A    	0.2572581535063279	0.06531785996356952
em_helix_mop_octamer_33	     1	1.007947	0.0000000000000000	A    	0.2572581535063279	0.06531785996356952
em_helix_mop_octamer_34	     1	1.007947	0.0000000000000000	A    	0.2572581535063279	0.06531785996356952
em_helix_mop_octamer_35	     1	1.007947	0.0000000000000000	A    	0.2572581535063279	0.06531785996356952
em_helix_mop_octamer_36	     1	1.007947	0.0000000000000000	A    	0.2572581535063279	0.06531785996356952
em_helix_mop_octamer_37	     1	1.007947	0.0000000000000000	A    	0.2583225710839196	0.068656285380106
em_helix_mop_octamer_38	     1	1.007947	0.0000000000000000	A    	0.1103427677297317	0.05895596890015097
em_helix_mop_octamer_39	     1	1.007947	0.0000000000000000	A    	0.2644543413268124	0.06602135607582665
em_helix_mop_octamer_40	     1	1.007947	0.0000000000000000	A    	0.2644543413268124	0.06602135607582665
em_helix_mop_octamer_41	     1	1.007947	0.0000000000000000	A    	0.2644543413268124	0.06602135607582665
em_helix_mop_octamer_42	     1	1.007947	0.0000000000000000	A    	0.2572581535063279	0.06531785996356952
em_helix_mop_octamer_43	     1	1.007947	0.0000000000000000	A    	0.2572581535063279	0.06531785996356952
em_helix_mop_octamer_44	     6	12.01078	0.0000000000000000	A    	0.3480646886945065	0.3635030558377792
em_helix_mop_octamer_45	     8	15.99943	0.0000000000000000	A    	0.3039812205065809	0.8795023257036865
em_helix_mop_octamer_46	     6	12.01078	0.0000000000000000	A    	0.3480646886945065	0.3635030558377792
em_helix_mop_octamer_47	     6	12.01078	0.0000000000000000	A    	0.3480646886945065	0.3635030558377792
em_helix_mop_octamer_48	     6	12.01078	0.0000000000000000	A    	0.3480646886945065	0.3635030558377792
em_helix_mop_octamer_49	     6	12.01078	0.0000000000000000	A    	0.3480646886945065	0.3635030558377792
em_helix_mop_octamer_50	     6	12.01078	0.0000000000000000	A    	0.3480646886945065	0.3635030558377792
em_helix_mop_octamer_51	     6	12.01078	0.0000000000000000	A    	0.3480646886945065	0.3635030558377792
em_helix_mop_octamer_52	     6	12.01078	0.0000000000000000	A    	0.3480646886945065	0.3635030558377792
em_helix_mop_octamer_53	     6	12.01078	0.0000000000000000	A    	0.3480646886945065	0.3635030558377792
em_helix_mop_octamer_54	     8	15.99943	0.0000000000000000	A    	0.3025106490435313	0.7048581468486769
em_helix_mop_octamer_55	     6	12.01078	0.0000000000000000	A    	0.3399669508423535	0.4577296
em_helix_mop_octamer_56	     6	12.01078	0.0000000000000000	A    	0.3480646886945065	0.3635030558377792
em_helix_mop_octamer_57	     6	12.01078	0.0000000000000000	A    	0.3480646886945065	0.3635030558377792
em_helix_mop_octamer_58	     6	12.01078	0.0000000000000000	A    	0.3480646886945065	0.3635030558377792
em_helix_mop_octamer_59	     6	12.01078	0.0000000000000000	A    	0.3480646886945065	0.3635030558377792
em_helix_mop_octamer_60	     6	12.01078	0.0000000000000000	A    	0.3480646886945065	0.3635030558377792
em_helix_mop_octamer_61	     6	12.01078	0.0000000000000000	A    	0.3480646886945065	0.3635030558377792
em_helix_mop_octamer_62	     6	12.01078	0.0000000000000000	A    	0.3480646886945065	0.3635030558377792
em_helix_mop_octamer_63	     6	12.01078	0.0000000000000000	A    	0.3480646886945065	0.3635030558377792
em_helix_mop_octamer_64	     6	12.01078	0.0000000000000000	A    	0.3399669508423535	0.4577296
em_helix_mop_octamer_65	     7	14.00672	0.0000000000000000	A    	0.3206876023663901	0.7016212989374017
em_helix_mop_octamer_66	     6	12.01078	0.0000000000000000	A    	0.3399669508423535	0.4577296
em_helix_mop_octamer_67	     6	12.01078	0.0000000000000000	A    	0.3480646886945065	0.3635030558377792
em_helix_mop_octamer_68	     6	12.01078	0.0000000000000000	A    	0.3480646886945065	0.3635030558377792
em_helix_mop_octamer_69	     1	1.007947	0.0000000000000000	A    	0.2572581535063279	0.06531785996356952
em_helix_mop_octamer_70	     1	1.007947	0.0000000000000000	A    	0.2572581535063279	0.06531785996356952
em_helix_mop_octamer_71	     1	1.007947	0.0000000000000000	A    	0.2572581535063279	0.06531785996356952
em_helix_mop_octamer_72	     1	1.007947	0.0000000000000000	A    	0.2583225710839196	0.068656285380106
em_helix_mop_octamer_73	     1	1.007947	0.0000000000000000	A    	0.2583225710839196	0.068656285380106
em_helix_mop_octamer_74	     1	1.007947	0.0000000000000000	A    	0.2583225710839196	0.068656285380106
em_helix_mop_octamer_75	     1	1.007947	0.0000000000000000	A    	0.2572581535063279	0.06531785996356952
em_helix_mop_octamer_76	     1	1.007947	0.0000000000000000	A    	0.2572581535063279	0.06531785996356952
em_helix_mop_octamer_77	     1	1.007947	0.0000000000000000	A    	0.2572581535063279	0.06531785996356952
em_helix_mop_octamer_78	     1	1.007947	0.0000000000000000	A    	0.2572581535063279	0.06531785996356952
em_helix_mop_octamer_79	     1	1.007947	0.0000000000000000	A    	0.2572581535063279	0.06531785996356952
em_helix_mop_octamer_80	     1	1.007947	0.0000000000000000	A    	0.2572581535063279	0.06531785996356952
em_helix_mop_octamer_81	     1	1.007947	0.0000000000000000	A    	0.2583225710839196	0.068656285380106
em_helix_mop_octamer_82	     1	1.007947	0.0000000000000000	A    	0.1103427677297317	0.05895596890015097
em_helix_mop_octamer_83	     1	1.007947	0.0000000000000000	A    	0.2644543413268124	0.06602135607582665
em_helix_mop_octamer_84	     1	1.007947	0.0000000000000000	A    	0.2644543413268124	0.06602135607582665
em_helix_mop_octamer_85	     1	1.007947	0.0000000000000000	A    	0.2644543413268124	0.06602135607582665
em_helix_mop_octamer_86	     1	1.007947	0.0000000000000000	A    	0.2572581535063279	0.06531785996356952
em_helix_mop_octamer_87	     1	1.007947	0.0000000000000000	A    	0.2572581535063279	0.06531785996356952
em_helix_mop_octamer_88	     6	12.01078	0.0000000000000000	A    	0.3480646886945065	0.3635030558377792
em_helix_mop_octamer_89	     8	15.99943	0.0000000000000000	A    	0.3039812205065809	0.8795023257036865
em_helix_mop_octamer_90	     6	12.01078	0.0000000000000000	A    	0.3480646886945065	0.3635030558377792
em_helix_mop_octamer_91	     6	12.01078	0.0000000000000000	A    	0.3480646886945065	0.3635030558377792
em_helix_mop_octamer_92	     6	12.01078	0.0000000000000000	A    	0.3480646886945065	0.3635030558377792
em_helix_mop_octamer_93	     6	12.01078	0.0000000000000000	A    	0.3480646886945065	0.3635030558377792
em_helix_mop_octamer_94	     6	12.01078	0.0000000000000000	A    	0.3480646886945065	0.3635030558377792
em_helix_mop_octamer_95	     6	12.01078	0.0000000000000000	A    	0.3480646886945065	0.3635030558377792
em_helix_mop_octamer_96	     6	12.01078	0.0000000000000000	A    	0.3480646886945065	0.3635030558377792
em_helix_mop_octamer_97	     6	12.01078	0.0000000000000000	A    	0.3480646886945065	0.3635030558377792
em_helix_mop_octamer_98	     8	15.99943	0.0000000000000000	A    	0.3025106490435313	0.7048581468486769
em_helix_mop_octamer_99	     6	12.01078	0.0000000000000000	A    	0.3399669508423535	0.4577296
em_helix_mop_octamer_100	     6	12.01078	0.0000000000000000	A    	0.3480646886945065	0.3635030558377792
em_helix_mop_octamer_101	     6	12.01078	0.0000000000000000	A    	0.3480646886945065	0.3635030558377792
em_helix_mop_octamer_102	     6	12.01078	0.0000000000000000	A    	0.3480646886945065	0.3635030558377792
em_helix_mop_octamer_103	     6	12.01078	0.0000000000000000	A    	0.3480646886945065	0.3635030558377792
em_helix_mop_octamer_104	     6	12.01078	0.0000000000000000	A    	0.3480646886945065	0.3635030558377792
em_helix_mop_octamer_105	     6	12.01078	0.0000000000000000	A    	0.3480646886945065	0.3635030558377792
em_helix_mop_octamer_106	     6	12.01078	0.0000000000000000	A    	0.3480646886945065	0.3635030558377792
em_helix_mop_octamer_107	     6	12.01078	0.0000000000000000	A    	0.3480646886945065	0.3635030558377792
em_helix_mop_octamer_108	     6	12.01078	0.0000000000000000	A    	0.3399669508423535	0.4577296
em_helix_mop_octamer_109	     7	14.00672	0.0000000000000000	A    	0.3206876023663901	0.7016212989374017
em_helix_mop_octamer_110	     6	12.01078	0.0000000000000000	A    	0.3399669508423535	0.4577296
em_helix_mop_octamer_111	     6	12.01078	0.0000000000000000	A    	0.3480646886945065	0.3635030558377792
em_helix_mop_octamer_112	     6	12.01078	0.0000000000000000	A    	0.3480646886945065	0.3635030558377792
em_helix_mop_octamer_113	     1	1.007947	0.0000000000000000	A    	0.2572581535063279	0.06531785996356952
em_helix_mop_octamer_114	     1	1.007947	0.0000000000000000	A    	0.2572581535063279	0.06531785996356952
em_helix_mop_octamer_115	     1	1.007947	0.0000000000000000	A    	0.2572581535063279	0.06531785996356952
em_helix_mop_octamer_116	     1	1.007947	0.0000000000000000	A    	0.2583225710839196	0.068656285380106
em_helix_mop_octamer_117	     1	1.007947	0.0000000000000000	A    	0.2583225710839196	0.068656285380106
em_helix_mop_octamer_118	     1	1.007947	0.0000000000000000	A    	0.2583225710839196	0.068656285380106
em_helix_mop_octamer_119	     1	1.007947	0.0000000000000000	A    	0.2572581535063279	0.06531785996356952
em_helix_mop_octamer_120	     1	1.007947	0.0000000000000000	A    	0.2572581535063279	0.06531785996356952
em_helix_mop_octamer_121	     1	1.007947	0.0000000000000000	A    	0.2572581535063279	0.06531785996356952
em_helix_mop_octamer_122	     1	1.007947	0.0000000000000000	A    	0.2572581535063279	0.06531785996356952
em_helix_mop_octamer_123	     1	1.007947	0.0000000000000000	A    	0.2572581535063279	0.06531785996356952
em_helix_mop_octamer_124	     1	1.007947	0.0000000000000000	A    	0.2572581535063279	0.06531785996356952
em_helix_mop_octamer_125	     1	1.007947	0.0000000000000000	A    	0.2583225710839196	0.068656285380106
em_helix_mop_octamer_126	     1	1.007947	0.0000000000000000	A    	0.1103427677297317	0.05895596890015097
em_helix_mop_octamer_127	     1	1.007947	0.0000000000000000	A    	0.2644543413268124	0.06602135607582665
em_helix_mop_octamer_128	     1	1.007947	0.0000000000000000	A    	0.2644543413268124	0.06602135607582665
em_helix_mop_octamer_129	     1	1.007947	0.0000000000000000	A    	0.2644543413268124	0.06602135607582665
em_helix_mop_octamer_130	     1	1.007947	0.0000000000000000	A    	0.2572581535063279	0.06531785996356952
em_helix_mop_octamer_131	     1	1.007947	0.0000000000000000	A    	0.2572581535063279	0.06531785996356952
em_helix_mop_octamer_132	     6	12.01078	0.0000000000000000	A    	0.3480646886945065	0.3635030558377792
em_helix_mop_octamer_133	     8	15.99943	0.0000000000000000	A    	0.3039812205065809	0.8795023257036865
em_helix_mop_octamer_134	     6	12.01078	0.0000000000000000	A    	0.3480646886945065	0.3635030558377792
em_helix_mop_octamer_135	     6	12.01078	0.0000000000000000	A    	0.3480646886945065	0.3635030558377792
em_helix_mop_octamer_136	     6	12.01078	0.0000000000000000	A    	0.3480646886945065	0.3635030558377792
em_helix_mop_octamer_137	     6	12.01078	0.0000000000000000	A    	0.3480646886945065	0.3635030558377792
em_helix_mop_octamer_138	     6	12.01078	0.0000000000000000	A    	0.3480646886945065	0.3635030558377792
em_helix_mop_octamer_139	     6	12.01078	0.0000000000000000	A    	0.3480646886945065	0.3635030558377792
em_helix_mop_octamer_140	     6	12.01078	0.0000000000000000	A    	0.3480646886945065	0.3635030558377792
em_helix_mop_octamer_141	     6	12.01078	0.0000000000000000	A    	0.3480646886945065	0.3635030558377792
em_helix_mop_octamer_142	     8	15.99943	0.0000000000000000	A    	0.3025106490435313	0.7048581468486769
em_helix_mop_octamer_143	     6	12.01078	0.0000000000000000	A    	0.3399669508423535	0.4577296
em_helix_mop_octamer_144	     6	12.01078	0.0000000000000000	A    	0.3480646886945065	0.3635030558377792
em_helix_mop_octamer_145	     6	12.01078	0.0000000000000000	A    	0.3480646886945065	0.3635030558377792
em_helix_mop_octamer_146	     6	12.01078	0.0000000000000000	A    	0.3480646886945065	0.3635030558377792
em_helix_mop_octamer_147	     6	12.01078	0.0000000000000000	A    	0.3480646886945065	0.3635030558377792
em_helix_mop_octamer_148	     6	12.01078	0.0000000000000000	A    	0.3480646886945065	0.3635030558377792
em_helix_mop_octamer_149	     6	12.01078	0.0000000000000000	A    	0.3480646886945065	0.3635030558377792
em_helix_mop_octamer_150	     6	12.01078	0.0000000000000000	A    	0.3480646886945065	0.3635030558377792
em_helix_mop_octamer_151	     6	12.01078	0.0000000000000000	A    	0.3480646886945065	0.3635030558377792
em_helix_mop_octamer_152	     6	12.01078	0.0000000000000000	A    	0.3399669508423535	0.4577296
em_helix_mop_octamer_153	     7	14.00672	0.0000000000000000	A    	0.3206876023663901	0.7016212989374017
em_helix_mop_octamer_154	     6	12.01078	0.0000000000000000	A    	0.3399669508423535	0.4577296
em_helix_mop_octamer_155	     6	12.01078	0.0000000000000000	A    	0.3480646886945065	0.3635030558377792
em_helix_mop_octamer_156	     6	12.01078	0.0000000000000000	A    	0.3480646886945065	0.3635030558377792
em_helix_mop_octamer_157	     1	1.007947	0.0000000000000000	A    	0.2572581535063279	0.06531785996356952
em_helix_mop_octamer_158	     1	1.007947	0.0000000000000000	A    	0.2572581535063279	0.06531785996356952
em_helix_mop_octamer_159	     1	1.007947	0.0000000000000000	A    	0.2572581535063279	0.06531785996356952
em_helix_mop_octamer_160	     1	1.007947	0.0000000000000000	A    	0.2583225710839196	0.068656285380106
em_helix_mop_octamer_161	     1	1.007947	0.0000000000000000	A    	0.2583225710839196	0.068656285380106
em_helix_mop_octamer_162	     1	1.007947	0.0000000000000000	A    	0.2583225710839196	0.068656285380106
em_helix_mop_octamer_163	     1	1.007947	0.0000000000000000	A    	0.2572581535063279	0.06531785996356952
em_helix_mop_octamer_164	     1	1.007947	0.0000000000000000	A    	0.2572581535063279	0.06531785996356952
em_helix_mop_octamer_165	     1	1.007947	0.0000000000000000	A    	0.2572581535063279	0.06531785996356952
em_helix_mop_octamer_166	     1	1.007947	0.0000000000000000	A    	0.2572581535063279	0.06531785996356952
em_helix_mop_octamer_167	     1	1.007947	0.0000000000000000	A    	0.2572581535063279	0.06531785996356952
em_helix_mop_octamer_168	     1	1.007947	0.0000000000000000	A    	0.2572581535063279	0.06531785996356952
em_helix_mop_octamer_169	     1	1.007947	0.0000000000000000	A    	0.2583225710839196	0.068656285380106
em_helix_mop_octamer_170	     1	1.007947	0.0000000000000000	A    	0.1103427677297317	0.05895596890015097
em_helix_mop_octamer_171	     1	1.007947	0.0000000000000000	A    	0.2644543413268124	0.06602135607582665
em_helix_mop_octamer_172	     1	1.007947	0.0000000000000000	A    	0.2644543413268124	0.06602135607582665
em_helix_mop_octamer_173	     1	1.007947	0.0000000000000000	A    	0.2644543413268124	0.06602135607582665
em_helix_mop_octamer_174	     1	1.007947	0.0000000000000000	A    	0.2572581535063279	0.06531785996356952
em_helix_mop_octamer_175	     1	1.007947	0.0000000000000000	A    	0.2572581535063279	0.06531785996356952
em_helix_mop_octamer_176	     6	12.01078	0.0000000000000000	A    	0.3480646886945065	0.3635030558377792
em_helix_mop_octamer_177	     8	15.99943	0.0000000000000000	A    	0.3039812205065809	0.8795023257036865
em_helix_mop_octamer_178	     6	12.01078	0.0000000000000000	A    	0.3480646886945065	0.3635030558377792
em_helix_mop_octamer_179	     6	12.01078	0.0000000000000000	A    	0.3480646886945065	0.3635030558377792
em_helix_mop_octamer_180	     6	12.01078	0.0000000000000000	A    	0.3480646886945065	0.3635030558377792
em_helix_mop_octamer_181	     6	12.01078	0.0000000000000000	A    	0.3480646886945065	0.3635030558377792
em_helix_mop_octamer_182	     6	12.01078	0.0000000000000000	A    	0.3480646886945065	0.3635030558377792
em_helix_mop_octamer_183	     6	12.01078	0.0000000000000000	A    	0.3480646886945065	0.3635030558377792
em_helix_mop_octamer_184	     6	12.01078	0.0000000000000000	A    	0.3480646886945065	0.3635030558377792
em_helix_mop_octamer_185	     6	12.01078	0.0000000000000000	A    	0.3480646886945065	0.3635030558377792
em_helix_mop_octamer_186	     8	15.99943	0.0000000000000000	A    	0.3025106490435313	0.7048581468486769
em_helix_mop_octamer_187	     6	12.01078	0.0000000000000000	A    	0.3399669508423535	0.4577296
em_helix_mop_octamer_188	     6	12.01078	0.0000000000000000	A    	0.3480646886945065	0.3635030558377792
em_helix_mop_octamer_189	     6	12.01078	0.0000000000000000	A    	0.3480646886945065	0.3635030558377792
em_helix_mop_octamer_190	     6	12.01078	0.0000000000000000	A    	0.3480646886945065	0.3635030558377792
em_helix_mop_octamer_191	     6	12.01078	0.0000000000000000	A    	0.3480646886945065	0.3635030558377792
em_helix_mop_octamer_192	     6	12.01078	0.0000000000000000	A    	0.3480646886945065	0.3635030558377792
em_helix_mop_octamer_193	     6	12.01078	0.0000000000000000	A    	0.3480646886945065	0.3635030558377792
em_helix_mop_octamer_194	     6	12.01078	0.0000000000000000	A    	0.3480646886945065	0.3635030558377792
em_helix_mop_octamer_195	     6	12.01078	0.0000000000000000	A    	0.3480646886945065	0.3635030558377792
em_helix_mop_octamer_196	     6	12.01078	0.0000000000000000	A    	0.3399669508423535	0.4577296
em_helix_mop_octamer_197	     7	14.00672	0.0000000000000000	A    	0.3206876023663901	0.7016212989374017
em_helix_mop_octamer_198	     6	12.01078	0.0000000000000000	A    	0.3399669508423535	0.4577296
em_helix_mop_octamer_199	     6	12.01078	0.0000000000000000	A    	0.3480646886945065	0.3635030558377792
em_helix_mop_octamer_200	     6	12.01078	0.0000000000000000	A    	0.3480646886945065	0.3635030558377792
em_helix_mop_octamer_201	     1	1.007947	0.0000000000000000	A    	0.2572581535063279	0.06531785996356952
em_helix_mop_octamer_202	     1	1.007947	0.0000000000000000	A    	0.2572581535063279	0.06531785996356952
em_helix_mop_octamer_203	     1	1.007947	0.0000000000000000	A    	0.2572581535063279	0.06531785996356952
em_helix_mop_octamer_204	     1	1.007947	0.0000000000000000	A    	0.2583225710839196	0.068656285380106
em_helix_mop_octamer_205	     1	1.007947	0.0000000000000000	A    	0.2583225710839196	0.068656285380106
em_helix_mop_octamer_206	     1	1.007947	0.0000000000000000	A    	0.2583225710839196	0.068656285380106
em_helix_mop_octamer_207	     1	1.007947	0.0000000000000000	A    	0.2572581535063279	0.06531785996356952
em_helix_mop_octamer_208	     1	1.007947	0.0000000000000000	A    	0.2572581535063279	0.06531785996356952
em_helix_mop_octamer_209	     1	1.007947	0.0000000000000000	A    	0.2572581535063279	0.06531785996356952
em_helix_mop_octamer_210	     1	1.007947	0.0000000000000000	A    	0.2572581535063279	0.06531785996356952
em_helix_mop_octamer_211	     1	1.007947	0.0000000000000000	A    	0.2572581535063279	0.06531785996356952
em_helix_mop_octamer_212	     1	1.007947	0.0000000000000000	A    	0.2572581535063279	0.06531785996356952
em_helix_mop_octamer_213	     1	1.007947	0.0000000000000000	A    	0.2583225710839196	0.068656285380106
em_helix_mop_octamer_214	     1	1.007947	0.0000000000000000	A    	0.1103427677297317	0.05895596890015097
em_helix_mop_octamer_215	     1	1.007947	0.0000000000000000	A    	0.2644543413268124	0.06602135607582665
em_helix_mop_octamer_216	     1	1.007947	0.0000000000000000	A    	0.2644543413268124	0.06602135607582665
em_helix_mop_octamer_217	     1	1.007947	0.0000000000000000	A    	0.2644543413268124	0.06602135607582665
em_helix_mop_octamer_218	     1	1.007947	0.0000000000000000	A    	0.2572581535063279	0.06531785996356952
em_helix_mop_octamer_219	     1	1.007947	0.0000000000000000	A    	0.2572581535063279	0.06531785996356952
em_helix_mop_octamer_220	     6	12.01078	0.0000000000000000	A    	0.3480646886945065	0.3635030558377792
em_helix_mop_octamer_221	     8	15.99943	0.0000000000000000	A    	0.3039812205065809	0.8795023257036865
em_helix_mop_octamer_222	     6	12.01078	0.0000000000000000	A    	0.3480646886945065	0.3635030558377792
em_helix_mop_octamer_223	     6	12.01078	0.0000000000000000	A    	0.3480646886945065	0.3635030558377792
em_helix_mop_octamer_224	     6	12.01078	0.0000000000000000	A    	0.3480646886945065	0.3635030558377792
em_helix_mop_octamer_225	     6	12.01078	0.0000000000000000	A    	0.3480646886945065	0.3635030558377792
em_helix_mop_octamer_226	     6	12.01078	0.0000000000000000	A    	0.3480646886945065	0.3635030558377792
em_helix_mop_octamer_227	     6	12.01078	0.0000000000000000	A    	0.3480646886945065	0.3635030558377792
em_helix_mop_octamer_228	     6	12.01078	0.0000000000000000	A    	0.3480646886945065	0.3635030558377792
em_helix_mop_octamer_229	     6	12.01078	0.0000000000000000	A    	0.3480646886945065	0.3635030558377792
em_helix_mop_octamer_230	     8	15.99943	0.0000000000000000	A    	0.3025106490435313	0.7048581468486769
em_helix_mop_octamer_231	     6	12.01078	0.0000000000000000	A    	0.3399669508423535	0.4577296
em_helix_mop_octamer_232	     6	12.01078	0.0000000000000000	A    	0.3480646886945065	0.3635030558377792
em_helix_mop_octamer_233	     6	12.01078	0.0000000000000000	A    	0.3480646886945065	0.3635030558377792
em_helix_mop_octamer_234	     6	12.01078	0.0000000000000000	A    	0.3480646886945065	0.3635030558377792
em_helix_mop_octamer_235	     6	12.01078	0.0000000000000000	A    	0.3480646886945065	0.3635030558377792
em_helix_mop_octamer_236	     6	12.01078	0.0000000000000000	A    	0.3480646886945065	0.3635030558377792
em_helix_mop_octamer_237	     6	12.01078	0.0000000000000000	A    	0.3480646886945065	0.3635030558377792
em_helix_mop_octamer_238	     6	12.01078	0.0000000000000000	A    	0.3480646886945065	0.3635030558377792
em_helix_mop_octamer_239	     6	12.01078	0.0000000000000000	A    	0.3480646886945065	0.3635030558377792
em_helix_mop_octamer_240	     6	12.01078	0.0000000000000000	A    	0.3399669508423535	0.4577296
em_helix_mop_octamer_241	     7	14.00672	0.0000000000000000	A    	0.3206876023663901	0.7016212989374017
em_helix_mop_octamer_242	     6	12.01078	0.0000000000000000	A    	0.3399669508423535	0.4577296
em_helix_mop_octamer_243	     6	12.01078	0.0000000000000000	A    	0.3480646886945065	0.3635030558377792
em_helix_mop_octamer_244	     6	12.01078	0.0000000000000000	A    	0.3480646886945065	0.3635030558377792
em_helix_mop_octamer_245	     1	1.007947	0.0000000000000000	A    	0.2572581535063279	0.06531785996356952
em_helix_mop_octamer_246	     1	1.007947	0.0000000000000000	A    	0.2572581535063279	0.06531785996356952
em_helix_mop_octamer_247	     1	1.007947	0.0000000000000000	A    	0.2572581535063279	0.06531785996356952
em_helix_mop_octamer_248	     1	1.007947	0.0000000000000000	A    	0.2583225710839196	0.068656285380106
em_helix_mop_octamer_249	     1	1.007947	0.0000000000000000	A    	0.2583225710839196	0.068656285380106
em_helix_mop_octamer_250	     1	1.007947	0.0000000000000000	A    	0.2583225710839196	0.068656285380106
em_helix_mop_octamer_251	     1	1.007947	0.0000000000000000	A    	0.2572581535063279	0.06531785996356952
em_helix_mop_octamer_252	     1	1.007947	0.0000000000000000	A    	0.2572581535063279	0.06531785996356952
em_helix_mop_octamer_253	     1	1.007947	0.0000000000000000	A    	0.2572581535063279	0.06531785996356952
em_helix_mop_octamer_254	     1	1.007947	0.0000000000000000	A    	0.2572581535063279	0.06531785996356952
em_helix_mop_octamer_255	     1	1.007947	0.0000000000000000	A    	0.2572581535063279	0.06531785996356952
em_helix_mop_octamer_256	     1	1.007947	0.0000000000000000	A    	0.2572581535063279	0.06531785996356952
em_helix_mop_octamer_257	     1	1.007947	0.0000000000000000	A    	0.2583225710839196	0.068656285380106
em_helix_mop_octamer_258	     1	1.007947	0.0000000000000000	A    	0.1103427677297317	0.05895596890015097
em_helix_mop_octamer_259	     1	1.007947	0.0000000000000000	A    	0.2644543413268124	0.06602135607582665
em_helix_mop_octamer_260	     1	1.007947	0.0000000000000000	A    	0.2644543413268124	0.06602135607582665
em_helix_mop_octamer_261	     1	1.007947	0.0000000000000000	A    	0.2644543413268124	0.06602135607582665
em_helix_mop_octamer_262	     1	1.007947	0.0000000000000000	A    	0.2572581535063279	0.06531785996356952
em_helix_mop_octamer_263	     1	1.007947	0.0000000000000000	A    	0.2572581535063279	0.06531785996356952
em_helix_mop_octamer_264	     6	12.01078	0.0000000000000000	A    	0.3480646886945065	0.3635030558377792
em_helix_mop_octamer_265	     8	15.99943	0.0000000000000000	A    	0.3039812205065809	0.8795023257036865
em_helix_mop_octamer_266	     6	12.01078	0.0000000000000000	A    	0.3480646886945065	0.3635030558377792
em_helix_mop_octamer_267	     6	12.01078	0.0000000000000000	A    	0.3480646886945065	0.3635030558377792
em_helix_mop_octamer_268	     6	12.01078	0.0000000000000000	A    	0.3480646886945065	0.3635030558377792
em_helix_mop_octamer_269	     6	12.01078	0.0000000000000000	A    	0.3480646886945065	0.3635030558377792
em_helix_mop_octamer_270	     6	12.01078	0.0000000000000000	A    	0.3480646886945065	0.3635030558377792
em_helix_mop_octamer_271	     6	12.01078	0.0000000000000000	A    	0.3480646886945065	0.3635030558377792
em_helix_mop_octamer_272	     6	12.01078	0.0000000000000000	A    	0.3480646886945065	0.3635030558377792
em_helix_mop_octamer_273	     6	12.01078	0.0000000000000000	A    	0.3480646886945065	0.3635030558377792
em_helix_mop_octamer_274	     8	15.99943	0.0000000000000000	A    	0.3025106490435313	0.7048581468486769
em_helix_mop_octamer_275	     6	12.01078	0.0000000000000000	A    	0.3399669508423535	0.4577296
em_helix_mop_octamer_276	     6	12.01078	0.0000000000000000	A    	0.3480646886945065	0.3635030558377792
em_helix_mop_octamer_277	     6	12.01078	0.0000000000000000	A    	0.3480646886945065	0.3635030558377792
em_helix_mop_octamer_278	     6	12.01078	0.0000000000000000	A    	0.3480646886945065	0.3635030558377792
em_helix_mop_octamer_279	     6	12.01078	0.0000000000000000	A    	0.3480646886945065	0.3635030558377792
em_helix_mop_octamer_280	     6	12.01078	0.0000000000000000	A    	0.3480646886945065	0.3635030558377792
em_helix_mop_octamer_281	     6	12.01078	0.0000000000000000	A    	0.3480646886945065	0.3635030558377792
em_helix_mop_octamer_282	     6	12.01078	0.0000000000000000	A    	0.3480646886945065	0.3635030558377792
em_helix_mop_octamer_283	     6	12.01078	0.0000000000000000	A    	0.3480646886945065	0.3635030558377792
em_helix_mop_octamer_284	     6	12.01078	0.0000000000000000	A    	0.3399669508423535	0.4577296
em_helix_mop_octamer_285	     7	14.00672	0.0000000000000000	A    	0.3206876023663901	0.7016212989374017
em_helix_mop_octamer_286	     6	12.01078	0.0000000000000000	A    	0.3399669508423535	0.4577296
em_helix_mop_octamer_287	     6	12.01078	0.0000000000000000	A    	0.3480646886945065	0.3635030558377792
em_helix_mop_octamer_288	     6	12.01078	0.0000000000000000	A    	0.3480646886945065	0.3635030558377792
em_helix_mop_octamer_289	     1	1.007947	0.0000000000000000	A    	0.2572581535063279	0.06531785996356952
em_helix_mop_octamer_290	     1	1.007947	0.0000000000000000	A    	0.2572581535063279	0.06531785996356952
em_helix_mop_octamer_291	     1	1.007947	0.0000000000000000	A    	0.2572581535063279	0.06531785996356952
em_helix_mop_octamer_292	     1	1.007947	0.0000000000000000	A    	0.2583225710839196	0.068656285380106
em_helix_mop_octamer_293	     1	1.007947	0.0000000000000000	A    	0.2583225710839196	0.068656285380106
em_helix_mop_octamer_294	     1	1.007947	0.0000000000000000	A    	0.2583225710839196	0.068656285380106
em_helix_mop_octamer_295	     1	1.007947	0.0000000000000000	A    	0.2572581535063279	0.06531785996356952
em_helix_mop_octamer_296	     1	1.007947	0.0000000000000000	A    	0.2572581535063279	0.06531785996356952
em_helix_mop_octamer_297	     1	1.007947	0.0000000000000000	A    	0.2572581535063279	0.06531785996356952
em_helix_mop_octamer_298	     1	1.007947	0.0000000000000000	A    	0.2572581535063279	0.06531785996356952
em_helix_mop_octamer_299	     1	1.007947	0.0000000000000000	A    	0.2572581535063279	0.06531785996356952
em_helix_mop_octamer_300	     1	1.007947	0.0000000000000000	A    	0.2572581535063279	0.06531785996356952
em_helix_mop_octamer_301	     1	1.007947	0.0000000000000000	A    	0.2583225710839196	0.068656285380106
em_helix_mop_octamer_302	     1	1.007947	0.0000000000000000	A    	0.1103427677297317	0.05895596890015097
em_helix_mop_octamer_303	     1	1.007947	0.0000000000000000	A    	0.2644543413268124	0.06602135607582665
em_helix_mop_octamer_304	     1	1.007947	0.0000000000000000	A    	0.2644543413268124	0.06602135607582665
em_helix_mop_octamer_305	     1	1.007947	0.0000000000000000	A    	0.2644543413268124	0.06602135607582665
em_helix_mop_octamer_306	     1	1.007947	0.0000000000000000	A    	0.2572581535063279	0.06531785996356952
em_helix_mop_octamer_307	     1	1.007947	0.0000000000000000	A    	0.2572581535063279	0.06531785996356952
em_helix_mop_octamer_308	     6	12.01078	0.0000000000000000	A    	0.3480646886945065	0.3635030558377792
em_helix_mop_octamer_309	     8	15.99943	0.0000000000000000	A    	0.3039812205065809	0.8795023257036865
em_helix_mop_octamer_310	     6	12.01078	0.0000000000000000	A    	0.3480646886945065	0.3635030558377792
em_helix_mop_octamer_311	     6	12.01078	0.0000000000000000	A    	0.3480646886945065	0.3635030558377792
em_helix_mop_octamer_312	     6	12.01078	0.0000000000000000	A    	0.3480646886945065	0.3635030558377792
em_helix_mop_octamer_313	     6	12.01078	0.0000000000000000	A    	0.3480646886945065	0.3635030558377792
em_helix_mop_octamer_314	     6	12.01078	0.0000000000000000	A    	0.3480646886945065	0.3635030558377792
em_helix_mop_octamer_315	     6	12.01078	0.0000000000000000	A    	0.3480646886945065	0.3635030558377792
em_helix_mop_octamer_316	     6	12.01078	0.0000000000000000	A    	0.3480646886945065	0.3635030558377792
em_helix_mop_octamer_317	     6	12.01078	0.0000000000000000	A    	0.3480646886945065	0.3635030558377792
em_helix_mop_octamer_318	     8	15.99943	0.0000000000000000	A    	0.3025106490435313	0.7048581468486769
em_helix_mop_octamer_319	     6	12.01078	0.0000000000000000	A    	0.3399669508423535	0.4577296
em_helix_mop_octamer_320	     6	12.01078	0.0000000000000000	A    	0.3480646886945065	0.3635030558377792
em_helix_mop_octamer_321	     6	12.01078	0.0000000000000000	A    	0.3480646886945065	0.3635030558377792
em_helix_mop_octamer_322	     6	12.01078	0.0000000000000000	A    	0.3480646886945065	0.3635030558377792
em_helix_mop_octamer_323	     6	12.01078	0.0000000000000000	A    	0.3480646886945065	0.3635030558377792
em_helix_mop_octamer_324	     6	12.01078	0.0000000000000000	A    	0.3480646886945065	0.3635030558377792
em_helix_mop_octamer_325	     6	12.01078	0.0000000000000000	A    	0.3480646886945065	0.3635030558377792
em_helix_mop_octamer_326	     6	12.01078	0.0000000000000000	A    	0.3480646886945065	0.3635030558377792
em_helix_mop_octamer_327	     6	12.01078	0.0000000000000000	A    	0.3480646886945065	0.3635030558377792
em_helix_mop_octamer_328	     6	12.01078	0.0000000000000000	A    	0.3399669508423535	0.4577296
em_helix_mop_octamer_329	     7	14.00672	0.0000000000000000	A    	0.3206876023663901	0.7016212989374017
em_helix_mop_octamer_330	     6	12.01078	0.0000000000000000	A    	0.3399669508423535	0.4577296
em_helix_mop_octamer_331	     6	12.01078	0.0000000000000000	A    	0.3480646886945065	0.3635030558377792
em_helix_mop_octamer_332	     6	12.01078	0.0000000000000000	A    	0.3480646886945065	0.3635030558377792
em_helix_mop_octamer_333	     1	1.007947	0.0000000000000000	A    	0.2572581535063279	0.06531785996356952
em_helix_mop_octamer_334	     1	1.007947	0.0000000000000000	A    	0.2572581535063279	0.06531785996356952
em_helix_mop_octamer_335	     1	1.007947	0.0000000000000000	A    	0.2572581535063279	0.06531785996356952
em_helix_mop_octamer_336	     1	1.007947	0.0000000000000000	A    	0.2583225710839196	0.068656285380106
em_helix_mop_octamer_337	     1	1.007947	0.0000000000000000	A    	0.2583225710839196	0.068656285380106
em_helix_mop_octamer_338	     1	1.007947	0.0000000000000000	A    	0.2583225710839196	0.068656285380106
em_helix_mop_octamer_339	     1	1.007947	0.0000000000000000	A    	0.2572581535063279	0.06531785996356952
em_helix_mop_octamer_340	     1	1.007947	0.0000000000000000	A    	0.2572581535063279	0.06531785996356952
em_helix_mop_octamer_341	     1	1.007947	0.0000000000000000	A    	0.2572581535063279	0.06531785996356952
em_helix_mop_octamer_342	     1	1.007947	0.0000000000000000	A    	0.2572581535063279	0.06531785996356952
em_helix_mop_octamer_343	     1	1.007947	0.0000000000000000	A    	0.2572581535063279	0.06531785996356952
em_helix_mop_octamer_344	     1	1.007947	0.0000000000000000	A    	0.2572581535063279	0.06531785996356952
em_helix_mop_octamer_345	     1	1.007947	0.0000000000000000	A    	0.2583225710839196	0.068656285380106
em_helix_mop_octamer_346	     1	1.007947	0.0000000000000000	A    	0.1103427677297317	0.05895596890015097
em_helix_mop_octamer_347	     1	1.007947	0.0000000000000000	A    	0.2644543413268124	0.06602135607582665
em_helix_mop_octamer_348	     1	1.007947	0.0000000000000000	A    	0.2644543413268124	0.06602135607582665
em_helix_mop_octamer_349	     1	1.007947	0.0000000000000000	A    	0.2644543413268124	0.06602135607582665
em_helix_mop_octamer_350	     1	1.007947	0.0000000000000000	A    	0.2572581535063279	0.06531785996356952
em_helix_mop_octamer_351	     1	1.007947	0.0000000000000000	A    	0.2572581535063279	0.06531785996356952
em_helix_mop_octamer_352	     6	12.01078	0.0000000000000000	A    	0.3399669508423535	0.4577296
em_helix_mop_octamer_353	     8	15.99943	0.0000000000000000	A    	0.3025106490435313	0.7048581468486769
em_helix_mop_octamer_354	     1	1.007947	0.0000000000000000	A    	0.2583225710839196	0.068656285380106
em_helix_mop_octamer_355	     1	1.007947	0.0000000000000000	A    	0.2583225710839196	0.068656285380106
em_helix_mop_octamer_356	     1	1.007947	0.0000000000000000	A    	0.2583225710839196	0.068656285380106
em_helix_mop_octamer_357	     6	12.01078	0.0000000000000000	A    	0.3399669508423535	0.4577296
em_helix_mop_octamer_358	     6	12.01078	0.0000000000000000	A    	0.3399669508423535	0.4577296
em_helix_mop_octamer_359	     6	12.01078	0.0000000000000000	A    	0.3399669508423535	0.4577296
em_helix_mop_octamer_360	     6	12.01078	0.0000000000000000	A    	0.3399669508423535	0.4577296
em_helix_mop_octamer_361	     8	15.99943	0.0000000000000000	A    	0.3025106490435313	0.7048581468486769
em_helix_mop_octamer_362	     6	12.01078	0.0000000000000000	A    	0.3480646886945065	0.3635030558377792
em_helix_mop_octamer_363	     8	15.99943	0.0000000000000000	A    	0.3039812205065809	0.8795023257036865
em_helix_mop_octamer_364	     1	1.007947	0.0000000000000000	A    	0.2644543413268124	0.06602135607582665
em_helix_mop_octamer_365	     1	1.007947	0.0000000000000000	A    	0.2644543413268124	0.06602135607582665
em_helix_mop_octamer_366	     1	1.007947	0.0000000000000000	A    	0.2644543413268124	0.06602135607582665
em_helix_mop_octamer_367	     1	1.007947	0.0000000000000000	A    	0.2644543413268124	0.06602135607582665
em_helix_mop_octamer_368	     1	1.007947	0.0000000000000000	A    	0.2644543413268124	0.06602135607582665
em_helix_mop_octamer_369	     1	1.007947	0.0000000000000000	A    	0.2644543413268124	0.06602135607582665
em_helix_mop_octamer_370	     1	1.007947	0.0000000000000000	A    	0.2644543413268124	0.06602135607582665
em_helix_mop_octamer_371	     1	1.007947	0.0000000000000000	A    	0.2644543413268124	0.06602135607582665
em_helix_mop_octamer_372	     1	1.007947	0.0000000000000000	A    	0.2644543413268124	0.06602135607582665
TCM_0      	     6	12.01078	0.0000000000000000	A    	0.3399669508423535	0.4577296
TCM_1      	    17	35.4532	0.0000000000000000	A    	0.3470941405874761	1.10876
TCM_2      	    17	35.4532	0.0000000000000000	A    	0.3470941405874761	1.10876
TCM_3      	     1	1.007947	0.0000000000000000	A    	0.2114993556865165	0.06568879999999999
TCM_4      	    17	35.4532	0.0000000000000000	A    	0.3470941405874761	1.10876

[ moleculetype ]
em_helix_mop_octamer	         3

[ atoms ]
;index, atom type, resnum, resname, name, cgnr, charge, mass
     1 em_helix_mop_octamer_0       1 MOP      C1         1      0.647750020027     12.010780000000
     2 em_helix_mop_octamer_1       1 MOP      O1         1     -0.551119983196     15.999430000000
     3 em_helix_mop_octamer_2       1 MOP      C2         1     -0.139770001173     12.010780000000
     4 em_helix_mop_octamer_3       1 MOP      C3         1     -0.074479997158     12.010780000000
     5 em_helix_mop_octamer_4       1 MOP      C4         1     -0.124739997089     12.010780000000
     6 em_helix_mop_octamer_5       1 MOP      C5         1     -0.003070000093     12.010780000000
     7 em_helix_mop_octamer_6       1 MOP      C6         1     -0.074380002916     12.010780000000
     8 em_helix_mop_octamer_7       1 MOP      C7         1      0.010239999741     12.010780000000
     9 em_helix_mop_octamer_8       1 MOP      C8         1     -0.144899994135     12.010780000000
    10 em_helix_mop_octamer_9       1 MOP      C9         1      0.128480002284     12.010780000000
    11 em_helix_mop_octamer_10       1 MOP      O2         1     -0.325379997492     15.999430000000
    12 em_helix_mop_octamer_11       1 MOP      C10        1      0.113439999521     12.010780000000
    13 em_helix_mop_octamer_12       1 MOP      C11        1     -0.206740006804     12.010780000000
    14 em_helix_mop_octamer_13       1 MOP      C12        1     -0.084229998291     12.010780000000
    15 em_helix_mop_octamer_14       1 MOP      C13        1     -0.047019999474     12.010780000000
    16 em_helix_mop_octamer_15       1 MOP      C14        1     -0.107680000365     12.010780000000
    17 em_helix_mop_octamer_16       1 MOP      C15        1     -0.132159993052     12.010780000000
    18 em_helix_mop_octamer_17       1 MOP      C16        1     -0.117420002818     12.010780000000
    19 em_helix_mop_octamer_18       1 MOP      C17        1     -0.111539997160     12.010780000000
    20 em_helix_mop_octamer_19       1 MOP      C18        1     -0.089659996331     12.010780000000
    21 em_helix_mop_octamer_20       1 MOP      C19        1      0.144859999418     12.010780000000
    22 em_helix_mop_octamer_21       1 MOP      N1         1     -0.564149975777     14.006720000000
    23 em_helix_mop_octamer_22       1 MOP      C20        1     -0.101099997759     12.010780000000
    24 em_helix_mop_octamer_23       1 MOP      C21        1     -0.124739997089     12.010780000000
    25 em_helix_mop_octamer_24       1 MOP      C22        1     -0.074479997158     12.010780000000
    26 em_helix_mop_octamer_25       1 MOP      H1         1      0.150150001049      1.007947000000
    27 em_helix_mop_octamer_26       1 MOP      H2         1      0.145950004458      1.007947000000
    28 em_helix_mop_octamer_27       1 MOP      H3         1      0.157480001450      1.007947000000
    29 em_helix_mop_octamer_28       1 MOP      H4         1      0.045430000871      1.007947000000
    30 em_helix_mop_octamer_29       1 MOP      H5         1      0.045430000871      1.007947000000
    31 em_helix_mop_octamer_30       1 MOP      H6         1      0.045430000871      1.007947000000
    32 em_helix_mop_octamer_31       1 MOP      H7         1      0.137920007110      1.007947000000
    33 em_helix_mop_octamer_32       1 MOP      H8         1      0.141699999571      1.007947000000
    34 em_helix_mop_octamer_33       1 MOP      H9         1      0.136069998145      1.007947000000
    35 em_helix_mop_octamer_34       1 MOP      H10        1      0.133039996028      1.007947000000
    36 em_helix_mop_octamer_35       1 MOP      H11        1      0.127100005746      1.007947000000
    37 em_helix_mop_octamer_36       1 MOP      H12        1      0.146750003099      1.007947000000
    38 em_helix_mop_octamer_37       1 MOP      H13        1      0.090620003641      1.007947000000
    39 em_helix_mop_octamer_38       1 MOP      H14        1      0.306560009718      1.007947000000
    40 em_helix_mop_octamer_39       1 MOP      H15        1      0.044569998980      1.007947000000
    41 em_helix_mop_octamer_40       1 MOP      H16        1      0.044569998980      1.007947000000
    42 em_helix_mop_octamer_41       1 MOP      H17        1      0.044569998980      1.007947000000
    43 em_helix_mop_octamer_42       1 MOP      H18        1      0.145950004458      1.007947000000
    44 em_helix_mop_octamer_43       1 MOP      H19        1      0.150150001049      1.007947000000
    45 em_helix_mop_octamer_44       2 MOP      C23        1      0.678960025311     12.010780000000
    46 em_helix_mop_octamer_45       2 MOP      O3         1     -0.607840001583     15.999430000000
    47 em_helix_mop_octamer_46       2 MOP      C24        1     -0.145659998059     12.010780000000
    48 em_helix_mop_octamer_47       2 MOP      C25        1     -0.090729996562     12.010780000000
    49 em_helix_mop_octamer_48       2 MOP      C26        1     -0.124729998410     12.010780000000
    50 em_helix_mop_octamer_49       2 MOP      C27        1     -0.010180000216     12.010780000000
    51 em_helix_mop_octamer_50       2 MOP      C28        1     -0.074280001223     12.010780000000
    52 em_helix_mop_octamer_51       2 MOP      C29        1      0.008070000447     12.010780000000
    53 em_helix_mop_octamer_52       2 MOP      C30        1     -0.146160006523     12.010780000000
    54 em_helix_mop_octamer_53       2 MOP      C31        1      0.127590000629     12.010780000000
    55 em_helix_mop_octamer_54       2 MOP      O4         1     -0.325549989939     15.999430000000
    56 em_helix_mop_octamer_55       2 MOP      C32        1      0.112769998610     12.010780000000
    57 em_helix_mop_octamer_56       2 MOP      C33        1     -0.204229995608     12.010780000000
    58 em_helix_mop_octamer_57       2 MOP      C34        1     -0.082450002432     12.010780000000
    59 em_helix_mop_octamer_58       2 MOP      C35        1     -0.042640000582     12.010780000000
    60 em_helix_mop_octamer_59       2 MOP      C36        1     -0.107799999416     12.010780000000
    61 em_helix_mop_octamer_60       2 MOP      C37        1     -0.131669998169     12.010780000000
    62 em_helix_mop_octamer_61       2 MOP      C38        1     -0.107309997082     12.010780000000
    63 em_helix_mop_octamer_62       2 MOP      C39        1     -0.099349997938     12.010780000000
    64 em_helix_mop_octamer_63       2 MOP      C40        1     -0.107610002160     12.010780000000
    65 em_helix_mop_octamer_64       2 MOP      C41        1      0.155180007219     12.010780000000
    66 em_helix_mop_octamer_65       2 MOP      N2         1     -0.567349970341     14.006720000000
    67 em_helix_mop_octamer_66       2 MOP      C42        1     -0.112479999661     12.010780000000
    68 em_helix_mop_octamer_67       2 MOP      C43        1     -0.124729998410     12.010780000000
    69 em_helix_mop_octamer_68       2 MOP      C44        1     -0.090729996562     12.010780000000
    70 em_helix_mop_octamer_69       2 MOP      H20        1      0.146459996700      1.007947000000
    71 em_helix_mop_octamer_70       2 MOP      H21        1      0.142729997635      1.007947000000
    72 em_helix_mop_octamer_71       2 MOP      H22        1      0.157150000334      1.007947000000
    73 em_helix_mop_octamer_72       2 MOP      H23        1      0.045370001346      1.007947000000
    74 em_helix_mop_octamer_73       2 MOP      H24        1      0.045370001346      1.007947000000
    75 em_helix_mop_octamer_74       2 MOP      H25        1      0.045370001346      1.007947000000
    76 em_helix_mop_octamer_75       2 MOP      H26        1      0.140670001507      1.007947000000
    77 em_helix_mop_octamer_76       2 MOP      H27        1      0.140569999814      1.007947000000
    78 em_helix_mop_octamer_77       2 MOP      H28        1      0.136240005493      1.007947000000
    79 em_helix_mop_octamer_78       2 MOP      H29        1      0.134360000491      1.007947000000
    80 em_helix_mop_octamer_79       2 MOP      H30        1      0.139280006289      1.007947000000
    81 em_helix_mop_octamer_80       2 MOP      H31        1      0.137109994888      1.007947000000
    82 em_helix_mop_octamer_81       2 MOP      H32        1      0.084310002625      1.007947000000
    83 em_helix_mop_octamer_82       2 MOP      H33        1      0.313239991665      1.007947000000
    84 em_helix_mop_octamer_83       2 MOP      H34        1      0.045480001718      1.007947000000
    85 em_helix_mop_octamer_84       2 MOP      H35        1      0.045480001718      1.007947000000
    86 em_helix_mop_octamer_85       2 MOP      H36        1      0.045480001718      1.007947000000
    87 em_helix_mop_octamer_86       2 MOP      H37        1      0.142729997635      1.007947000000
    88 em_helix_mop_octamer_87       2 MOP      H38        1      0.146459996700      1.007947000000
    89 em_helix_mop_octamer_88       3 MOP      C45        1      0.676429986954     12.010780000000
    90 em_helix_mop_octamer_89       3 MOP      O5         1     -0.616339981556     15.999430000000
    91 em_helix_mop_octamer_90       3 MOP      C46        1     -0.139210000634     12.010780000000
    92 em_helix_mop_octamer_91       3 MOP      C47        1     -0.092270001769     12.010780000000
    93 em_helix_mop_octamer_92       3 MOP      C48        1     -0.124990001321     12.010780000000
    94 em_helix_mop_octamer_93       3 MOP      C49        1     -0.012500000186     12.010780000000
    95 em_helix_mop_octamer_94       3 MOP      C50        1     -0.072640001774     12.010780000000
    96 em_helix_mop_octamer_95       3 MOP      C51        1      0.006500000134     12.010780000000
    97 em_helix_mop_octamer_96       3 MOP      C52        1     -0.144280001521     12.010780000000
    98 em_helix_mop_octamer_97       3 MOP      C53        1      0.123989999294     12.010780000000
    99 em_helix_mop_octamer_98       3 MOP      O6         1     -0.325410008430     15.999430000000
   100 em_helix_mop_octamer_99       3 MOP      C54        1      0.111100003123     12.010780000000
   101 em_helix_mop_octamer_100       3 MOP      C55        1     -0.203470006585     12.010780000000
   102 em_helix_mop_octamer_101       3 MOP      C56        1     -0.081849999726     12.010780000000
   103 em_helix_mop_octamer_102       3 MOP      C57        1     -0.042220000178     12.010780000000
   104 em_helix_mop_octamer_103       3 MOP      C58        1     -0.103849999607     12.010780000000
   105 em_helix_mop_octamer_104       3 MOP      C59        1     -0.131579995155     12.010780000000
   106 em_helix_mop_octamer_105       3 MOP      C60        1     -0.113260000944     12.010780000000
   107 em_helix_mop_octamer_106       3 MOP      C61        1     -0.102559998631     12.010780000000
   108 em_helix_mop_octamer_107       3 MOP      C62        1     -0.108850002289     12.010780000000
   109 em_helix_mop_octamer_108       3 MOP      C63        1      0.153699994087     12.010780000000
   110 em_helix_mop_octamer_109       3 MOP      N3         1     -0.566569983959     14.006720000000
   111 em_helix_mop_octamer_110       3 MOP      C64        1     -0.114339999855     12.010780000000
   112 em_helix_mop_octamer_111       3 MOP      C65        1     -0.124990001321     12.010780000000
   113 em_helix_mop_octamer_112       3 MOP      C66        1     -0.092270001769     12.010780000000
   114 em_helix_mop_octamer_113       3 MOP      H39        1      0.148959994316      1.007947000000
   115 em_helix_mop_octamer_114       3 MOP      H40        1      0.140389993787      1.007947000000
   116 em_helix_mop_octamer_115       3 MOP      H41        1      0.156100004911      1.007947000000
   117 em_helix_mop_octamer_116       3 MOP      H42        1      0.045030001551      1.007947000000
   118 em_helix_mop_octamer_117       3 MOP      H43        1      0.045030001551      1.007947000000
   119 em_helix_mop_octamer_118       3 MOP      H44        1      0.045030001551      1.007947000000
   120 em_helix_mop_octamer_119       3 MOP      H45        1      0.141230002046      1.007947000000
   121 em_helix_mop_octamer_120       3 MOP      H46        1      0.144580006599      1.007947000000
   122 em_helix_mop_octamer_121       3 MOP      H47        1      0.140819996595      1.007947000000
   123 em_helix_mop_octamer_122       3 MOP      H48        1      0.136810004711      1.007947000000
   124 em_helix_mop_octamer_123       3 MOP      H49        1      0.139249995351      1.007947000000
   125 em_helix_mop_octamer_124       3 MOP      H50        1      0.135539993644      1.007947000000
   126 em_helix_mop_octamer_125       3 MOP      H51        1      0.083149999380      1.007947000000
   127 em_helix_mop_octamer_126       3 MOP      H52        1      0.312999993563      1.007947000000
   128 em_helix_mop_octamer_127       3 MOP      H53        1      0.044270001352      1.007947000000
   129 em_helix_mop_octamer_128       3 MOP      H54        1      0.044270001352      1.007947000000
   130 em_helix_mop_octamer_129       3 MOP      H55        1      0.044270001352      1.007947000000
   131 em_helix_mop_octamer_130       3 MOP      H56        1      0.140389993787      1.007947000000
   132 em_helix_mop_octamer_131       3 MOP      H57        1      0.148959994316      1.007947000000
   133 em_helix_mop_octamer_132       4 MOP      C67        1      0.677429974079     12.010780000000
   134 em_helix_mop_octamer_133       4 MOP      O7         1     -0.614139974117     15.999430000000
   135 em_helix_mop_octamer_134       4 MOP      C68        1     -0.142810001969     12.010780000000
   136 em_helix_mop_octamer_135       4 MOP      C69        1     -0.095990002155     12.010780000000
   137 em_helix_mop_octamer_136       4 MOP      C70        1     -0.126200005412     12.010780000000
   138 em_helix_mop_octamer_137       4 MOP      C71        1     -0.005989999976     12.010780000000
   139 em_helix_mop_octamer_138       4 MOP      C72        1     -0.077990002930     12.010780000000
   140 em_helix_mop_octamer_139       4 MOP      C73        1      0.006819999777     12.010780000000
   141 em_helix_mop_octamer_140       4 MOP      C74        1     -0.144810006022     12.010780000000
   142 em_helix_mop_octamer_141       4 MOP      C75        1      0.127719998360     12.010780000000
   143 em_helix_mop_octamer_142       4 MOP      O8         1     -0.327050000429     15.999430000000
   144 em_helix_mop_octamer_143       4 MOP      C76        1      0.112190000713     12.010780000000
   145 em_helix_mop_octamer_144       4 MOP      C77        1     -0.198850005865     12.010780000000
   146 em_helix_mop_octamer_145       4 MOP      C78        1     -0.078029997647     12.010780000000
   147 em_helix_mop_octamer_146       4 MOP      C79        1     -0.040160000324     12.010780000000
   148 em_helix_mop_octamer_147       4 MOP      C80        1     -0.107170000672     12.010780000000
   149 em_helix_mop_octamer_148       4 MOP      C81        1     -0.133520007133     12.010780000000
   150 em_helix_mop_octamer_149       4 MOP      C82        1     -0.110019996762     12.010780000000
   151 em_helix_mop_octamer_150       4 MOP      C83        1     -0.098920002580     12.010780000000
   152 em_helix_mop_octamer_151       4 MOP      C84        1     -0.108190000057     12.010780000000
   153 em_helix_mop_octamer_152       4 MOP      C85        1      0.148709997535     12.010780000000
   154 em_helix_mop_octamer_153       4 MOP      N4         1     -0.568319976330     14.006720000000
   155 em_helix_mop_octamer_154       4 MOP      C86        1     -0.113619998097     12.010780000000
   156 em_helix_mop_octamer_155       4 MOP      C87        1     -0.126200005412     12.010780000000
   157 em_helix_mop_octamer_156       4 MOP      C88        1     -0.095990002155     12.010780000000
   158 em_helix_mop_octamer_157       4 MOP      H58        1      0.144449993968      1.007947000000
   159 em_helix_mop_octamer_158       4 MOP      H59        1      0.145119994879      1.007947000000
   160 em_helix_mop_octamer_159       4 MOP      H60        1      0.156029999256      1.007947000000
   161 em_helix_mop_octamer_160       4 MOP      H61        1      0.046069998294      1.007947000000
   162 em_helix_mop_octamer_161       4 MOP      H62        1      0.046069998294      1.007947000000
   163 em_helix_mop_octamer_162       4 MOP      H63        1      0.046069998294      1.007947000000
   164 em_helix_mop_octamer_163       4 MOP      H64        1      0.142279997468      1.007947000000
   165 em_helix_mop_octamer_164       4 MOP      H65        1      0.142550006509      1.007947000000
   166 em_helix_mop_octamer_165       4 MOP      H66        1      0.140009999275      1.007947000000
   167 em_helix_mop_octamer_166       4 MOP      H67        1      0.133369997144      1.007947000000
   168 em_helix_mop_octamer_167       4 MOP      H68        1      0.138390004635      1.007947000000
   169 em_helix_mop_octamer_168       4 MOP      H69        1      0.134790003300      1.007947000000
   170 em_helix_mop_octamer_169       4 MOP      H70        1      0.087209999561      1.007947000000
   171 em_helix_mop_octamer_170       4 MOP      H71        1      0.310429990292      1.007947000000
   172 em_helix_mop_octamer_171       4 MOP      H72        1      0.045139998198      1.007947000000
   173 em_helix_mop_octamer_172       4 MOP      H73        1      0.045139998198      1.007947000000
   174 em_helix_mop_octamer_173       4 MOP      H74        1      0.045139998198      1.007947000000
   175 em_helix_mop_octamer_174       4 MOP      H75        1      0.145119994879      1.007947000000
   176 em_helix_mop_octamer_175       4 MOP      H76        1      0.144449993968      1.007947000000
   177 em_helix_mop_octamer_176       5 MOP      C89        1      0.676789999008     12.010780000000
   178 em_helix_mop_octamer_177       5 MOP      O9         1     -0.610130012035     15.999430000000
   179 em_helix_mop_octamer_178       5 MOP      C90        1     -0.143120005727     12.010780000000
   180 em_helix_mop_octamer_179       5 MOP      C91        1     -0.093160003424     12.010780000000
   181 em_helix_mop_octamer_180       5 MOP      C92        1     -0.125510007143     12.010780000000
   182 em_helix_mop_octamer_181       5 MOP      C93        1     -0.010189999826     12.010780000000
   183 em_helix_mop_octamer_182       5 MOP      C94        1     -0.074199996889     12.010780000000
   184 em_helix_mop_octamer_183       5 MOP      C95        1      0.005580000114     12.010780000000
   185 em_helix_mop_octamer_184       5 MOP      C96        1     -0.139929994941     12.010780000000
   186 em_helix_mop_octamer_185       5 MOP      C97        1      0.125019997358     12.010780000000
   187 em_helix_mop_octamer_186       5 MOP      O10        1     -0.322050005198     15.999430000000
   188 em_helix_mop_octamer_187       5 MOP      C98        1      0.113700002432     12.010780000000
   189 em_helix_mop_octamer_188       5 MOP      C99        1     -0.208350002766     12.010780000000
   190 em_helix_mop_octamer_189       5 MOP      C100       1     -0.083269998431     12.010780000000
   191 em_helix_mop_octamer_190       5 MOP      C101       1     -0.036439999938     12.010780000000
   192 em_helix_mop_octamer_191       5 MOP      C102       1     -0.104070000350     12.010780000000
   193 em_helix_mop_octamer_192       5 MOP      C103       1     -0.129010006785     12.010780000000
   194 em_helix_mop_octamer_193       5 MOP      C104       1     -0.107179999352     12.010780000000
   195 em_helix_mop_octamer_194       5 MOP      C105       1     -0.105269998312     12.010780000000
   196 em_helix_mop_octamer_195       5 MOP      C106       1     -0.105980001390     12.010780000000
   197 em_helix_mop_octamer_196       5 MOP      C107       1      0.155980005860     12.010780000000
   198 em_helix_mop_octamer_197       5 MOP      N5         1     -0.570490002632     14.006720000000
   199 em_helix_mop_octamer_198       5 MOP      C108       1     -0.108920000494     12.010780000000
   200 em_helix_mop_octamer_199       5 MOP      C109       1     -0.125510007143     12.010780000000
   201 em_helix_mop_octamer_200       5 MOP      C110       1     -0.093160003424     12.010780000000
   202 em_helix_mop_octamer_201       5 MOP      H77        1      0.147100001574      1.007947000000
   203 em_helix_mop_octamer_202       5 MOP      H78        1      0.143580004573      1.007947000000
   204 em_helix_mop_octamer_203       5 MOP      H79        1      0.170860007405      1.007947000000
   205 em_helix_mop_octamer_204       5 MOP      H80        1      0.042849998921      1.007947000000
   206 em_helix_mop_octamer_205       5 MOP      H81        1      0.042849998921      1.007947000000
   207 em_helix_mop_octamer_206       5 MOP      H82        1      0.042849998921      1.007947000000
   208 em_helix_mop_octamer_207       5 MOP      H83        1      0.137109994888      1.007947000000
   209 em_helix_mop_octamer_208       5 MOP      H84        1      0.139699995518      1.007947000000
   210 em_helix_mop_octamer_209       5 MOP      H85        1      0.136449992657      1.007947000000
   211 em_helix_mop_octamer_210       5 MOP      H86        1      0.134709998965      1.007947000000
   212 em_helix_mop_octamer_211       5 MOP      H87        1      0.137740001082      1.007947000000
   213 em_helix_mop_octamer_212       5 MOP      H88        1      0.132850006223      1.007947000000
   214 em_helix_mop_octamer_213       5 MOP      H89        1      0.078950002789      1.007947000000
   215 em_helix_mop_octamer_214       5 MOP      H90        1      0.318250000477      1.007947000000
   216 em_helix_mop_octamer_215       5 MOP      H91        1      0.043600000441      1.007947000000
   217 em_helix_mop_octamer_216       5 MOP      H92        1      0.043600000441      1.007947000000
   218 em_helix_mop_octamer_217       5 MOP      H93        1      0.043600000441      1.007947000000
   219 em_helix_mop_octamer_218       5 MOP      H94        1      0.143580004573      1.007947000000
   220 em_helix_mop_octamer_219       5 MOP      H95        1      0.147100001574      1.007947000000
   221 em_helix_mop_octamer_220       6 MOP      C111       1      0.676689982414     12.010780000000
   222 em_helix_mop_octamer_221       6 MOP      O11        1     -0.616249978542     15.999430000000
   223 em_helix_mop_octamer_222       6 MOP      C112       1     -0.138809993863     12.010780000000
   224 em_helix_mop_octamer_223       6 MOP      C113       1     -0.091360002756     12.010780000000
   225 em_helix_mop_octamer_224       6 MOP      C114       1     -0.125310003757     12.010780000000
   226 em_helix_mop_octamer_225       6 MOP      C115       1     -0.011169999838     12.010780000000
   227 em_helix_mop_octamer_226       6 MOP      C116       1     -0.073720000684     12.010780000000
   228 em_helix_mop_octamer_227       6 MOP      C117       1      0.006779999938     12.010780000000
   229 em_helix_mop_octamer_228       6 MOP      C118       1     -0.146599993110     12.010780000000
   230 em_helix_mop_octamer_229       6 MOP      C119       1      0.132569998503     12.010780000000
   231 em_helix_mop_octamer_230       6 MOP      O12        1     -0.323300004005     15.999430000000
   232 em_helix_mop_octamer_231       6 MOP      C120       1      0.111519999802     12.010780000000
   233 em_helix_mop_octamer_232       6 MOP      C121       1     -0.203089997172     12.010780000000
   234 em_helix_mop_octamer_233       6 MOP      C122       1     -0.084930002689     12.010780000000
   235 em_helix_mop_octamer_234       6 MOP      C123       1     -0.039110001177     12.010780000000
   236 em_helix_mop_octamer_235       6 MOP      C124       1     -0.109269998968     12.010780000000
   237 em_helix_mop_octamer_236       6 MOP      C125       1     -0.128800004721     12.010780000000
   238 em_helix_mop_octamer_237       6 MOP      C126       1     -0.112190000713     12.010780000000
   239 em_helix_mop_octamer_238       6 MOP      C127       1     -0.106899999082     12.010780000000
   240 em_helix_mop_octamer_239       6 MOP      C128       1     -0.105650000274     12.010780000000
   241 em_helix_mop_octamer_240       6 MOP      C129       1      0.146520003676     12.010780000000
   242 em_helix_mop_octamer_241       6 MOP      N6         1     -0.560819983482     14.006720000000
   243 em_helix_mop_octamer_242       6 MOP      C130       1     -0.102930001915     12.010780000000
   244 em_helix_mop_octamer_243       6 MOP      C131       1     -0.125310003757     12.010780000000
   245 em_helix_mop_octamer_244       6 MOP      C132       1     -0.091360002756     12.010780000000
   246 em_helix_mop_octamer_245       6 MOP      H96        1      0.145160004497      1.007947000000
   247 em_helix_mop_octamer_246       6 MOP      H97        1      0.141090005636      1.007947000000
   248 em_helix_mop_octamer_247       6 MOP      H98        1      0.155149996281      1.007947000000
   249 em_helix_mop_octamer_248       6 MOP      H99        1      0.046429999173      1.007947000000
   250 em_helix_mop_octamer_249       6 MOP      H100       1      0.046429999173      1.007947000000
   251 em_helix_mop_octamer_250       6 MOP      H101       1      0.046429999173      1.007947000000
   252 em_helix_mop_octamer_251       6 MOP      H102       1      0.140609994531      1.007947000000
   253 em_helix_mop_octamer_252       6 MOP      H103       1      0.138459995389      1.007947000000
   254 em_helix_mop_octamer_253       6 MOP      H104       1      0.136380001903      1.007947000000
   255 em_helix_mop_octamer_254       6 MOP      H105       1      0.134139999747      1.007947000000
   256 em_helix_mop_octamer_255       6 MOP      H106       1      0.134220004082      1.007947000000
   257 em_helix_mop_octamer_256       6 MOP      H107       1      0.130500003695      1.007947000000
   258 em_helix_mop_octamer_257       6 MOP      H108       1      0.089879997075      1.007947000000
   259 em_helix_mop_octamer_258       6 MOP      H109       1      0.299259990454      1.007947000000
   260 em_helix_mop_octamer_259       6 MOP      H110       1      0.045150000602      1.007947000000
   261 em_helix_mop_octamer_260       6 MOP      H111       1      0.045150000602      1.007947000000
   262 em_helix_mop_octamer_261       6 MOP      H112       1      0.045150000602      1.007947000000
   263 em_helix_mop_octamer_262       6 MOP      H113       1      0.141090005636      1.007947000000
   264 em_helix_mop_octamer_263       6 MOP      H114       1      0.145160004497      1.007947000000
   265 em_helix_mop_octamer_264       7 MOP      C133       1      0.673439979553     12.010780000000
   266 em_helix_mop_octamer_265       7 MOP      O13        1     -0.595149993896     15.999430000000
   267 em_helix_mop_octamer_266       7 MOP      C134       1     -0.139850005507     12.010780000000
   268 em_helix_mop_octamer_267       7 MOP      C135       1     -0.094080001116     12.010780000000
   269 em_helix_mop_octamer_268       7 MOP      C136       1     -0.126129999757     12.010780000000
   270 em_helix_mop_octamer_269       7 MOP      C137       1     -0.003830000060     12.010780000000
   271 em_helix_mop_octamer_270       7 MOP      C138       1     -0.077689997852     12.010780000000
   272 em_helix_mop_octamer_271       7 MOP      C139       1      0.006860000081     12.010780000000
   273 em_helix_mop_octamer_272       7 MOP      C140       1     -0.141340002418     12.010780000000
   274 em_helix_mop_octamer_273       7 MOP      C141       1      0.133819997311     12.010780000000
   275 em_helix_mop_octamer_274       7 MOP      O14        1     -0.328440010548     15.999430000000
   276 em_helix_mop_octamer_275       7 MOP      C142       1      0.111869998276     12.010780000000
   277 em_helix_mop_octamer_276       7 MOP      C143       1     -0.194539994001     12.010780000000
   278 em_helix_mop_octamer_277       7 MOP      C144       1     -0.078800000250     12.010780000000
   279 em_helix_mop_octamer_278       7 MOP      C145       1     -0.039519999176     12.010780000000
   280 em_helix_mop_octamer_279       7 MOP      C146       1     -0.106459997594     12.010780000000
   281 em_helix_mop_octamer_280       7 MOP      C147       1     -0.132740005851     12.010780000000
   282 em_helix_mop_octamer_281       7 MOP      C148       1     -0.110840000212     12.010780000000
   283 em_helix_mop_octamer_282       7 MOP      C149       1     -0.101259998977     12.010780000000
   284 em_helix_mop_octamer_283       7 MOP      C150       1     -0.110469996929     12.010780000000
   285 em_helix_mop_octamer_284       7 MOP      C151       1      0.151319995522     12.010780000000
   286 em_helix_mop_octamer_285       7 MOP      N7         1     -0.562759995461     14.006720000000
   287 em_helix_mop_octamer_286       7 MOP      C152       1     -0.116640001535     12.010780000000
   288 em_helix_mop_octamer_287       7 MOP      C153       1     -0.126129999757     12.010780000000
   289 em_helix_mop_octamer_288       7 MOP      C154       1     -0.094080001116     12.010780000000
   290 em_helix_mop_octamer_289       7 MOP      H115       1      0.141369998455      1.007947000000
   291 em_helix_mop_octamer_290       7 MOP      H116       1      0.142049998045      1.007947000000
   292 em_helix_mop_octamer_291       7 MOP      H117       1      0.155479997396      1.007947000000
   293 em_helix_mop_octamer_292       7 MOP      H118       1      0.044929999858      1.007947000000
   294 em_helix_mop_octamer_293       7 MOP      H119       1      0.044929999858      1.007947000000
   295 em_helix_mop_octamer_294       7 MOP      H120       1      0.044929999858      1.007947000000
   296 em_helix_mop_octamer_295       7 MOP      H121       1      0.139180004597      1.007947000000
   297 em_helix_mop_octamer_296       7 MOP      H122       1      0.139520004392      1.007947000000
   298 em_helix_mop_octamer_297       7 MOP      H123       1      0.143999993801      1.007947000000
   299 em_helix_mop_octamer_298       7 MOP      H124       1      0.137789994478      1.007947000000
   300 em_helix_mop_octamer_299       7 MOP      H125       1      0.137689992785      1.007947000000
   301 em_helix_mop_octamer_300       7 MOP      H126       1      0.134279996157      1.007947000000
   302 em_helix_mop_octamer_301       7 MOP      H127       1      0.083109997213      1.007947000000
   303 em_helix_mop_octamer_302       7 MOP      H128       1      0.310019999743      1.007947000000
   304 em_helix_mop_octamer_303       7 MOP      H129       1      0.045919999480      1.007947000000
   305 em_helix_mop_octamer_304       7 MOP      H130       1      0.045919999480      1.007947000000
   306 em_helix_mop_octamer_305       7 MOP      H131       1      0.045919999480      1.007947000000
   307 em_helix_mop_octamer_306       7 MOP      H132       1      0.142049998045      1.007947000000
   308 em_helix_mop_octamer_307       7 MOP      H133       1      0.141369998455      1.007947000000
   309 em_helix_mop_octamer_308       8 MOP      C155       1      0.674009978771     12.010780000000
   310 em_helix_mop_octamer_309       8 MOP      O15        1     -0.611599981785     15.999430000000
   311 em_helix_mop_octamer_310       8 MOP      C156       1     -0.137940004468     12.010780000000
   312 em_helix_mop_octamer_311       8 MOP      C157       1     -0.091990001500     12.010780000000
   313 em_helix_mop_octamer_312       8 MOP      C158       1     -0.129189997911     12.010780000000
   314 em_helix_mop_octamer_313       8 MOP      C159       1     -0.005840000231     12.010780000000
   315 em_helix_mop_octamer_314       8 MOP      C160       1     -0.077420003712     12.010780000000
   316 em_helix_mop_octamer_315       8 MOP      C161       1      0.007360000163     12.010780000000
   317 em_helix_mop_octamer_316       8 MOP      C162       1     -0.147560000420     12.010780000000
   318 em_helix_mop_octamer_317       8 MOP      C163       1      0.128680005670     12.010780000000
   319 em_helix_mop_octamer_318       8 MOP      O16        1     -0.325349986553     15.999430000000
   320 em_helix_mop_octamer_319       8 MOP      C164       1      0.112829998136     12.010780000000
   321 em_helix_mop_octamer_320       8 MOP      C165       1     -0.202629998326     12.010780000000
   322 em_helix_mop_octamer_321       8 MOP      C166       1     -0.082960002124     12.010780000000
   323 em_helix_mop_octamer_322       8 MOP      C167       1     -0.045579999685     12.010780000000
   324 em_helix_mop_octamer_323       8 MOP      C168       1     -0.106669999659     12.010780000000
   325 em_helix_mop_octamer_324       8 MOP      C169       1     -0.135250002146     12.010780000000
   326 em_helix_mop_octamer_325       8 MOP      C170       1     -0.099059998989     12.010780000000
   327 em_helix_mop_octamer_326       8 MOP      C171       1     -0.114660002291     12.010780000000
   328 em_helix_mop_octamer_327       8 MOP      C172       1     -0.101350001991     12.010780000000
   329 em_helix_mop_octamer_328       8 MOP      C173       1      0.159879997373     12.010780000000
   330 em_helix_mop_octamer_329       8 MOP      N8         1     -0.551519989967     14.006720000000
   331 em_helix_mop_octamer_330       8 MOP      C174       1     -0.101759999990     12.010780000000
   332 em_helix_mop_octamer_331       8 MOP      C175       1     -0.129189997911     12.010780000000
   333 em_helix_mop_octamer_332       8 MOP      C176       1     -0.091990001500     12.010780000000
   334 em_helix_mop_octamer_333       8 MOP      H134       1      0.146679997444      1.007947000000
   335 em_helix_mop_octamer_334       8 MOP      H135       1      0.139630004764      1.007947000000
   336 em_helix_mop_octamer_335       8 MOP      H136       1      0.156320005655      1.007947000000
   337 em_helix_mop_octamer_336       8 MOP      H137       1      0.046100001782      1.007947000000
   338 em_helix_mop_octamer_337       8 MOP      H138       1      0.046100001782      1.007947000000
   339 em_helix_mop_octamer_338       8 MOP      H139       1      0.046100001782      1.007947000000
   340 em_helix_mop_octamer_339       8 MOP      H140       1      0.141699999571      1.007947000000
   341 em_helix_mop_octamer_340       8 MOP      H141       1      0.142260000110      1.007947000000
   342 em_helix_mop_octamer_341       8 MOP      H142       1      0.135609999299      1.007947000000
   343 em_helix_mop_octamer_342       8 MOP      H143       1      0.133230000734      1.007947000000
   344 em_helix_mop_octamer_343       8 MOP      H144       1      0.142470002174      1.007947000000
   345 em_helix_mop_octamer_344       8 MOP      H145       1      0.132559999824      1.007947000000
   346 em_helix_mop_octamer_345       8 MOP      H146       1      0.085440002382      1.007947000000
   347 em_helix_mop_octamer_346       8 MOP      H147       1      0.321539998055      1.007947000000
   348 em_helix_mop_octamer_347       8 MOP      H148       1      0.047070000321      1.007947000000
   349 em_helix_mop_octamer_348       8 MOP      H149       1      0.047070000321      1.007947000000
   350 em_helix_mop_octamer_349       8 MOP      H150       1      0.047070000321      1.007947000000
   351 em_helix_mop_octamer_350       8 MOP      H151       1      0.139630004764      1.007947000000
   352 em_helix_mop_octamer_351       8 MOP      H152       1      0.146679997444      1.007947000000
   353 em_helix_mop_octamer_352       9 CAP      C177       1      0.124669998884     12.010780000000
   354 em_helix_mop_octamer_353       9 CAP      O17        1     -0.427190005779     15.999430000000
   355 em_helix_mop_octamer_354       9 CAP      H153       1      0.050900001079      1.007947000000
   356 em_helix_mop_octamer_355       9 CAP      H154       1      0.050900001079      1.007947000000
   357 em_helix_mop_octamer_356       9 CAP      H155       1      0.050900001079      1.007947000000
   358 em_helix_mop_octamer_357      10 CAP      C178       1     -0.114859998226     12.010780000000
   359 em_helix_mop_octamer_358      10 CAP      C179       1      0.189469993114     12.010780000000
   360 em_helix_mop_octamer_359      10 CAP      C180       1     -0.114859998226     12.010780000000
   361 em_helix_mop_octamer_360      10 CAP      C181       1     -0.114859998226     12.010780000000
   362 em_helix_mop_octamer_361      10 CAP      O18        1     -0.448769986629     15.999430000000
   363 em_helix_mop_octamer_362      10 CAP      C182       1      0.751359999180     12.010780000000
   364 em_helix_mop_octamer_363      10 CAP      O19        1     -0.602609992027     15.999430000000
   365 em_helix_mop_octamer_364      10 CAP      H156       1      0.052159998566      1.007947000000
   366 em_helix_mop_octamer_365      10 CAP      H157       1      0.052159998566      1.007947000000
   367 em_helix_mop_octamer_366      10 CAP      H158       1      0.052159998566      1.007947000000
   368 em_helix_mop_octamer_367      10 CAP      H159       1      0.052159998566      1.007947000000
   369 em_helix_mop_octamer_368      10 CAP      H160       1      0.052159998566      1.007947000000
   370 em_helix_mop_octamer_369      10 CAP      H161       1      0.052159998566      1.007947000000
   371 em_helix_mop_octamer_370      10 CAP      H162       1      0.052159998566      1.007947000000
   372 em_helix_mop_octamer_371      10 CAP      H163       1      0.052159998566      1.007947000000
   373 em_helix_mop_octamer_372      10 CAP      H164       1      0.052159998566      1.007947000000

[ pairs ]
;ai    aj   funct
   227	   240	     1
    65	    80	     1
    62	    82	     1
   151	   167	     1
   134	   157	     1
   111	   127	     1
    89	   132	     1
   313	   333	     1
   259	   267	     1
    38	    39	     1
   270	   279	     1
   314	   323	     1
   180	   200	     1
   265	   288	     1
    83	    91	     1
    51	    87	     1
   258	   259	     1
   140	   165	     1
    98	   117	     1
    55	    72	     1
   183	   204	     1
   224	   244	     1
    66	   113	     1
     8	    34	     1
    64	    82	     1
    62	    67	     1
   138	   158	     1
   139	   159	     1
   133	   158	     1
   154	   174	     1
    98	   119	     1
   228	   253	     1
   279	   285	     1
   327	   348	     1
    95	   104	     1
   177	   200	     1
   186	   209	     1
    52	    78	     1
   271	   307	     1
    89	   114	     1
   286	   304	     1
    96	   105	     1
    46	    48	     1
   148	   151	     1
    95	   120	     1
   254	   255	     1
    18	    22	     1
   258	   261	     1
   126	   129	     1
   283	   299	     1
   150	   169	     1
   318	   341	     1
   329	   344	     1
    64	    67	     1
   184	   209	     1
   328	   346	     1
   267	   307	     1
    95	    98	     1
   314	   352	     1
   313	   351	     1
    60	    81	     1
   109	   134	     1
   140	   151	     1
   274	   293	     1
   226	   235	     1
   327	   347	     1
    99	   116	     1
   360	   371	     1
   228	   254	     1
   167	   168	     1
   109	   135	     1
   186	   191	     1
   270	   308	     1
   150	   170	     1
    63	    79	     1
   135	   138	     1
     4	   354	     1
   359	   364	     1
    24	    27	     1
    64	    80	     1
   230	   249	     1
    96	   122	     1
    21	    47	     1
   170	   172	     1
   139	   160	     1
   194	   213	     1
   183	   219	     1
   326	   345	     1
   314	   334	     1
   275	   292	     1
   229	   240	     1
   265	   269	     1
     7	    25	     1
     9	    14	     1
   196	   214	     1
   153	   179	     1
   309	   313	     1
   140	   156	     1
   242	   261	     1
   360	   363	     1
   259	   266	     1
   186	   207	     1
     8	    13	     1
     7	    10	     1
    17	    20	     1
   241	   256	     1
    93	   113	     1
   309	   332	     1
    18	    37	     1
     6	    33	     1
   194	   210	     1
   230	   250	     1
    52	    57	     1
   192	   213	     1
   315	   340	     1
   134	   136	     1
   279	   299	     1
   240	   256	     1
   269	   307	     1
    98	   118	     1
   241	   267	     1
    53	    76	     1
   314	   321	     1
    96	   121	     1
   316	   327	     1
   361	   363	     1
   187	   190	     1
    94	    97	     1
    47	    71	     1
    49	    69	     1
   346	   348	     1
    10	    29	     1
    63	    83	     1
   123	   124	     1
   314	   341	     1
   147	   160	     1
   285	   301	     1
   186	   205	     1
   327	   343	     1
   106	   110	     1
   284	   302	     1
    10	    15	     1
   185	   190	     1
   195	   218	     1
   236	   257	     1
    18	    38	     1
   240	   242	     1
    50	    59	     1
   229	   234	     1
   182	   209	     1
    95	   108	     1
   180	   183	     1
   230	   235	     1
   272	   298	     1
    63	    86	     1
    94	   101	     1
    91	   131	     1
    83	    90	     1
    95	   116	     1
   198	   224	     1
   286	   306	     1
   346	   347	     1
    62	    66	     1
   139	   164	     1
   362	   368	     1
   135	   175	     1
   279	   282	     1
    96	   112	     1
   327	   349	     1
    38	    40	     1
   273	   296	     1
    34	    35	     1
   325	   328	     1
   347	   364	     1
   328	   330	     1
     8	    24	     1
   302	   305	     1
    82	    83	     1
    48	    51	     1
   152	   154	     1
   137	   146	     1
   195	   221	     1
   235	   255	     1
   188	   189	     1
   265	   290	     1
    64	    66	     1
   127	   134	     1
    90	   113	     1
   126	   127	     1
    11	    14	     1
   127	   135	     1
    94	   132	     1
   329	   345	     1
   185	   192	     1
   138	   165	     1
   184	   195	     1
   296	   297	     1
   222	   245	     1
   226	   233	     1
   332	   335	     1
   284	   287	     1
    82	    86	     1
   215	   222	     1
   194	   199	     1
   237	   240	     1
   142	   147	     1
   197	   212	     1
   284	   298	     1
   280	   283	     1
   139	   142	     1
    52	    81	     1
    92	    95	     1
    63	    84	     1
    25	   354	     1
   225	   234	     1
   360	   367	     1
   103	   109	     1
    23	    39	     1
   321	   336	     1
   276	   277	     1
    78	    79	     1
   326	   346	     1
    61	    64	     1
   104	   125	     1
    60	    63	     1
   318	   338	     1
   273	   278	     1
   238	   254	     1
    21	    36	     1
   151	   171	     1
   171	   178	     1
   221	   225	     1
    87	    88	     1
   358	   371	     1
    53	    56	     1
   122	   123	     1
   361	   367	     1
   154	   201	     1
    54	    77	     1
    60	    80	     1
   265	   308	     1
   268	   288	     1
    82	    85	     1
    82	    84	     1
   136	   139	     1
   328	   342	     1
     7	    43	     1
    22	    40	     1
   147	   153	     1
   133	   156	     1
   224	   227	     1
   238	   258	     1
    57	    72	     1
   190	   191	     1
   208	   209	     1
   227	   248	     1
   284	   300	     1
   225	   228	     1
   283	   305	     1
   236	   256	     1
   319	   336	     1
   277	   292	     1
   283	   309	     1
   330	   350	     1
   223	   247	     1
   107	   128	     1
   221	   244	     1
   104	   124	     1
   226	   264	     1
   184	   193	     1
   185	   196	     1
     6	    26	     1
   275	   296	     1
   110	   128	     1
   234	   235	     1
    45	    68	     1
    89	    93	     1
   235	   248	     1
    38	    45	     1
   146	   147	     1
   288	   291	     1
   108	   126	     1
   238	   243	     1
   331	   363	     1
    12	    13	     1
   100	   101	     1
   330	   359	     1
    63	    89	     1
    62	    78	     1
   317	   328	     1
    20	    34	     1
   273	   280	     1
   102	   103	     1
   310	   333	     1
   278	   288	     1
   183	   186	     1
   312	   352	     1
    47	    50	     1
   181	   219	     1
   289	   290	     1
   225	   263	     1
   133	   137	     1
   282	   286	     1
   152	   155	     1
    15	    21	     1
    46	    69	     1
    95	   131	     1
    43	    44	     1
   192	   212	     1
   228	   233	     1
   231	   248	     1
   286	   333	     1
   139	   152	     1
   151	   174	     1
   199	   215	     1
   240	   254	     1
   183	   203	     1
   266	   268	     1
   211	   212	     1
   315	   351	     1
   326	   330	     1
   285	   311	     1
    82	    89	     1
    97	   104	     1
   328	   331	     1
   228	   231	     1
   272	   297	     1
   229	   236	     1
   316	   321	     1
    17	    21	     1
     5	    14	     1
   272	   281	     1
     5	    25	     1
   178	   180	     1
    52	    61	     1
   214	   218	     1
   227	   230	     1
    97	   120	     1
   144	   145	     1
   104	   107	     1
   153	   169	     1
    19	    39	     1
   275	   278	     1
   152	   166	     1
   316	   341	     1
   195	   216	     1
    39	    46	     1
    18	    34	     1
    65	    91	     1
   170	   173	     1
   362	   371	     1
   109	   125	     1
    21	    37	     1
   280	   301	     1
    66	    86	     1
   107	   123	     1
     3	     6	     1
    69	    70	     1
   329	   362	     1
   157	   158	     1
     3	   353	     1
     5	     8	     1
    26	    27	     1
     2	   353	     1
   196	   210	     1
    96	   125	     1
   183	   201	     1
   282	   301	     1
   214	   221	     1
    91	    94	     1
   236	   239	     1
   107	   130	     1
   315	   335	     1
   141	   148	     1
   302	   303	     1
   156	   159	     1
   240	   243	     1
   303	   310	     1
    98	   103	     1
   114	   115	     1
   222	   224	     1
   210	   211	     1
   140	   143	     1
    14	    24	     1
   110	   130	     1
   274	   295	     1
   358	   370	     1
    25	    26	     1
   235	   241	     1
    51	    72	     1
   281	   285	     1
    92	   132	     1
   287	   309	     1
   180	   220	     1
   154	   172	     1
   185	   188	     1
    70	    71	     1
    67	    83	     1
   147	   150	     1
   187	   208	     1
   110	   157	     1
   109	   124	     1
   221	   246	     1
   252	   253	     1
   154	   173	     1
   273	   276	     1
    89	   112	     1
    66	    85	     1
   333	   334	     1
    66	    84	     1
   315	   328	     1
   106	   122	     1
   351	   352	     1
    15	    35	     1
   177	   220	     1
   271	   284	     1
   140	   166	     1
   311	   314	     1
   360	   372	     1
   191	   197	     1
   226	   229	     1
    13	    28	     1
   183	   192	     1
    22	    48	     1
   320	   321	     1
    45	    88	     1
   151	   172	     1
     1	   356	     1
   170	   177	     1
   286	   305	     1
   360	   366	     1
   302	   309	     1
    52	    77	     1
     8	    17	     1
    97	   108	     1
    38	    42	     1
     3	    27	     1
    97	   100	     1
    14	    15	     1
   147	   167	     1
   318	   337	     1
    59	    65	     1
    51	    54	     1
    55	    76	     1
   103	   123	     1
   316	   342	     1
   106	   126	     1
     6	    44	     1
   272	   288	     1
    66	    92	     1
   331	   347	     1
    59	    72	     1
    10	    31	     1
   361	   366	     1
   268	   308	     1
     2	     4	     1
     1	     5	     1
   126	   128	     1
   278	   279	     1
   327	   363	     1
    35	    36	     1
   136	   156	     1
   186	   206	     1
   150	   154	     1
   316	   332	     1
    47	    87	     1
   181	   184	     1
   241	   266	     1
    58	    59	     1
     6	    13	     1
   153	   168	     1
   319	   322	     1
   322	   323	     1
   198	   218	     1
    49	    58	     1
    55	    58	     1
    94	   114	     1
    65	    90	     1
   182	   202	     1
    50	    88	     1
    19	    35	     1
   196	   198	     1
   283	   303	     1
    23	    45	     1
   309	   352	     1
   227	   252	     1
   299	   300	     1
   191	   211	     1
   197	   222	     1
    96	   107	     1
   137	   140	     1
   242	   289	     1
    19	    40	     1
    51	    69	     1
   177	   181	     1
   245	   246	     1
   279	   292	     1
   312	   332	     1
   329	   364	     1
    10	    33	     1
   235	   238	     1
    97	   102	     1
    49	    87	     1
    50	    57	     1
   271	   291	     1
    93	   102	     1
   323	   336	     1
     5	    43	     1
   362	   367	     1
   110	   136	     1
     9	    12	     1
   361	   370	     1
   309	   334	     1
   138	   141	     1
   108	   122	     1
   142	   165	     1
    50	    53	     1
   135	   159	     1
   145	   160	     1
    15	    18	     1
   183	   196	     1
   318	   323	     1
   267	   291	     1
   274	   297	     1
   330	   348	     1
   139	   175	     1
     7	    27	     1
   120	   121	     1
   346	   349	     1
   112	   115	     1
   271	   274	     1
    51	    60	     1
   268	   271	     1
    92	   112	     1
   155	   177	     1
   325	   329	     1
   316	   319	     1
   242	   268	     1
     7	    28	     1
   361	   369	     1
   360	   373	     1
   200	   203	     1
    22	    42	     1
   138	   176	     1
   258	   262	     1
    54	    75	     1
   133	   176	     1
    99	   120	     1
   324	   345	     1
   182	   185	     1
    54	    73	     1
   323	   326	     1
   274	   279	     1
   231	   252	     1
     8	    11	     1
   105	   109	     1
     8	    19	     1
   219	   220	     1
   318	   339	     1
   360	   365	     1
   196	   212	     1
   214	   216	     1
   315	   333	     1
   171	   179	     1
   140	   145	     1
    22	    41	     1
   266	   289	     1
   102	   112	     1
   280	   300	     1
   149	   153	     1
     1	    26	     1
   179	   203	     1
   107	   133	     1
   184	   210	     1
   233	   248	     1
   313	   322	     1
   244	   247	     1
   107	   127	     1
    49	    52	     1
    67	    89	     1
   258	   265	     1
    50	    77	     1
   285	   310	     1
   361	   365	     1
    76	    77	     1
   228	   257	     1
   126	   130	     1
   232	   233	     1
   311	   335	     1
   298	   299	     1
    96	   101	     1
   179	   219	     1
     8	    33	     1
   227	   245	     1
   140	   149	     1
    64	    78	     1
   271	   292	     1
   111	   133	     1
   242	   262	     1
    94	   103	     1
   141	   144	     1
   108	   124	     1
    21	    46	     1
   181	   201	     1
   131	   132	     1
   141	   146	     1
     2	    25	     1
     6	    15	     1
   223	   263	     1
    59	    79	     1
   358	   372	     1
    10	    30	     1
   272	   301	     1
   285	   300	     1
   137	   175	     1
   319	   340	     1
   258	   260	     1
   181	   190	     1
    98	   121	     1
   347	   362	     1
    90	    92	     1
   192	   195	     1
   272	   277	     1
   150	   155	     1
   287	   303	     1
   312	   315	     1
    19	    45	     1
   187	   204	     1
   152	   170	     1
   175	   176	     1
    93	   131	     1
   358	   368	     1
     4	     7	     1
   153	   178	     1
   317	   324	     1
   238	   242	     1
   302	   304	     1
   240	   258	     1
   315	   336	     1
    11	    28	     1
    51	    64	     1
     7	    20	     1
    91	   115	     1
   313	   316	     1
    32	    33	     1
     8	    37	     1
    52	    63	     1
   327	   350	     1
     9	    20	     1
   184	   200	     1
   328	   344	     1
     1	   355	     1
   182	   189	     1
   177	   202	     1
    16	    36	     1
    45	    70	     1
   195	   215	     1
   271	   280	     1
   143	   160	     1
   179	   182	     1
    68	    71	     1
   242	   260	     1
   330	   349	     1
   150	   166	     1
   142	   162	     1
   230	   251	     1
   269	   278	     1
   273	   284	     1
   113	   114	     1
   272	   275	     1
    95	   113	     1
   201	   202	     1
   214	   217	     1
   166	   167	     1
   143	   146	     1
   141	   164	     1
   323	   329	     1
   255	   256	     1
   148	   169	     1
    54	    59	     1
   286	   312	     1
   183	   208	     1
     6	     9	     1
    20	    38	     1
   239	   262	     1
   202	   203	     1
    58	    68	     1
   274	   294	     1
     7	    32	     1
   103	   106	     1
     9	    32	     1
   140	   169	     1
    65	    81	     1
   139	   157	     1
    53	    60	     1
   146	   156	     1
    96	    99	     1
   149	   152	     1
   194	   214	     1
   324	   344	     1
   227	   247	     1
   178	   201	     1
    48	    68	     1
   358	   369	     1
    16	    19	     1
    39	    47	     1
   343	   344	     1
   198	   216	     1
   326	   342	     1
   185	   208	     1
   281	   284	     1
   243	   265	     1
    56	    57	     1
    22	    69	     1
    50	    70	     1
   239	   265	     1
   215	   223	     1
    99	   102	     1
     4	    44	     1
   316	   345	     1
   231	   234	     1
   151	   173	     1
   199	   221	     1
   315	   318	     1
   269	   272	     1
   107	   129	     1
   272	   283	     1
   358	   373	     1
   184	   187	     1
   106	   125	     1
   267	   270	     1
     7	    16	     1
    45	    49	     1
   138	   147	     1
   138	   145	     1
   282	   302	     1
   317	   322	     1
   322	   332	     1
     9	    16	     1
   110	   129	     1
   362	   372	     1
    62	    81	     1
   195	   217	     1
   196	   199	     1
   229	   232	     1
   290	   291	     1
   143	   164	     1
   283	   304	     1
   271	   289	     1
   303	   311	     1
   346	   350	     1
   243	   259	     1
   106	   111	     1
   152	   168	     1
    53	    58	     1
   239	   260	     1
   139	   148	     1
   197	   223	     1
   225	   245	     1
    38	    41	     1
   170	   171	     1
   228	   237	     1
   239	   259	     1
   263	   264	     1
   302	   306	     1
    52	    55	     1
   362	   366	     1
   227	   263	     1
   361	   368	     1
     1	    44	     1
   238	   257	     1
   239	   255	     1
    93	    96	     1
   226	   246	     1
   228	   244	     1
   315	   324	     1
    20	    23	     1
   226	   253	     1
   154	   180	     1
   136	   176	     1
   126	   133	     1
   101	   116	     1
   182	   191	     1
   137	   157	     1
     3	    43	     1
   239	   261	     1
   334	   335	     1
   282	   287	     1
    11	    32	     1
   307	   308	     1
   326	   331	     1
   103	   116	     1
    16	    37	     1
   340	   341	     1
    20	    36	     1
   282	   298	     1
    19	    42	     1
   142	   163	     1
     1	   357	     1
   271	   296	     1
    53	    64	     1
   362	   370	     1
     4	    24	     1
   164	   165	     1
    63	    85	     1
   142	   161	     1
   151	   177	     1
   221	   264	     1
   246	   247	     1
   317	   320	     1
    52	    68	     1
   191	   204	     1
   148	   168	     1
   198	   217	     1
   311	   351	     1
    51	    71	     1
    19	    41	     1
   189	   204	     1
    59	    62	     1
    54	    74	     1
   158	   159	     1
   193	   197	     1
   316	   325	     1
    95	   115	     1
   269	   289	     1
   184	   213	     1
   198	   245	     1
   194	   198	     1
    18	    23	     1
   362	   369	     1
   193	   196	     1
   342	   343	     1
    94	   121	     1
   224	   264	     1
   324	   327	     1
   310	   312	     1
   190	   200	     1
   228	   239	     1
   108	   110	     1
   184	   189	     1
   270	   273	     1
     1	    24	     1
    51	    76	     1
    61	    65	     1
   314	   317	     1
   170	   174	     1
   105	   108	     1
    15	    28	     1
   108	   111	     1
   155	   171	     1
   241	   257	     1
   141	   152	     1
    48	    88	     1
   346	   363	     1
   362	   373	     1
   234	   244	     1
   237	   241	     1
   283	   306	     1
    79	    80	     1
   230	   253	     1
   227	   236	     1
   191	   194	     1
   197	   213	     1
   229	   252	     1
   323	   343	     1
   182	   220	     1
   223	   226	     1
   317	   340	     1
   270	   297	     1
    20	    22	     1
   362	   365	     1
   214	   215	     1
   284	   286	     1
   270	   277	     1
   270	   290	     1
   195	   211	     1
   358	   363	     1

[ bonds ]
;ai    aj   funct r k
     1      2      1      0.122500229618  637673.816836400889 
     1      3      1      0.146787322362  223784.907186336932 
     1    354      1      0.135606196339  243795.038367059984 
     3      4      1      0.140070606401  315369.603109081567 
     3     25      1      0.140070606401  315369.603109081567 
     4      5      1      0.140070606401  315369.603109081567 
     4     26      1      0.108603610657  323372.939138590940 
     5      6      1      0.140070606401  315369.603109081567 
     5     27      1      0.108603610657  323372.939138590940 
     6      7      1      0.146787322362  223784.907186336932 
     6     24      1      0.140070606401  315369.603109081567 
     7      8      1      0.140070606401  315369.603109081567 
     7     14      1      0.140070606401  315369.603109081567 
     8      9      1      0.140070606401  315369.603109081567 
     8     15      1      0.146787322362  223784.907186336932 
     9     10      1      0.140070606401  315369.603109081567 
     9     28      1      0.108603610657  323372.939138590940 
    10     11      1      0.137202606628  266731.066406706930 
    10     13      1      0.140070606401  315369.603109081567 
    11     12      1      0.143632390591  189984.684332368197 
    12     29      1      0.109288837838  317186.185378679947 
    12     30      1      0.109288837838  317186.185378679947 
    12     31      1      0.109288837838  317186.185378679947 
    13     14      1      0.140070606401  315369.603109081567 
    13     32      1      0.108603610657  323372.939138590940 
    14     33      1      0.108603610657  323372.939138590940 
    15     16      1      0.140070606401  315369.603109081567 
    15     20      1      0.140070606401  315369.603109081567 
    16     17      1      0.140070606401  315369.603109081567 
    16     34      1      0.108603610657  323372.939138590940 
    17     18      1      0.140070606401  315369.603109081567 
    17     35      1      0.108603610657  323372.939138590940 
    18     19      1      0.140070606401  315369.603109081567 
    18     36      1      0.108603610657  323372.939138590940 
    19     20      1      0.140070606401  315369.603109081567 
    19     21      1      0.150959128588  200304.454300773097 
    20     37      1      0.108603610657  323372.939138590940 
    21     22      1      0.146209979488  202028.005744964030 
    21     23      1      0.153362760384  180164.203623913403 
    21     38      1      0.109288837838  317186.185378679947 
    22     39      1      0.101860473038  402492.840307690029 
    22     45      1      0.138376574172  273614.770187574963 
    23     40      1      0.109288837838  317186.185378679947 
    23     41      1      0.109288837838  317186.185378679947 
    23     42      1      0.109288837838  317186.185378679947 
    24     25      1      0.140070606401  315369.603109081567 
    24     43      1      0.108603610657  323372.939138590940 
    25     44      1      0.108603610657  323372.939138590940 
    45     46      1      0.122500229618  637673.816836400889 
    45     47      1      0.146787322362  223784.907186336932 
    47     48      1      0.140070606401  315369.603109081567 
    47     69      1      0.140070606401  315369.603109081567 
    48     49      1      0.140070606401  315369.603109081567 
    48     70      1      0.108603610657  323372.939138590940 
    49     50      1      0.140070606401  315369.603109081567 
    49     71      1      0.108603610657  323372.939138590940 
    50     51      1      0.146787322362  223784.907186336932 
    50     68      1      0.140070606401  315369.603109081567 
    51     52      1      0.140070606401  315369.603109081567 
    51     58      1      0.140070606401  315369.603109081567 
    52     53      1      0.140070606401  315369.603109081567 
    52     59      1      0.146787322362  223784.907186336932 
    53     54      1      0.140070606401  315369.603109081567 
    53     72      1      0.108603610657  323372.939138590940 
    54     55      1      0.137202606628  266731.066406706930 
    54     57      1      0.140070606401  315369.603109081567 
    55     56      1      0.143632390591  189984.684332368197 
    56     73      1      0.109288837838  317186.185378679947 
    56     74      1      0.109288837838  317186.185378679947 
    56     75      1      0.109288837838  317186.185378679947 
    57     58      1      0.140070606401  315369.603109081567 
    57     76      1      0.108603610657  323372.939138590940 
    58     77      1      0.108603610657  323372.939138590940 
    59     60      1      0.140070606401  315369.603109081567 
    59     64      1      0.140070606401  315369.603109081567 
    60     61      1      0.140070606401  315369.603109081567 
    60     78      1      0.108603610657  323372.939138590940 
    61     62      1      0.140070606401  315369.603109081567 
    61     79      1      0.108603610657  323372.939138590940 
    62     63      1      0.140070606401  315369.603109081567 
    62     80      1      0.108603610657  323372.939138590940 
    63     64      1      0.140070606401  315369.603109081567 
    63     65      1      0.150959128588  200304.454300773097 
    64     81      1      0.108603610657  323372.939138590940 
    65     66      1      0.146209979488  202028.005744964030 
    65     67      1      0.153362760384  180164.203623913403 
    65     82      1      0.109288837838  317186.185378679947 
    66     83      1      0.101860473038  402492.840307690029 
    66     89      1      0.138376574172  273614.770187574963 
    67     84      1      0.109288837838  317186.185378679947 
    67     85      1      0.109288837838  317186.185378679947 
    67     86      1      0.109288837838  317186.185378679947 
    68     69      1      0.140070606401  315369.603109081567 
    68     87      1      0.108603610657  323372.939138590940 
    69     88      1      0.108603610657  323372.939138590940 
    89     90      1      0.122500229618  637673.816836400889 
    89     91      1      0.146787322362  223784.907186336932 
    91     92      1      0.140070606401  315369.603109081567 
    91    113      1      0.140070606401  315369.603109081567 
    92     93      1      0.140070606401  315369.603109081567 
    92    114      1      0.108603610657  323372.939138590940 
    93     94      1      0.140070606401  315369.603109081567 
    93    115      1      0.108603610657  323372.939138590940 
    94     95      1      0.146787322362  223784.907186336932 
    94    112      1      0.140070606401  315369.603109081567 
    95     96      1      0.140070606401  315369.603109081567 
    95    102      1      0.140070606401  315369.603109081567 
    96     97      1      0.140070606401  315369.603109081567 
    96    103      1      0.146787322362  223784.907186336932 
    97     98      1      0.140070606401  315369.603109081567 
    97    116      1      0.108603610657  323372.939138590940 
    98     99      1      0.137202606628  266731.066406706930 
    98    101      1      0.140070606401  315369.603109081567 
    99    100      1      0.143632390591  189984.684332368197 
   100    117      1      0.109288837838  317186.185378679947 
   100    118      1      0.109288837838  317186.185378679947 
   100    119      1      0.109288837838  317186.185378679947 
   101    102      1      0.140070606401  315369.603109081567 
   101    120      1      0.108603610657  323372.939138590940 
   102    121      1      0.108603610657  323372.939138590940 
   103    104      1      0.140070606401  315369.603109081567 
   103    108      1      0.140070606401  315369.603109081567 
   104    105      1      0.140070606401  315369.603109081567 
   104    122      1      0.108603610657  323372.939138590940 
   105    106      1      0.140070606401  315369.603109081567 
   105    123      1      0.108603610657  323372.939138590940 
   106    107      1      0.140070606401  315369.603109081567 
   106    124      1      0.108603610657  323372.939138590940 
   107    108      1      0.140070606401  315369.603109081567 
   107    109      1      0.150959128588  200304.454300773097 
   108    125      1      0.108603610657  323372.939138590940 
   109    110      1      0.146209979488  202028.005744964030 
   109    111      1      0.153362760384  180164.203623913403 
   109    126      1      0.109288837838  317186.185378679947 
   110    127      1      0.101860473038  402492.840307690029 
   110    133      1      0.138376574172  273614.770187574963 
   111    128      1      0.109288837838  317186.185378679947 
   111    129      1      0.109288837838  317186.185378679947 
   111    130      1      0.109288837838  317186.185378679947 
   112    113      1      0.140070606401  315369.603109081567 
   112    131      1      0.108603610657  323372.939138590940 
   113    132      1      0.108603610657  323372.939138590940 
   133    134      1      0.122500229618  637673.816836400889 
   133    135      1      0.146787322362  223784.907186336932 
   135    136      1      0.140070606401  315369.603109081567 
   135    157      1      0.140070606401  315369.603109081567 
   136    137      1      0.140070606401  315369.603109081567 
   136    158      1      0.108603610657  323372.939138590940 
   137    138      1      0.140070606401  315369.603109081567 
   137    159      1      0.108603610657  323372.939138590940 
   138    139      1      0.146787322362  223784.907186336932 
   138    156      1      0.140070606401  315369.603109081567 
   139    140      1      0.140070606401  315369.603109081567 
   139    146      1      0.140070606401  315369.603109081567 
   140    141      1      0.140070606401  315369.603109081567 
   140    147      1      0.146787322362  223784.907186336932 
   141    142      1      0.140070606401  315369.603109081567 
   141    160      1      0.108603610657  323372.939138590940 
   142    143      1      0.137202606628  266731.066406706930 
   142    145      1      0.140070606401  315369.603109081567 
   143    144      1      0.143632390591  189984.684332368197 
   144    161      1      0.109288837838  317186.185378679947 
   144    162      1      0.109288837838  317186.185378679947 
   144    163      1      0.109288837838  317186.185378679947 
   145    146      1      0.140070606401  315369.603109081567 
   145    164      1      0.108603610657  323372.939138590940 
   146    165      1      0.108603610657  323372.939138590940 
   147    148      1      0.140070606401  315369.603109081567 
   147    152      1      0.140070606401  315369.603109081567 
   148    149      1      0.140070606401  315369.603109081567 
   148    166      1      0.108603610657  323372.939138590940 
   149    150      1      0.140070606401  315369.603109081567 
   149    167      1      0.108603610657  323372.939138590940 
   150    151      1      0.140070606401  315369.603109081567 
   150    168      1      0.108603610657  323372.939138590940 
   151    152      1      0.140070606401  315369.603109081567 
   151    153      1      0.150959128588  200304.454300773097 
   152    169      1      0.108603610657  323372.939138590940 
   153    154      1      0.146209979488  202028.005744964030 
   153    155      1      0.153362760384  180164.203623913403 
   153    170      1      0.109288837838  317186.185378679947 
   154    171      1      0.101860473038  402492.840307690029 
   154    177      1      0.138376574172  273614.770187574963 
   155    172      1      0.109288837838  317186.185378679947 
   155    173      1      0.109288837838  317186.185378679947 
   155    174      1      0.109288837838  317186.185378679947 
   156    157      1      0.140070606401  315369.603109081567 
   156    175      1      0.108603610657  323372.939138590940 
   157    176      1      0.108603610657  323372.939138590940 
   177    178      1      0.122500229618  637673.816836400889 
   177    179      1      0.146787322362  223784.907186336932 
   179    180      1      0.140070606401  315369.603109081567 
   179    201      1      0.140070606401  315369.603109081567 
   180    181      1      0.140070606401  315369.603109081567 
   180    202      1      0.108603610657  323372.939138590940 
   181    182      1      0.140070606401  315369.603109081567 
   181    203      1      0.108603610657  323372.939138590940 
   182    183      1      0.146787322362  223784.907186336932 
   182    200      1      0.140070606401  315369.603109081567 
   183    184      1      0.140070606401  315369.603109081567 
   183    190      1      0.140070606401  315369.603109081567 
   184    185      1      0.140070606401  315369.603109081567 
   184    191      1      0.146787322362  223784.907186336932 
   185    186      1      0.140070606401  315369.603109081567 
   185    204      1      0.108603610657  323372.939138590940 
   186    187      1      0.137202606628  266731.066406706930 
   186    189      1      0.140070606401  315369.603109081567 
   187    188      1      0.143632390591  189984.684332368197 
   188    205      1      0.109288837838  317186.185378679947 
   188    206      1      0.109288837838  317186.185378679947 
   188    207      1      0.109288837838  317186.185378679947 
   189    190      1      0.140070606401  315369.603109081567 
   189    208      1      0.108603610657  323372.939138590940 
   190    209      1      0.108603610657  323372.939138590940 
   191    192      1      0.140070606401  315369.603109081567 
   191    196      1      0.140070606401  315369.603109081567 
   192    193      1      0.140070606401  315369.603109081567 
   192    210      1      0.108603610657  323372.939138590940 
   193    194      1      0.140070606401  315369.603109081567 
   193    211      1      0.108603610657  323372.939138590940 
   194    195      1      0.140070606401  315369.603109081567 
   194    212      1      0.108603610657  323372.939138590940 
   195    196      1      0.140070606401  315369.603109081567 
   195    197      1      0.150959128588  200304.454300773097 
   196    213      1      0.108603610657  323372.939138590940 
   197    198      1      0.146209979488  202028.005744964030 
   197    199      1      0.153362760384  180164.203623913403 
   197    214      1      0.109288837838  317186.185378679947 
   198    215      1      0.101860473038  402492.840307690029 
   198    221      1      0.138376574172  273614.770187574963 
   199    216      1      0.109288837838  317186.185378679947 
   199    217      1      0.109288837838  317186.185378679947 
   199    218      1      0.109288837838  317186.185378679947 
   200    201      1      0.140070606401  315369.603109081567 
   200    219      1      0.108603610657  323372.939138590940 
   201    220      1      0.108603610657  323372.939138590940 
   221    222      1      0.122500229618  637673.816836400889 
   221    223      1      0.146787322362  223784.907186336932 
   223    224      1      0.140070606401  315369.603109081567 
   223    245      1      0.140070606401  315369.603109081567 
   224    225      1      0.140070606401  315369.603109081567 
   224    246      1      0.108603610657  323372.939138590940 
   225    226      1      0.140070606401  315369.603109081567 
   225    247      1      0.108603610657  323372.939138590940 
   226    227      1      0.146787322362  223784.907186336932 
   226    244      1      0.140070606401  315369.603109081567 
   227    228      1      0.140070606401  315369.603109081567 
   227    234      1      0.140070606401  315369.603109081567 
   228    229      1      0.140070606401  315369.603109081567 
   228    235      1      0.146787322362  223784.907186336932 
   229    230      1      0.140070606401  315369.603109081567 
   229    248      1      0.108603610657  323372.939138590940 
   230    231      1      0.137202606628  266731.066406706930 
   230    233      1      0.140070606401  315369.603109081567 
   231    232      1      0.143632390591  189984.684332368197 
   232    249      1      0.109288837838  317186.185378679947 
   232    250      1      0.109288837838  317186.185378679947 
   232    251      1      0.109288837838  317186.185378679947 
   233    234      1      0.140070606401  315369.603109081567 
   233    252      1      0.108603610657  323372.939138590940 
   234    253      1      0.108603610657  323372.939138590940 
   235    236      1      0.140070606401  315369.603109081567 
   235    240      1      0.140070606401  315369.603109081567 
   236    237      1      0.140070606401  315369.603109081567 
   236    254      1      0.108603610657  323372.939138590940 
   237    238      1      0.140070606401  315369.603109081567 
   237    255      1      0.108603610657  323372.939138590940 
   238    239      1      0.140070606401  315369.603109081567 
   238    256      1      0.108603610657  323372.939138590940 
   239    240      1      0.140070606401  315369.603109081567 
   239    241      1      0.150959128588  200304.454300773097 
   240    257      1      0.108603610657  323372.939138590940 
   241    242      1      0.146209979488  202028.005744964030 
   241    243      1      0.153362760384  180164.203623913403 
   241    258      1      0.109288837838  317186.185378679947 
   242    259      1      0.101860473038  402492.840307690029 
   242    265      1      0.138376574172  273614.770187574963 
   243    260      1      0.109288837838  317186.185378679947 
   243    261      1      0.109288837838  317186.185378679947 
   243    262      1      0.109288837838  317186.185378679947 
   244    245      1      0.140070606401  315369.603109081567 
   244    263      1      0.108603610657  323372.939138590940 
   245    264      1      0.108603610657  323372.939138590940 
   265    266      1      0.122500229618  637673.816836400889 
   265    267      1      0.146787322362  223784.907186336932 
   267    268      1      0.140070606401  315369.603109081567 
   267    289      1      0.140070606401  315369.603109081567 
   268    269      1      0.140070606401  315369.603109081567 
   268    290      1      0.108603610657  323372.939138590940 
   269    270      1      0.140070606401  315369.603109081567 
   269    291      1      0.108603610657  323372.939138590940 
   270    271      1      0.146787322362  223784.907186336932 
   270    288      1      0.140070606401  315369.603109081567 
   271    272      1      0.140070606401  315369.603109081567 
   271    278      1      0.140070606401  315369.603109081567 
   272    273      1      0.140070606401  315369.603109081567 
   272    279      1      0.146787322362  223784.907186336932 
   273    274      1      0.140070606401  315369.603109081567 
   273    292      1      0.108603610657  323372.939138590940 
   274    275      1      0.137202606628  266731.066406706930 
   274    277      1      0.140070606401  315369.603109081567 
   275    276      1      0.143632390591  189984.684332368197 
   276    293      1      0.109288837838  317186.185378679947 
   276    294      1      0.109288837838  317186.185378679947 
   276    295      1      0.109288837838  317186.185378679947 
   277    278      1      0.140070606401  315369.603109081567 
   277    296      1      0.108603610657  323372.939138590940 
   278    297      1      0.108603610657  323372.939138590940 
   279    280      1      0.140070606401  315369.603109081567 
   279    284      1      0.140070606401  315369.603109081567 
   280    281      1      0.140070606401  315369.603109081567 
   280    298      1      0.108603610657  323372.939138590940 
   281    282      1      0.140070606401  315369.603109081567 
   281    299      1      0.108603610657  323372.939138590940 
   282    283      1      0.140070606401  315369.603109081567 
   282    300      1      0.108603610657  323372.939138590940 
   283    284      1      0.140070606401  315369.603109081567 
   283    285      1      0.150959128588  200304.454300773097 
   284    301      1      0.108603610657  323372.939138590940 
   285    286      1      0.146209979488  202028.005744964030 
   285    287      1      0.153362760384  180164.203623913403 
   285    302      1      0.109288837838  317186.185378679947 
   286    303      1      0.101860473038  402492.840307690029 
   286    309      1      0.138376574172  273614.770187574963 
   287    304      1      0.109288837838  317186.185378679947 
   287    305      1      0.109288837838  317186.185378679947 
   287    306      1      0.109288837838  317186.185378679947 
   288    289      1      0.140070606401  315369.603109081567 
   288    307      1      0.108603610657  323372.939138590940 
   289    308      1      0.108603610657  323372.939138590940 
   309    310      1      0.122500229618  637673.816836400889 
   309    311      1      0.146787322362  223784.907186336932 
   311    312      1      0.140070606401  315369.603109081567 
   311    333      1      0.140070606401  315369.603109081567 
   312    313      1      0.140070606401  315369.603109081567 
   312    334      1      0.108603610657  323372.939138590940 
   313    314      1      0.140070606401  315369.603109081567 
   313    335      1      0.108603610657  323372.939138590940 
   314    315      1      0.146787322362  223784.907186336932 
   314    332      1      0.140070606401  315369.603109081567 
   315    316      1      0.140070606401  315369.603109081567 
   315    322      1      0.140070606401  315369.603109081567 
   316    317      1      0.140070606401  315369.603109081567 
   316    323      1      0.146787322362  223784.907186336932 
   317    318      1      0.140070606401  315369.603109081567 
   317    336      1      0.108603610657  323372.939138590940 
   318    319      1      0.137202606628  266731.066406706930 
   318    321      1      0.140070606401  315369.603109081567 
   319    320      1      0.143632390591  189984.684332368197 
   320    337      1      0.109288837838  317186.185378679947 
   320    338      1      0.109288837838  317186.185378679947 
   320    339      1      0.109288837838  317186.185378679947 
   321    322      1      0.140070606401  315369.603109081567 
   321    340      1      0.108603610657  323372.939138590940 
   322    341      1      0.108603610657  323372.939138590940 
   323    324      1      0.140070606401  315369.603109081567 
   323    328      1      0.140070606401  315369.603109081567 
   324    325      1      0.140070606401  315369.603109081567 
   324    342      1      0.108603610657  323372.939138590940 
   325    326      1      0.140070606401  315369.603109081567 
   325    343      1      0.108603610657  323372.939138590940 
   326    327      1      0.140070606401  315369.603109081567 
   326    344      1      0.108603610657  323372.939138590940 
   327    328      1      0.140070606401  315369.603109081567 
   327    329      1      0.150959128588  200304.454300773097 
   328    345      1      0.108603610657  323372.939138590940 
   329    330      1      0.146209979488  202028.005744964030 
   329    331      1      0.153362760384  180164.203623913403 
   329    346      1      0.109288837838  317186.185378679947 
   330    347      1      0.101860473038  402492.840307690029 
   330    363      1      0.138376574172  273614.770187574963 
   331    348      1      0.109288837838  317186.185378679947 
   331    349      1      0.109288837838  317186.185378679947 
   331    350      1      0.109288837838  317186.185378679947 
   332    333      1      0.140070606401  315369.603109081567 
   332    351      1      0.108603610657  323372.939138590940 
   333    352      1      0.108603610657  323372.939138590940 
   353    354      1      0.143632390591  189984.684332368197 
   353    355      1      0.109288837838  317186.185378679947 
   353    356      1      0.109288837838  317186.185378679947 
   353    357      1      0.109288837838  317186.185378679947 
   358    359      1      0.153362760384  180164.203623913403 
   358    365      1      0.109288837838  317186.185378679947 
   358    366      1      0.109288837838  317186.185378679947 
   358    367      1      0.109288837838  317186.185378679947 
   359    360      1      0.153362760384  180164.203623913403 
   359    361      1      0.153362760384  180164.203623913403 
   359    362      1      0.143632390591  189984.684332368197 
   360    368      1      0.109288837838  317186.185378679947 
   360    369      1      0.109288837838  317186.185378679947 
   360    370      1      0.109288837838  317186.185378679947 
   361    371      1      0.109288837838  317186.185378679947 
   361    372      1      0.109288837838  317186.185378679947 
   361    373      1      0.109288837838  317186.185378679947 
   362    363      1      0.135606196339  243795.038367059984 
   363    364      1      0.122500229618  637673.816836400889 

[ angles ]
;ai    aj   ak   funct theta  k
     1      3      4      1     120.104999638600     707.494800457430 
     1      3     25      1     120.104999638600     707.494800457430 
     1    354    353      1     112.873616114500    1003.288803783688 
     2      1      3      1     120.104999638600     707.494800457430 
     2      1    354      1     123.605890003500     529.778359969850 
     3      1    354      1     120.104999638600     707.494800457430 
     3      4      5      1     120.104999638600     707.494800457430 
     3      4     26      1     119.854485991700     275.494453586476 
     3     25     24      1     120.104999638600     707.494800457430 
     3     25     44      1     119.854485991700     275.494453586476 
     4      3     25      1     120.104999638600     707.494800457430 
     4      5      6      1     120.104999638600     707.494800457430 
     4      5     27      1     119.854485991700     275.494453586476 
     5      4     26      1     119.854485991700     275.494453586476 
     5      6      7      1     120.104999638600     707.494800457430 
     5      6     24      1     120.104999638600     707.494800457430 
     6      5     27      1     119.854485991700     275.494453586476 
     6      7      8      1     120.104999638600     707.494800457430 
     6      7     14      1     120.104999638600     707.494800457430 
     6     24     25      1     120.104999638600     707.494800457430 
     6     24     43      1     119.854485991700     275.494453586476 
     7      6     24      1     120.104999638600     707.494800457430 
     7      8      9      1     120.104999638600     707.494800457430 
     7      8     15      1     120.104999638600     707.494800457430 
     7     14     13      1     120.104999638600     707.494800457430 
     7     14     33      1     119.854485991700     275.494453586476 
     8      7     14      1     120.104999638600     707.494800457430 
     8      9     10      1     120.104999638600     707.494800457430 
     8      9     28      1     119.854485991700     275.494453586476 
     8     15     16      1     120.104999638600     707.494800457430 
     8     15     20      1     120.104999638600     707.494800457430 
     9      8     15      1     120.104999638600     707.494800457430 
     9     10     11      1     120.104999638600     707.494800457430 
     9     10     13      1     120.104999638600     707.494800457430 
    10      9     28      1     119.854485991700     275.494453586476 
    10     11     12      1     112.873616114500    1003.288803783688 
    10     13     14      1     120.104999638600     707.494800457430 
    10     13     32      1     119.854485991700     275.494453586476 
    11     10     13      1     120.104999638600     707.494800457430 
    11     12     29      1     107.660782175200     425.669014814353 
    11     12     30      1     107.660782175200     425.669014814353 
    11     12     31      1     107.660782175200     425.669014814353 
    13     14     33      1     119.854485991700     275.494453586476 
    14     13     32      1     119.854485991700     275.494453586476 
    15     16     17      1     120.104999638600     707.494800457430 
    15     16     34      1     119.854485991700     275.494453586476 
    15     20     19      1     120.104999638600     707.494800457430 
    15     20     37      1     119.854485991700     275.494453586476 
    16     15     20      1     120.104999638600     707.494800457430 
    16     17     18      1     120.104999638600     707.494800457430 
    16     17     35      1     119.854485991700     275.494453586476 
    17     16     34      1     119.854485991700     275.494453586476 
    17     18     19      1     120.104999638600     707.494800457430 
    17     18     36      1     119.854485991700     275.494453586476 
    18     17     35      1     119.854485991700     275.494453586476 
    18     19     20      1     120.104999638600     707.494800457430 
    18     19     21      1     120.104999638600     707.494800457430 
    19     18     36      1     119.854485991700     275.494453586476 
    19     20     37      1     119.854485991700     275.494453586476 
    19     21     22      1     107.660782175200     425.669014814353 
    19     21     23      1     107.660782175200     425.669014814353 
    19     21     38      1     107.660782175200     425.669014814353 
    20     19     21      1     120.104999638600     707.494800457430 
    21     22     39      1     118.063661129300     310.493309961378 
    21     22     45      1     121.770534386700     665.074567904266 
    21     23     40      1     107.660782175200     425.669014814353 
    21     23     41      1     107.660782175200     425.669014814353 
    21     23     42      1     107.660782175200     425.669014814353 
    22     21     23      1     107.660782175200     425.669014814353 
    22     21     38      1     107.660782175200     425.669014814353 
    22     45     46      1     120.104999638600     707.494800457430 
    22     45     47      1     120.104999638600     707.494800457430 
    23     21     38      1     107.660782175200     425.669014814353 
    24     25     44      1     119.854485991700     275.494453586476 
    25     24     43      1     119.854485991700     275.494453586476 
    29     12     30      1     108.354313526900     307.746905535118 
    29     12     31      1     108.354313526900     307.746905535118 
    30     12     31      1     108.354313526900     307.746905535118 
    39     22     45      1     118.063661129300     310.493309961378 
    40     23     41      1     108.354313526900     307.746905535118 
    40     23     42      1     108.354313526900     307.746905535118 
    41     23     42      1     108.354313526900     307.746905535118 
    45     47     48      1     120.104999638600     707.494800457430 
    45     47     69      1     120.104999638600     707.494800457430 
    46     45     47      1     120.104999638600     707.494800457430 
    47     48     49      1     120.104999638600     707.494800457430 
    47     48     70      1     119.854485991700     275.494453586476 
    47     69     68      1     120.104999638600     707.494800457430 
    47     69     88      1     119.854485991700     275.494453586476 
    48     47     69      1     120.104999638600     707.494800457430 
    48     49     50      1     120.104999638600     707.494800457430 
    48     49     71      1     119.854485991700     275.494453586476 
    49     48     70      1     119.854485991700     275.494453586476 
    49     50     51      1     120.104999638600     707.494800457430 
    49     50     68      1     120.104999638600     707.494800457430 
    50     49     71      1     119.854485991700     275.494453586476 
    50     51     52      1     120.104999638600     707.494800457430 
    50     51     58      1     120.104999638600     707.494800457430 
    50     68     69      1     120.104999638600     707.494800457430 
    50     68     87      1     119.854485991700     275.494453586476 
    51     50     68      1     120.104999638600     707.494800457430 
    51     52     53      1     120.104999638600     707.494800457430 
    51     52     59      1     120.104999638600     707.494800457430 
    51     58     57      1     120.104999638600     707.494800457430 
    51     58     77      1     119.854485991700     275.494453586476 
    52     51     58      1     120.104999638600     707.494800457430 
    52     53     54      1     120.104999638600     707.494800457430 
    52     53     72      1     119.854485991700     275.494453586476 
    52     59     60      1     120.104999638600     707.494800457430 
    52     59     64      1     120.104999638600     707.494800457430 
    53     52     59      1     120.104999638600     707.494800457430 
    53     54     55      1     120.104999638600     707.494800457430 
    53     54     57      1     120.104999638600     707.494800457430 
    54     53     72      1     119.854485991700     275.494453586476 
    54     55     56      1     112.873616114500    1003.288803783688 
    54     57     58      1     120.104999638600     707.494800457430 
    54     57     76      1     119.854485991700     275.494453586476 
    55     54     57      1     120.104999638600     707.494800457430 
    55     56     73      1     107.660782175200     425.669014814353 
    55     56     74      1     107.660782175200     425.669014814353 
    55     56     75      1     107.660782175200     425.669014814353 
    57     58     77      1     119.854485991700     275.494453586476 
    58     57     76      1     119.854485991700     275.494453586476 
    59     60     61      1     120.104999638600     707.494800457430 
    59     60     78      1     119.854485991700     275.494453586476 
    59     64     63      1     120.104999638600     707.494800457430 
    59     64     81      1     119.854485991700     275.494453586476 
    60     59     64      1     120.104999638600     707.494800457430 
    60     61     62      1     120.104999638600     707.494800457430 
    60     61     79      1     119.854485991700     275.494453586476 
    61     60     78      1     119.854485991700     275.494453586476 
    61     62     63      1     120.104999638600     707.494800457430 
    61     62     80      1     119.854485991700     275.494453586476 
    62     61     79      1     119.854485991700     275.494453586476 
    62     63     64      1     120.104999638600     707.494800457430 
    62     63     65      1     120.104999638600     707.494800457430 
    63     62     80      1     119.854485991700     275.494453586476 
    63     64     81      1     119.854485991700     275.494453586476 
    63     65     66      1     107.660782175200     425.669014814353 
    63     65     67      1     107.660782175200     425.669014814353 
    63     65     82      1     107.660782175200     425.669014814353 
    64     63     65      1     120.104999638600     707.494800457430 
    65     66     83      1     118.063661129300     310.493309961378 
    65     66     89      1     121.770534386700     665.074567904266 
    65     67     84      1     107.660782175200     425.669014814353 
    65     67     85      1     107.660782175200     425.669014814353 
    65     67     86      1     107.660782175200     425.669014814353 
    66     65     67      1     107.660782175200     425.669014814353 
    66     65     82      1     107.660782175200     425.669014814353 
    66     89     90      1     120.104999638600     707.494800457430 
    66     89     91      1     120.104999638600     707.494800457430 
    67     65     82      1     107.660782175200     425.669014814353 
    68     69     88      1     119.854485991700     275.494453586476 
    69     68     87      1     119.854485991700     275.494453586476 
    73     56     74      1     108.354313526900     307.746905535118 
    73     56     75      1     108.354313526900     307.746905535118 
    74     56     75      1     108.354313526900     307.746905535118 
    83     66     89      1     118.063661129300     310.493309961378 
    84     67     85      1     108.354313526900     307.746905535118 
    84     67     86      1     108.354313526900     307.746905535118 
    85     67     86      1     108.354313526900     307.746905535118 
    89     91     92      1     120.104999638600     707.494800457430 
    89     91    113      1     120.104999638600     707.494800457430 
    90     89     91      1     120.104999638600     707.494800457430 
    91     92     93      1     120.104999638600     707.494800457430 
    91     92    114      1     119.854485991700     275.494453586476 
    91    113    112      1     120.104999638600     707.494800457430 
    91    113    132      1     119.854485991700     275.494453586476 
    92     91    113      1     120.104999638600     707.494800457430 
    92     93     94      1     120.104999638600     707.494800457430 
    92     93    115      1     119.854485991700     275.494453586476 
    93     92    114      1     119.854485991700     275.494453586476 
    93     94     95      1     120.104999638600     707.494800457430 
    93     94    112      1     120.104999638600     707.494800457430 
    94     93    115      1     119.854485991700     275.494453586476 
    94     95     96      1     120.104999638600     707.494800457430 
    94     95    102      1     120.104999638600     707.494800457430 
    94    112    113      1     120.104999638600     707.494800457430 
    94    112    131      1     119.854485991700     275.494453586476 
    95     94    112      1     120.104999638600     707.494800457430 
    95     96     97      1     120.104999638600     707.494800457430 
    95     96    103      1     120.104999638600     707.494800457430 
    95    102    101      1     120.104999638600     707.494800457430 
    95    102    121      1     119.854485991700     275.494453586476 
    96     95    102      1     120.104999638600     707.494800457430 
    96     97     98      1     120.104999638600     707.494800457430 
    96     97    116      1     119.854485991700     275.494453586476 
    96    103    104      1     120.104999638600     707.494800457430 
    96    103    108      1     120.104999638600     707.494800457430 
    97     96    103      1     120.104999638600     707.494800457430 
    97     98     99      1     120.104999638600     707.494800457430 
    97     98    101      1     120.104999638600     707.494800457430 
    98     97    116      1     119.854485991700     275.494453586476 
    98     99    100      1     112.873616114500    1003.288803783688 
    98    101    102      1     120.104999638600     707.494800457430 
    98    101    120      1     119.854485991700     275.494453586476 
    99     98    101      1     120.104999638600     707.494800457430 
    99    100    117      1     107.660782175200     425.669014814353 
    99    100    118      1     107.660782175200     425.669014814353 
    99    100    119      1     107.660782175200     425.669014814353 
   101    102    121      1     119.854485991700     275.494453586476 
   102    101    120      1     119.854485991700     275.494453586476 
   103    104    105      1     120.104999638600     707.494800457430 
   103    104    122      1     119.854485991700     275.494453586476 
   103    108    107      1     120.104999638600     707.494800457430 
   103    108    125      1     119.854485991700     275.494453586476 
   104    103    108      1     120.104999638600     707.494800457430 
   104    105    106      1     120.104999638600     707.494800457430 
   104    105    123      1     119.854485991700     275.494453586476 
   105    104    122      1     119.854485991700     275.494453586476 
   105    106    107      1     120.104999638600     707.494800457430 
   105    106    124      1     119.854485991700     275.494453586476 
   106    105    123      1     119.854485991700     275.494453586476 
   106    107    108      1     120.104999638600     707.494800457430 
   106    107    109      1     120.104999638600     707.494800457430 
   107    106    124      1     119.854485991700     275.494453586476 
   107    108    125      1     119.854485991700     275.494453586476 
   107    109    110      1     107.660782175200     425.669014814353 
   107    109    111      1     107.660782175200     425.669014814353 
   107    109    126      1     107.660782175200     425.669014814353 
   108    107    109      1     120.104999638600     707.494800457430 
   109    110    127      1     118.063661129300     310.493309961378 
   109    110    133      1     121.770534386700     665.074567904266 
   109    111    128      1     107.660782175200     425.669014814353 
   109    111    129      1     107.660782175200     425.669014814353 
   109    111    130      1     107.660782175200     425.669014814353 
   110    109    111      1     107.660782175200     425.669014814353 
   110    109    126      1     107.660782175200     425.669014814353 
   110    133    134      1     120.104999638600     707.494800457430 
   110    133    135      1     120.104999638600     707.494800457430 
   111    109    126      1     107.660782175200     425.669014814353 
   112    113    132      1     119.854485991700     275.494453586476 
   113    112    131      1     119.854485991700     275.494453586476 
   117    100    118      1     108.354313526900     307.746905535118 
   117    100    119      1     108.354313526900     307.746905535118 
   118    100    119      1     108.354313526900     307.746905535118 
   127    110    133      1     118.063661129300     310.493309961378 
   128    111    129      1     108.354313526900     307.746905535118 
   128    111    130      1     108.354313526900     307.746905535118 
   129    111    130      1     108.354313526900     307.746905535118 
   133    135    136      1     120.104999638600     707.494800457430 
   133    135    157      1     120.104999638600     707.494800457430 
   134    133    135      1     120.104999638600     707.494800457430 
   135    136    137      1     120.104999638600     707.494800457430 
   135    136    158      1     119.854485991700     275.494453586476 
   135    157    156      1     120.104999638600     707.494800457430 
   135    157    176      1     119.854485991700     275.494453586476 
   136    135    157      1     120.104999638600     707.494800457430 
   136    137    138      1     120.104999638600     707.494800457430 
   136    137    159      1     119.854485991700     275.494453586476 
   137    136    158      1     119.854485991700     275.494453586476 
   137    138    139      1     120.104999638600     707.494800457430 
   137    138    156      1     120.104999638600     707.494800457430 
   138    137    159      1     119.854485991700     275.494453586476 
   138    139    140      1     120.104999638600     707.494800457430 
   138    139    146      1     120.104999638600     707.494800457430 
   138    156    157      1     120.104999638600     707.494800457430 
   138    156    175      1     119.854485991700     275.494453586476 
   139    138    156      1     120.104999638600     707.494800457430 
   139    140    141      1     120.104999638600     707.494800457430 
   139    140    147      1     120.104999638600     707.494800457430 
   139    146    145      1     120.104999638600     707.494800457430 
   139    146    165      1     119.854485991700     275.494453586476 
   140    139    146      1     120.104999638600     707.494800457430 
   140    141    142      1     120.104999638600     707.494800457430 
   140    141    160      1     119.854485991700     275.494453586476 
   140    147    148      1     120.104999638600     707.494800457430 
   140    147    152      1     120.104999638600     707.494800457430 
   141    140    147      1     120.104999638600     707.494800457430 
   141    142    143      1     120.104999638600     707.494800457430 
   141    142    145      1     120.104999638600     707.494800457430 
   142    141    160      1     119.854485991700     275.494453586476 
   142    143    144      1     112.873616114500    1003.288803783688 
   142    145    146      1     120.104999638600     707.494800457430 
   142    145    164      1     119.854485991700     275.494453586476 
   143    142    145      1     120.104999638600     707.494800457430 
   143    144    161      1     107.660782175200     425.669014814353 
   143    144    162      1     107.660782175200     425.669014814353 
   143    144    163      1     107.660782175200     425.669014814353 
   145    146    165      1     119.854485991700     275.494453586476 
   146    145    164      1     119.854485991700     275.494453586476 
   147    148    149      1     120.104999638600     707.494800457430 
   147    148    166      1     119.854485991700     275.494453586476 
   147    152    151      1     120.104999638600     707.494800457430 
   147    152    169      1     119.854485991700     275.494453586476 
   148    147    152      1     120.104999638600     707.494800457430 
   148    149    150      1     120.104999638600     707.494800457430 
   148    149    167      1     119.854485991700     275.494453586476 
   149    148    166      1     119.854485991700     275.494453586476 
   149    150    151      1     120.104999638600     707.494800457430 
   149    150    168      1     119.854485991700     275.494453586476 
   150    149    167      1     119.854485991700     275.494453586476 
   150    151    152      1     120.104999638600     707.494800457430 
   150    151    153      1     120.104999638600     707.494800457430 
   151    150    168      1     119.854485991700     275.494453586476 
   151    152    169      1     119.854485991700     275.494453586476 
   151    153    154      1     107.660782175200     425.669014814353 
   151    153    155      1     107.660782175200     425.669014814353 
   151    153    170      1     107.660782175200     425.669014814353 
   152    151    153      1     120.104999638600     707.494800457430 
   153    154    171      1     118.063661129300     310.493309961378 
   153    154    177      1     121.770534386700     665.074567904266 
   153    155    172      1     107.660782175200     425.669014814353 
   153    155    173      1     107.660782175200     425.669014814353 
   153    155    174      1     107.660782175200     425.669014814353 
   154    153    155      1     107.660782175200     425.669014814353 
   154    153    170      1     107.660782175200     425.669014814353 
   154    177    178      1     120.104999638600     707.494800457430 
   154    177    179      1     120.104999638600     707.494800457430 
   155    153    170      1     107.660782175200     425.669014814353 
   156    157    176      1     119.854485991700     275.494453586476 
   157    156    175      1     119.854485991700     275.494453586476 
   161    144    162      1     108.354313526900     307.746905535118 
   161    144    163      1     108.354313526900     307.746905535118 
   162    144    163      1     108.354313526900     307.746905535118 
   171    154    177      1     118.063661129300     310.493309961378 
   172    155    173      1     108.354313526900     307.746905535118 
   172    155    174      1     108.354313526900     307.746905535118 
   173    155    174      1     108.354313526900     307.746905535118 
   177    179    180      1     120.104999638600     707.494800457430 
   177    179    201      1     120.104999638600     707.494800457430 
   178    177    179      1     120.104999638600     707.494800457430 
   179    180    181      1     120.104999638600     707.494800457430 
   179    180    202      1     119.854485991700     275.494453586476 
   179    201    200      1     120.104999638600     707.494800457430 
   179    201    220      1     119.854485991700     275.494453586476 
   180    179    201      1     120.104999638600     707.494800457430 
   180    181    182      1     120.104999638600     707.494800457430 
   180    181    203      1     119.854485991700     275.494453586476 
   181    180    202      1     119.854485991700     275.494453586476 
   181    182    183      1     120.104999638600     707.494800457430 
   181    182    200      1     120.104999638600     707.494800457430 
   182    181    203      1     119.854485991700     275.494453586476 
   182    183    184      1     120.104999638600     707.494800457430 
   182    183    190      1     120.104999638600     707.494800457430 
   182    200    201      1     120.104999638600     707.494800457430 
   182    200    219      1     119.854485991700     275.494453586476 
   183    182    200      1     120.104999638600     707.494800457430 
   183    184    185      1     120.104999638600     707.494800457430 
   183    184    191      1     120.104999638600     707.494800457430 
   183    190    189      1     120.104999638600     707.494800457430 
   183    190    209      1     119.854485991700     275.494453586476 
   184    183    190      1     120.104999638600     707.494800457430 
   184    185    186      1     120.104999638600     707.494800457430 
   184    185    204      1     119.854485991700     275.494453586476 
   184    191    192      1     120.104999638600     707.494800457430 
   184    191    196      1     120.104999638600     707.494800457430 
   185    184    191      1     120.104999638600     707.494800457430 
   185    186    187      1     120.104999638600     707.494800457430 
   185    186    189      1     120.104999638600     707.494800457430 
   186    185    204      1     119.854485991700     275.494453586476 
   186    187    188      1     112.873616114500    1003.288803783688 
   186    189    190      1     120.104999638600     707.494800457430 
   186    189    208      1     119.854485991700     275.494453586476 
   187    186    189      1     120.104999638600     707.494800457430 
   187    188    205      1     107.660782175200     425.669014814353 
   187    188    206      1     107.660782175200     425.669014814353 
   187    188    207      1     107.660782175200     425.669014814353 
   189    190    209      1     119.854485991700     275.494453586476 
   190    189    208      1     119.854485991700     275.494453586476 
   191    192    193      1     120.104999638600     707.494800457430 
   191    192    210      1     119.854485991700     275.494453586476 
   191    196    195      1     120.104999638600     707.494800457430 
   191    196    213      1     119.854485991700     275.494453586476 
   192    191    196      1     120.104999638600     707.494800457430 
   192    193    194      1     120.104999638600     707.494800457430 
   192    193    211      1     119.854485991700     275.494453586476 
   193    192    210      1     119.854485991700     275.494453586476 
   193    194    195      1     120.104999638600     707.494800457430 
   193    194    212      1     119.854485991700     275.494453586476 
   194    193    211      1     119.854485991700     275.494453586476 
   194    195    196      1     120.104999638600     707.494800457430 
   194    195    197      1     120.104999638600     707.494800457430 
   195    194    212      1     119.854485991700     275.494453586476 
   195    196    213      1     119.854485991700     275.494453586476 
   195    197    198      1     107.660782175200     425.669014814353 
   195    197    199      1     107.660782175200     425.669014814353 
   195    197    214      1     107.660782175200     425.669014814353 
   196    195    197      1     120.104999638600     707.494800457430 
   197    198    215      1     118.063661129300     310.493309961378 
   197    198    221      1     121.770534386700     665.074567904266 
   197    199    216      1     107.660782175200     425.669014814353 
   197    199    217      1     107.660782175200     425.669014814353 
   197    199    218      1     107.660782175200     425.669014814353 
   198    197    199      1     107.660782175200     425.669014814353 
   198    197    214      1     107.660782175200     425.669014814353 
   198    221    222      1     120.104999638600     707.494800457430 
   198    221    223      1     120.104999638600     707.494800457430 
   199    197    214      1     107.660782175200     425.669014814353 
   200    201    220      1     119.854485991700     275.494453586476 
   201    200    219      1     119.854485991700     275.494453586476 
   205    188    206      1     108.354313526900     307.746905535118 
   205    188    207      1     108.354313526900     307.746905535118 
   206    188    207      1     108.354313526900     307.746905535118 
   215    198    221      1     118.063661129300     310.493309961378 
   216    199    217      1     108.354313526900     307.746905535118 
   216    199    218      1     108.354313526900     307.746905535118 
   217    199    218      1     108.354313526900     307.746905535118 
   221    223    224      1     120.104999638600     707.494800457430 
   221    223    245      1     120.104999638600     707.494800457430 
   222    221    223      1     120.104999638600     707.494800457430 
   223    224    225      1     120.104999638600     707.494800457430 
   223    224    246      1     119.854485991700     275.494453586476 
   223    245    244      1     120.104999638600     707.494800457430 
   223    245    264      1     119.854485991700     275.494453586476 
   224    223    245      1     120.104999638600     707.494800457430 
   224    225    226      1     120.104999638600     707.494800457430 
   224    225    247      1     119.854485991700     275.494453586476 
   225    224    246      1     119.854485991700     275.494453586476 
   225    226    227      1     120.104999638600     707.494800457430 
   225    226    244      1     120.104999638600     707.494800457430 
   226    225    247      1     119.854485991700     275.494453586476 
   226    227    228      1     120.104999638600     707.494800457430 
   226    227    234      1     120.104999638600     707.494800457430 
   226    244    245      1     120.104999638600     707.494800457430 
   226    244    263      1     119.854485991700     275.494453586476 
   227    226    244      1     120.104999638600     707.494800457430 
   227    228    229      1     120.104999638600     707.494800457430 
   227    228    235      1     120.104999638600     707.494800457430 
   227    234    233      1     120.104999638600     707.494800457430 
   227    234    253      1     119.854485991700     275.494453586476 
   228    227    234      1     120.104999638600     707.494800457430 
   228    229    230      1     120.104999638600     707.494800457430 
   228    229    248      1     119.854485991700     275.494453586476 
   228    235    236      1     120.104999638600     707.494800457430 
   228    235    240      1     120.104999638600     707.494800457430 
   229    228    235      1     120.104999638600     707.494800457430 
   229    230    231      1     120.104999638600     707.494800457430 
   229    230    233      1     120.104999638600     707.494800457430 
   230    229    248      1     119.854485991700     275.494453586476 
   230    231    232      1     112.873616114500    1003.288803783688 
   230    233    234      1     120.104999638600     707.494800457430 
   230    233    252      1     119.854485991700     275.494453586476 
   231    230    233      1     120.104999638600     707.494800457430 
   231    232    249      1     107.660782175200     425.669014814353 
   231    232    250      1     107.660782175200     425.669014814353 
   231    232    251      1     107.660782175200     425.669014814353 
   233    234    253      1     119.854485991700     275.494453586476 
   234    233    252      1     119.854485991700     275.494453586476 
   235    236    237      1     120.104999638600     707.494800457430 
   235    236    254      1     119.854485991700     275.494453586476 
   235    240    239      1     120.104999638600     707.494800457430 
   235    240    257      1     119.854485991700     275.494453586476 
   236    235    240      1     120.104999638600     707.494800457430 
   236    237    238      1     120.104999638600     707.494800457430 
   236    237    255      1     119.854485991700     275.494453586476 
   237    236    254      1     119.854485991700     275.494453586476 
   237    238    239      1     120.104999638600     707.494800457430 
   237    238    256      1     119.854485991700     275.494453586476 
   238    237    255      1     119.854485991700     275.494453586476 
   238    239    240      1     120.104999638600     707.494800457430 
   238    239    241      1     120.104999638600     707.494800457430 
   239    238    256      1     119.854485991700     275.494453586476 
   239    240    257      1     119.854485991700     275.494453586476 
   239    241    242      1     107.660782175200     425.669014814353 
   239    241    243      1     107.660782175200     425.669014814353 
   239    241    258      1     107.660782175200     425.669014814353 
   240    239    241      1     120.104999638600     707.494800457430 
   241    242    259      1     118.063661129300     310.493309961378 
   241    242    265      1     121.770534386700     665.074567904266 
   241    243    260      1     107.660782175200     425.669014814353 
   241    243    261      1     107.660782175200     425.669014814353 
   241    243    262      1     107.660782175200     425.669014814353 
   242    241    243      1     107.660782175200     425.669014814353 
   242    241    258      1     107.660782175200     425.669014814353 
   242    265    266      1     120.104999638600     707.494800457430 
   242    265    267      1     120.104999638600     707.494800457430 
   243    241    258      1     107.660782175200     425.669014814353 
   244    245    264      1     119.854485991700     275.494453586476 
   245    244    263      1     119.854485991700     275.494453586476 
   249    232    250      1     108.354313526900     307.746905535118 
   249    232    251      1     108.354313526900     307.746905535118 
   250    232    251      1     108.354313526900     307.746905535118 
   259    242    265      1     118.063661129300     310.493309961378 
   260    243    261      1     108.354313526900     307.746905535118 
   260    243    262      1     108.354313526900     307.746905535118 
   261    243    262      1     108.354313526900     307.746905535118 
   265    267    268      1     120.104999638600     707.494800457430 
   265    267    289      1     120.104999638600     707.494800457430 
   266    265    267      1     120.104999638600     707.494800457430 
   267    268    269      1     120.104999638600     707.494800457430 
   267    268    290      1     119.854485991700     275.494453586476 
   267    289    288      1     120.104999638600     707.494800457430 
   267    289    308      1     119.854485991700     275.494453586476 
   268    267    289      1     120.104999638600     707.494800457430 
   268    269    270      1     120.104999638600     707.494800457430 
   268    269    291      1     119.854485991700     275.494453586476 
   269    268    290      1     119.854485991700     275.494453586476 
   269    270    271      1     120.104999638600     707.494800457430 
   269    270    288      1     120.104999638600     707.494800457430 
   270    269    291      1     119.854485991700     275.494453586476 
   270    271    272      1     120.104999638600     707.494800457430 
   270    271    278      1     120.104999638600     707.494800457430 
   270    288    289      1     120.104999638600     707.494800457430 
   270    288    307      1     119.854485991700     275.494453586476 
   271    270    288      1     120.104999638600     707.494800457430 
   271    272    273      1     120.104999638600     707.494800457430 
   271    272    279      1     120.104999638600     707.494800457430 
   271    278    277      1     120.104999638600     707.494800457430 
   271    278    297      1     119.854485991700     275.494453586476 
   272    271    278      1     120.104999638600     707.494800457430 
   272    273    274      1     120.104999638600     707.494800457430 
   272    273    292      1     119.854485991700     275.494453586476 
   272    279    280      1     120.104999638600     707.494800457430 
   272    279    284      1     120.104999638600     707.494800457430 
   273    272    279      1     120.104999638600     707.494800457430 
   273    274    275      1     120.104999638600     707.494800457430 
   273    274    277      1     120.104999638600     707.494800457430 
   274    273    292      1     119.854485991700     275.494453586476 
   274    275    276      1     112.873616114500    1003.288803783688 
   274    277    278      1     120.104999638600     707.494800457430 
   274    277    296      1     119.854485991700     275.494453586476 
   275    274    277      1     120.104999638600     707.494800457430 
   275    276    293      1     107.660782175200     425.669014814353 
   275    276    294      1     107.660782175200     425.669014814353 
   275    276    295      1     107.660782175200     425.669014814353 
   277    278    297      1     119.854485991700     275.494453586476 
   278    277    296      1     119.854485991700     275.494453586476 
   279    280    281      1     120.104999638600     707.494800457430 
   279    280    298      1     119.854485991700     275.494453586476 
   279    284    283      1     120.104999638600     707.494800457430 
   279    284    301      1     119.854485991700     275.494453586476 
   280    279    284      1     120.104999638600     707.494800457430 
   280    281    282      1     120.104999638600     707.494800457430 
   280    281    299      1     119.854485991700     275.494453586476 
   281    280    298      1     119.854485991700     275.494453586476 
   281    282    283      1     120.104999638600     707.494800457430 
   281    282    300      1     119.854485991700     275.494453586476 
   282    281    299      1     119.854485991700     275.494453586476 
   282    283    284      1     120.104999638600     707.494800457430 
   282    283    285      1     120.104999638600     707.494800457430 
   283    282    300      1     119.854485991700     275.494453586476 
   283    284    301      1     119.854485991700     275.494453586476 
   283    285    286      1     107.660782175200     425.669014814353 
   283    285    287      1     107.660782175200     425.669014814353 
   283    285    302      1     107.660782175200     425.669014814353 
   284    283    285      1     120.104999638600     707.494800457430 
   285    286    303      1     118.063661129300     310.493309961378 
   285    286    309      1     121.770534386700     665.074567904266 
   285    287    304      1     107.660782175200     425.669014814353 
   285    287    305      1     107.660782175200     425.669014814353 
   285    287    306      1     107.660782175200     425.669014814353 
   286    285    287      1     107.660782175200     425.669014814353 
   286    285    302      1     107.660782175200     425.669014814353 
   286    309    310      1     120.104999638600     707.494800457430 
   286    309    311      1     120.104999638600     707.494800457430 
   287    285    302      1     107.660782175200     425.669014814353 
   288    289    308      1     119.854485991700     275.494453586476 
   289    288    307      1     119.854485991700     275.494453586476 
   293    276    294      1     108.354313526900     307.746905535118 
   293    276    295      1     108.354313526900     307.746905535118 
   294    276    295      1     108.354313526900     307.746905535118 
   303    286    309      1     118.063661129300     310.493309961378 
   304    287    305      1     108.354313526900     307.746905535118 
   304    287    306      1     108.354313526900     307.746905535118 
   305    287    306      1     108.354313526900     307.746905535118 
   309    311    312      1     120.104999638600     707.494800457430 
   309    311    333      1     120.104999638600     707.494800457430 
   310    309    311      1     120.104999638600     707.494800457430 
   311    312    313      1     120.104999638600     707.494800457430 
   311    312    334      1     119.854485991700     275.494453586476 
   311    333    332      1     120.104999638600     707.494800457430 
   311    333    352      1     119.854485991700     275.494453586476 
   312    311    333      1     120.104999638600     707.494800457430 
   312    313    314      1     120.104999638600     707.494800457430 
   312    313    335      1     119.854485991700     275.494453586476 
   313    312    334      1     119.854485991700     275.494453586476 
   313    314    315      1     120.104999638600     707.494800457430 
   313    314    332      1     120.104999638600     707.494800457430 
   314    313    335      1     119.854485991700     275.494453586476 
   314    315    316      1     120.104999638600     707.494800457430 
   314    315    322      1     120.104999638600     707.494800457430 
   314    332    333      1     120.104999638600     707.494800457430 
   314    332    351      1     119.854485991700     275.494453586476 
   315    314    332      1     120.104999638600     707.494800457430 
   315    316    317      1     120.104999638600     707.494800457430 
   315    316    323      1     120.104999638600     707.494800457430 
   315    322    321      1     120.104999638600     707.494800457430 
   315    322    341      1     119.854485991700     275.494453586476 
   316    315    322      1     120.104999638600     707.494800457430 
   316    317    318      1     120.104999638600     707.494800457430 
   316    317    336      1     119.854485991700     275.494453586476 
   316    323    324      1     120.104999638600     707.494800457430 
   316    323    328      1     120.104999638600     707.494800457430 
   317    316    323      1     120.104999638600     707.494800457430 
   317    318    319      1     120.104999638600     707.494800457430 
   317    318    321      1     120.104999638600     707.494800457430 
   318    317    336      1     119.854485991700     275.494453586476 
   318    319    320      1     112.873616114500    1003.288803783688 
   318    321    322      1     120.104999638600     707.494800457430 
   318    321    340      1     119.854485991700     275.494453586476 
   319    318    321      1     120.104999638600     707.494800457430 
   319    320    337      1     107.660782175200     425.669014814353 
   319    320    338      1     107.660782175200     425.669014814353 
   319    320    339      1     107.660782175200     425.669014814353 
   321    322    341      1     119.854485991700     275.494453586476 
   322    321    340      1     119.854485991700     275.494453586476 
   323    324    325      1     120.104999638600     707.494800457430 
   323    324    342      1     119.854485991700     275.494453586476 
   323    328    327      1     120.104999638600     707.494800457430 
   323    328    345      1     119.854485991700     275.494453586476 
   324    323    328      1     120.104999638600     707.494800457430 
   324    325    326      1     120.104999638600     707.494800457430 
   324    325    343      1     119.854485991700     275.494453586476 
   325    324    342      1     119.854485991700     275.494453586476 
   325    326    327      1     120.104999638600     707.494800457430 
   325    326    344      1     119.854485991700     275.494453586476 
   326    325    343      1     119.854485991700     275.494453586476 
   326    327    328      1     120.104999638600     707.494800457430 
   326    327    329      1     120.104999638600     707.494800457430 
   327    326    344      1     119.854485991700     275.494453586476 
   327    328    345      1     119.854485991700     275.494453586476 
   327    329    330      1     107.660782175200     425.669014814353 
   327    329    331      1     107.660782175200     425.669014814353 
   327    329    346      1     107.660782175200     425.669014814353 
   328    327    329      1     120.104999638600     707.494800457430 
   329    330    347      1     118.063661129300     310.493309961378 
   329    330    363      1     121.770534386700     665.074567904266 
   329    331    348      1     107.660782175200     425.669014814353 
   329    331    349      1     107.660782175200     425.669014814353 
   329    331    350      1     107.660782175200     425.669014814353 
   330    329    331      1     107.660782175200     425.669014814353 
   330    329    346      1     107.660782175200     425.669014814353 
   330    363    362      1     120.104999638600     707.494800457430 
   330    363    364      1     120.104999638600     707.494800457430 
   331    329    346      1     107.660782175200     425.669014814353 
   332    333    352      1     119.854485991700     275.494453586476 
   333    332    351      1     119.854485991700     275.494453586476 
   337    320    338      1     108.354313526900     307.746905535118 
   337    320    339      1     108.354313526900     307.746905535118 
   338    320    339      1     108.354313526900     307.746905535118 
   347    330    363      1     118.063661129300     310.493309961378 
   348    331    349      1     108.354313526900     307.746905535118 
   348    331    350      1     108.354313526900     307.746905535118 
   349    331    350      1     108.354313526900     307.746905535118 
   354    353    355      1     107.660782175200     425.669014814353 
   354    353    356      1     107.660782175200     425.669014814353 
   354    353    357      1     107.660782175200     425.669014814353 
   355    353    356      1     108.354313526900     307.746905535118 
   355    353    357      1     108.354313526900     307.746905535118 
   356    353    357      1     108.354313526900     307.746905535118 
   358    359    360      1     107.660782175200     425.669014814353 
   358    359    361      1     107.660782175200     425.669014814353 
   358    359    362      1     107.660782175200     425.669014814353 
   359    358    365      1     107.660782175200     425.669014814353 
   359    358    366      1     107.660782175200     425.669014814353 
   359    358    367      1     107.660782175200     425.669014814353 
   359    360    368      1     107.660782175200     425.669014814353 
   359    360    369      1     107.660782175200     425.669014814353 
   359    360    370      1     107.660782175200     425.669014814353 
   359    361    371      1     107.660782175200     425.669014814353 
   359    361    372      1     107.660782175200     425.669014814353 
   359    361    373      1     107.660782175200     425.669014814353 
   359    362    363      1     112.873616114500    1003.288803783688 
   360    359    361      1     107.660782175200     425.669014814353 
   360    359    362      1     107.660782175200     425.669014814353 
   361    359    362      1     107.660782175200     425.669014814353 
   362    363    364      1     123.605890003500     529.778359969850 
   365    358    366      1     108.354313526900     307.746905535118 
   365    358    367      1     108.354313526900     307.746905535118 
   366    358    367      1     108.354313526900     307.746905535118 
   368    360    369      1     108.354313526900     307.746905535118 
   368    360    370      1     108.354313526900     307.746905535118 
   369    360    370      1     108.354313526900     307.746905535118 
   371    361    372      1     108.354313526900     307.746905535118 
   371    361    373      1     108.354313526900     307.746905535118 
   372    361    373      1     108.354313526900     307.746905535118 

[ dihedrals ]
;ai    aj   ak   al   funct phi  k
     1     3     4     5     1    180.000000000000     13.675298757543                 2
     1     3     4    26     1    180.000000000000     13.675298757543                 2
     1     3    25    24     1    180.000000000000     13.675298757543                 2
     1     3    25    44     1    180.000000000000     13.675298757543                 2
     1   354   353   355     1      0.000000000000      1.100857953953                 3
     1   354   353   356     1      0.000000000000      1.100857953953                 3
     1   354   353   357     1      0.000000000000      1.100857953953                 3
     2     1     3     4     1      0.000000000000      0.105330798629                 1
     2     1     3     4     1    180.000000000000      1.830377401557                 2
     2     1     3     4     1      0.000000000000      0.164357481425                 3
     2     1     3     4     1    180.000000000000      0.243788921845                 4
     2     1     3    25     1      0.000000000000      0.105330798629                 1
     2     1     3    25     1    180.000000000000      1.830377401557                 2
     2     1     3    25     1      0.000000000000      0.164357481425                 3
     2     1     3    25     1    180.000000000000      0.243788921845                 4
     2     1   354   353     1      0.000000000000      4.020435785658                 1
     2     1   354   353     1    180.000000000000      3.193568991147                 2
     2     1   354   353     1      0.000000000000     -2.476057440355                 3
     2     1   354   353     1    180.000000000000      0.454281074697                 4
     3     1   354   353     1      0.000000000000      1.483282353685                 1
     3     1   354   353     1    180.000000000000     16.354987887715                 2
     3     1   354   353     1      0.000000000000      3.207515898044                 3
     3     1   354   353     1    180.000000000000      2.382234968691                 4
     3     4     5     6     1    180.000000000000     13.675298757543                 2
     3     4     5    27     1    180.000000000000     13.675298757543                 2
     3    25    24     6     1    180.000000000000     13.675298757543                 2
     3    25    24    43     1    180.000000000000     13.675298757543                 2
     4     3     1   354     1      0.000000000000     -0.100728228457                 1
     4     3     1   354     1    180.000000000000      2.061018606700                 2
     4     3     1   354     1      0.000000000000     -0.182320084460                 3
     4     3     1   354     1    180.000000000000     -0.081361184232                 4
     4     3    25    24     1    180.000000000000     13.675298757543                 2
     4     3    25    44     1    180.000000000000     13.675298757543                 2
     4     5     6     7     1    180.000000000000     13.675298757543                 2
     4     5     6    24     1    180.000000000000     13.675298757543                 2
     5     4     3    25     1    180.000000000000     13.675298757543                 2
     5     6     7     8     1      0.000000000000     -0.304473866043                 1
     5     6     7     8     1    180.000000000000      5.638519738776                 2
     5     6     7     8     1      0.000000000000     -0.337875939218                 3
     5     6     7     8     1    180.000000000000     -0.310471177225                 4
     5     6     7    14     1      0.000000000000      0.327701557688                 1
     5     6     7    14     1    180.000000000000      6.214477812011                 2
     5     6     7    14     1      0.000000000000      0.347537140987                 3
     5     6     7    14     1    180.000000000000      2.062325814514                 4
     5     6    24    25     1    180.000000000000     13.675298757543                 2
     5     6    24    43     1    180.000000000000     13.675298757543                 2
     6     5     4    26     1    180.000000000000     13.675298757543                 2
     6     7     8     9     1    180.000000000000     13.675298757543                 2
     6     7     8    15     1    180.000000000000     13.675298757543                 2
     6     7    14    13     1    180.000000000000     13.675298757543                 2
     6     7    14    33     1    180.000000000000     13.675298757543                 2
     6    24    25    44     1    180.000000000000     13.675298757543                 2
     7     6     5    27     1    180.000000000000     13.675298757543                 2
     7     6    24    25     1    180.000000000000     13.675298757543                 2
     7     6    24    43     1    180.000000000000     13.675298757543                 2
     7     8     9    10     1    180.000000000000     13.675298757543                 2
     7     8     9    28     1    180.000000000000     13.675298757543                 2
     7     8    15    16     1    180.000000000000      5.177721731788                 2
     7     8    15    20     1    180.000000000000      5.177721731788                 2
     7    14    13    10     1    180.000000000000     13.675298757543                 2
     7    14    13    32     1    180.000000000000     13.675298757543                 2
     8     7     6    24     1      0.000000000000     -0.304473866043                 1
     8     7     6    24     1    180.000000000000      5.638519738776                 2
     8     7     6    24     1      0.000000000000     -0.337875939218                 3
     8     7     6    24     1    180.000000000000     -0.310471177225                 4
     8     7    14    13     1    180.000000000000     13.675298757543                 2
     8     7    14    33     1    180.000000000000     13.675298757543                 2
     8     9    10    11     1    180.000000000000     13.675298757543                 2
     8     9    10    13     1    180.000000000000     13.675298757543                 2
     8    15    16    17     1    180.000000000000     13.675298757543                 2
     8    15    16    34     1    180.000000000000     13.675298757543                 2
     8    15    20    19     1    180.000000000000     13.675298757543                 2
     8    15    20    37     1    180.000000000000     13.675298757543                 2
     9     8     7    14     1    180.000000000000     13.675298757543                 2
     9     8    15    16     1    180.000000000000      5.177721731788                 2
     9     8    15    20     1    180.000000000000      5.177721731788                 2
     9    10    11    12     1      0.000000000000      0.236597390744                 1
     9    10    11    12     1    180.000000000000      9.740711322807                 2
     9    10    11    12     1      0.000000000000      1.171142620756                 3
     9    10    11    12     1    180.000000000000      0.673361548209                 4
     9    10    13    14     1    180.000000000000     13.675298757543                 2
     9    10    13    32     1    180.000000000000     13.675298757543                 2
    10     9     8    15     1    180.000000000000     13.675298757543                 2
    10    11    12    29     1      0.000000000000      1.100857953953                 3
    10    11    12    30     1      0.000000000000      1.100857953953                 3
    10    11    12    31     1      0.000000000000      1.100857953953                 3
    10    13    14    33     1    180.000000000000     13.675298757543                 2
    11    10     9    28     1    180.000000000000     13.675298757543                 2
    11    10    13    14     1    180.000000000000     13.675298757543                 2
    11    10    13    32     1    180.000000000000     13.675298757543                 2
    12    11    10    13     1      0.000000000000      0.236597390744                 1
    12    11    10    13     1    180.000000000000      9.740711322807                 2
    12    11    10    13     1      0.000000000000      1.171142620756                 3
    12    11    10    13     1    180.000000000000      0.673361548209                 4
    13    10     9    28     1    180.000000000000     13.675298757543                 2
    14     7     6    24     1      0.000000000000      0.327701557688                 1
    14     7     6    24     1    180.000000000000      6.214477812011                 2
    14     7     6    24     1      0.000000000000      0.347537140987                 3
    14     7     6    24     1    180.000000000000      2.062325814514                 4
    14     7     8    15     1    180.000000000000     13.675298757543                 2
    15     8     9    28     1    180.000000000000     13.675298757543                 2
    15    16    17    18     1    180.000000000000     13.675298757543                 2
    15    16    17    35     1    180.000000000000     13.675298757543                 2
    15    20    19    18     1    180.000000000000     13.675298757543                 2
    15    20    19    21     1    180.000000000000     13.675298757543                 2
    16    15    20    19     1    180.000000000000     13.675298757543                 2
    16    15    20    37     1    180.000000000000     13.675298757543                 2
    16    17    18    19     1    180.000000000000     13.675298757543                 2
    16    17    18    36     1    180.000000000000     13.675298757543                 2
    17    16    15    20     1    180.000000000000     13.675298757543                 2
    17    18    19    20     1    180.000000000000     13.675298757543                 2
    17    18    19    21     1    180.000000000000     13.675298757543                 2
    18    17    16    34     1    180.000000000000     13.675298757543                 2
    18    19    20    37     1    180.000000000000     13.675298757543                 2
    18    19    21    22     1      0.000000000000      0.214435416894                 1
    18    19    21    22     1    180.000000000000      1.285855803333                 2
    18    19    21    22     1      0.000000000000      0.120462784425                 3
    18    19    21    22     1    180.000000000000      0.048633610628                 4
    18    19    21    23     1      0.000000000000     -0.097019738909                 1
    18    19    21    23     1    180.000000000000     -0.250823325382                 2
    18    19    21    23     1      0.000000000000      0.131726537237                 3
    18    19    21    23     1    180.000000000000      0.022062147303                 4
    18    19    21    38     1      0.000000000000     -0.124175546955                 1
    18    19    21    38     1    180.000000000000     -0.979980918869                 2
    18    19    21    38     1      0.000000000000      0.132014102331                 3
    18    19    21    38     1    180.000000000000      0.184093839400                 4
    19    18    17    35     1    180.000000000000     13.675298757543                 2
    19    21    22    39     1      0.000000000000      3.762653108787                 1
    19    21    22    39     1    180.000000000000      2.746042277126                 2
    19    21    22    39     1      0.000000000000      1.147197619654                 3
    19    21    22    39     1    180.000000000000      0.725906633006                 4
    19    21    22    45     1      0.000000000000     -5.282967454290                 1
    19    21    22    45     1    180.000000000000      1.932264434142                 2
    19    21    22    45     1      0.000000000000     -0.702538909088                 3
    19    21    22    45     1    180.000000000000     -0.708884593460                 4
    19    21    23    40     1      0.000000000000      0.602098025234                 3
    19    21    23    41     1      0.000000000000      0.602098025234                 3
    19    21    23    42     1      0.000000000000      0.602098025234                 3
    20    15    16    34     1    180.000000000000     13.675298757543                 2
    20    19    18    36     1    180.000000000000     13.675298757543                 2
    20    19    21    22     1      0.000000000000      0.214435416894                 1
    20    19    21    22     1    180.000000000000      1.285855803333                 2
    20    19    21    22     1      0.000000000000      0.120462784425                 3
    20    19    21    22     1    180.000000000000      0.048633610628                 4
    20    19    21    23     1      0.000000000000     -0.097019738909                 1
    20    19    21    23     1    180.000000000000     -0.250823325382                 2
    20    19    21    23     1      0.000000000000      0.131726537237                 3
    20    19    21    23     1    180.000000000000      0.022062147303                 4
    20    19    21    38     1      0.000000000000     -0.124175546955                 1
    20    19    21    38     1    180.000000000000     -0.979980918869                 2
    20    19    21    38     1      0.000000000000      0.132014102331                 3
    20    19    21    38     1    180.000000000000      0.184093839400                 4
    21    19    18    36     1    180.000000000000     13.675298757543                 2
    21    19    20    37     1    180.000000000000     13.675298757543                 2
    21    22    45    46     1      0.000000000000     -2.082890772434                 1
    21    22    45    46     1    180.000000000000      9.356909567592                 2
    21    22    45    46     1      0.000000000000      0.839653717923                 3
    21    22    45    46     1    180.000000000000     -0.956526547205                 4
    21    22    45    47     1      0.000000000000      1.010431686578                 1
    21    22    45    47     1    180.000000000000      8.697701907094                 2
    21    22    45    47     1      0.000000000000      1.692690657305                 3
    21    22    45    47     1    180.000000000000      2.175601803098                 4
    22    21    23    40     1      0.000000000000      0.602098025234                 3
    22    21    23    41     1      0.000000000000      0.602098025234                 3
    22    21    23    42     1      0.000000000000      0.602098025234                 3
    22    45    47    48     1      0.000000000000     -0.051441979596                 1
    22    45    47    48     1    180.000000000000      4.260811327580                 2
    22    45    47    48     1      0.000000000000     -0.173948076049                 3
    22    45    47    48     1    180.000000000000      0.121518206243                 4
    22    45    47    69     1      0.000000000000     -0.051441979596                 1
    22    45    47    69     1    180.000000000000      4.260811327580                 2
    22    45    47    69     1      0.000000000000     -0.173948076049                 3
    22    45    47    69     1    180.000000000000      0.121518206243                 4
    23    21    22    39     1      0.000000000000     -1.860356063496                 1
    23    21    22    39     1    180.000000000000      0.762414140658                 2
    23    21    22    39     1      0.000000000000      0.705501691789                 3
    23    21    22    39     1    180.000000000000     -0.479941943029                 4
    23    21    22    45     1      0.000000000000     -0.160479705077                 1
    23    21    22    45     1    180.000000000000      0.408810172172                 2
    23    21    22    45     1      0.000000000000     -1.228437654664                 3
    23    21    22    45     1    180.000000000000      0.180262340815                 4
    24     6     5    27     1    180.000000000000     13.675298757543                 2
    25     3     1   354     1      0.000000000000     -0.100728228457                 1
    25     3     1   354     1    180.000000000000      2.061018606700                 2
    25     3     1   354     1      0.000000000000     -0.182320084460                 3
    25     3     1   354     1    180.000000000000     -0.081361184232                 4
    25     3     4    26     1    180.000000000000     13.675298757543                 2
    26     4     5    27     1    180.000000000000     13.675298757543                 2
    32    13    14    33     1    180.000000000000     13.675298757543                 2
    34    16    17    35     1    180.000000000000     13.675298757543                 2
    35    17    18    36     1    180.000000000000     13.675298757543                 2
    38    21    22    39     1      0.000000000000     -2.096404551037                 1
    38    21    22    39     1    180.000000000000      0.803720187448                 2
    38    21    22    39     1      0.000000000000      0.991610902064                 3
    38    21    22    39     1    180.000000000000     -0.031013272831                 4
    38    21    22    45     1      0.000000000000      2.595971637386                 1
    38    21    22    45     1    180.000000000000      0.356978847596                 2
    38    21    22    45     1      0.000000000000      0.501404997592                 3
    38    21    22    45     1    180.000000000000      0.275944328045                 4
    38    21    23    40     1      0.000000000000      0.953929629431                 3
    38    21    23    41     1      0.000000000000      0.953929629431                 3
    38    21    23    42     1      0.000000000000      0.953929629431                 3
    39    22    45    46     1      0.000000000000      4.124920165638                 1
    39    22    45    46     1    180.000000000000      5.016401768351                 2
    39    22    45    46     1      0.000000000000     -0.503093285174                 3
    39    22    45    46     1    180.000000000000     -0.926538649938                 4
    39    22    45    47     1      0.000000000000      2.282619851962                 1
    39    22    45    47     1    180.000000000000      9.208033849624                 2
    39    22    45    47     1      0.000000000000     -0.072213145150                 3
    39    22    45    47     1    180.000000000000      1.138370716282                 4
    43    24    25    44     1    180.000000000000     13.675298757543                 2
    45    47    48    49     1    180.000000000000     13.675298757543                 2
    45    47    48    70     1    180.000000000000     13.675298757543                 2
    45    47    69    68     1    180.000000000000     13.675298757543                 2
    45    47    69    88     1    180.000000000000     13.675298757543                 2
    46    45    47    48     1      0.000000000000      0.040224616410                 1
    46    45    47    48     1    180.000000000000     -0.271329461231                 2
    46    45    47    48     1      0.000000000000      0.163069623559                 3
    46    45    47    48     1    180.000000000000      0.331414866539                 4
    46    45    47    69     1      0.000000000000      0.040224616410                 1
    46    45    47    69     1    180.000000000000     -0.271329461231                 2
    46    45    47    69     1      0.000000000000      0.163069623559                 3
    46    45    47    69     1    180.000000000000      0.331414866539                 4
    47    48    49    50     1    180.000000000000     13.675298757543                 2
    47    48    49    71     1    180.000000000000     13.675298757543                 2
    47    69    68    50     1    180.000000000000     13.675298757543                 2
    47    69    68    87     1    180.000000000000     13.675298757543                 2
    48    47    69    68     1    180.000000000000     13.675298757543                 2
    48    47    69    88     1    180.000000000000     13.675298757543                 2
    48    49    50    51     1    180.000000000000     13.675298757543                 2
    48    49    50    68     1    180.000000000000     13.675298757543                 2
    49    48    47    69     1    180.000000000000     13.675298757543                 2
    49    50    51    52     1      0.000000000000     -0.304473866043                 1
    49    50    51    52     1    180.000000000000      5.638519738776                 2
    49    50    51    52     1      0.000000000000     -0.337875939218                 3
    49    50    51    52     1    180.000000000000     -0.310471177225                 4
    49    50    51    58     1      0.000000000000      0.327701557688                 1
    49    50    51    58     1    180.000000000000      6.214477812011                 2
    49    50    51    58     1      0.000000000000      0.347537140987                 3
    49    50    51    58     1    180.000000000000      2.062325814514                 4
    49    50    68    69     1    180.000000000000     13.675298757543                 2
    49    50    68    87     1    180.000000000000     13.675298757543                 2
    50    49    48    70     1    180.000000000000     13.675298757543                 2
    50    51    52    53     1    180.000000000000     13.675298757543                 2
    50    51    52    59     1    180.000000000000     13.675298757543                 2
    50    51    58    57     1    180.000000000000     13.675298757543                 2
    50    51    58    77     1    180.000000000000     13.675298757543                 2
    50    68    69    88     1    180.000000000000     13.675298757543                 2
    51    50    49    71     1    180.000000000000     13.675298757543                 2
    51    50    68    69     1    180.000000000000     13.675298757543                 2
    51    50    68    87     1    180.000000000000     13.675298757543                 2
    51    52    53    54     1    180.000000000000     13.675298757543                 2
    51    52    53    72     1    180.000000000000     13.675298757543                 2
    51    52    59    60     1    180.000000000000      5.177721731788                 2
    51    52    59    64     1    180.000000000000      5.177721731788                 2
    51    58    57    54     1    180.000000000000     13.675298757543                 2
    51    58    57    76     1    180.000000000000     13.675298757543                 2
    52    51    50    68     1      0.000000000000     -0.304473866043                 1
    52    51    50    68     1    180.000000000000      5.638519738776                 2
    52    51    50    68     1      0.000000000000     -0.337875939218                 3
    52    51    50    68     1    180.000000000000     -0.310471177225                 4
    52    51    58    57     1    180.000000000000     13.675298757543                 2
    52    51    58    77     1    180.000000000000     13.675298757543                 2
    52    53    54    55     1    180.000000000000     13.675298757543                 2
    52    53    54    57     1    180.000000000000     13.675298757543                 2
    52    59    60    61     1    180.000000000000     13.675298757543                 2
    52    59    60    78     1    180.000000000000     13.675298757543                 2
    52    59    64    63     1    180.000000000000     13.675298757543                 2
    52    59    64    81     1    180.000000000000     13.675298757543                 2
    53    52    51    58     1    180.000000000000     13.675298757543                 2
    53    52    59    60     1    180.000000000000      5.177721731788                 2
    53    52    59    64     1    180.000000000000      5.177721731788                 2
    53    54    55    56     1      0.000000000000      0.236597390744                 1
    53    54    55    56     1    180.000000000000      9.740711322807                 2
    53    54    55    56     1      0.000000000000      1.171142620756                 3
    53    54    55    56     1    180.000000000000      0.673361548209                 4
    53    54    57    58     1    180.000000000000     13.675298757543                 2
    53    54    57    76     1    180.000000000000     13.675298757543                 2
    54    53    52    59     1    180.000000000000     13.675298757543                 2
    54    55    56    73     1      0.000000000000      1.100857953953                 3
    54    55    56    74     1      0.000000000000      1.100857953953                 3
    54    55    56    75     1      0.000000000000      1.100857953953                 3
    54    57    58    77     1    180.000000000000     13.675298757543                 2
    55    54    53    72     1    180.000000000000     13.675298757543                 2
    55    54    57    58     1    180.000000000000     13.675298757543                 2
    55    54    57    76     1    180.000000000000     13.675298757543                 2
    56    55    54    57     1      0.000000000000      0.236597390744                 1
    56    55    54    57     1    180.000000000000      9.740711322807                 2
    56    55    54    57     1      0.000000000000      1.171142620756                 3
    56    55    54    57     1    180.000000000000      0.673361548209                 4
    57    54    53    72     1    180.000000000000     13.675298757543                 2
    58    51    50    68     1      0.000000000000      0.327701557688                 1
    58    51    50    68     1    180.000000000000      6.214477812011                 2
    58    51    50    68     1      0.000000000000      0.347537140987                 3
    58    51    50    68     1    180.000000000000      2.062325814514                 4
    58    51    52    59     1    180.000000000000     13.675298757543                 2
    59    52    53    72     1    180.000000000000     13.675298757543                 2
    59    60    61    62     1    180.000000000000     13.675298757543                 2
    59    60    61    79     1    180.000000000000     13.675298757543                 2
    59    64    63    62     1    180.000000000000     13.675298757543                 2
    59    64    63    65     1    180.000000000000     13.675298757543                 2
    60    59    64    63     1    180.000000000000     13.675298757543                 2
    60    59    64    81     1    180.000000000000     13.675298757543                 2
    60    61    62    63     1    180.000000000000     13.675298757543                 2
    60    61    62    80     1    180.000000000000     13.675298757543                 2
    61    60    59    64     1    180.000000000000     13.675298757543                 2
    61    62    63    64     1    180.000000000000     13.675298757543                 2
    61    62    63    65     1    180.000000000000     13.675298757543                 2
    62    61    60    78     1    180.000000000000     13.675298757543                 2
    62    63    64    81     1    180.000000000000     13.675298757543                 2
    62    63    65    66     1      0.000000000000      0.214435416894                 1
    62    63    65    66     1    180.000000000000      1.285855803333                 2
    62    63    65    66     1      0.000000000000      0.120462784425                 3
    62    63    65    66     1    180.000000000000      0.048633610628                 4
    62    63    65    67     1      0.000000000000     -0.097019738909                 1
    62    63    65    67     1    180.000000000000     -0.250823325382                 2
    62    63    65    67     1      0.000000000000      0.131726537237                 3
    62    63    65    67     1    180.000000000000      0.022062147303                 4
    62    63    65    82     1      0.000000000000     -0.124175546955                 1
    62    63    65    82     1    180.000000000000     -0.979980918869                 2
    62    63    65    82     1      0.000000000000      0.132014102331                 3
    62    63    65    82     1    180.000000000000      0.184093839400                 4
    63    62    61    79     1    180.000000000000     13.675298757543                 2
    63    65    66    83     1      0.000000000000      3.762653108787                 1
    63    65    66    83     1    180.000000000000      2.746042277126                 2
    63    65    66    83     1      0.000000000000      1.147197619654                 3
    63    65    66    83     1    180.000000000000      0.725906633006                 4
    63    65    66    89     1      0.000000000000     -5.282967454290                 1
    63    65    66    89     1    180.000000000000      1.932264434142                 2
    63    65    66    89     1      0.000000000000     -0.702538909088                 3
    63    65    66    89     1    180.000000000000     -0.708884593460                 4
    63    65    67    84     1      0.000000000000      0.602098025234                 3
    63    65    67    85     1      0.000000000000      0.602098025234                 3
    63    65    67    86     1      0.000000000000      0.602098025234                 3
    64    59    60    78     1    180.000000000000     13.675298757543                 2
    64    63    62    80     1    180.000000000000     13.675298757543                 2
    64    63    65    66     1      0.000000000000      0.214435416894                 1
    64    63    65    66     1    180.000000000000      1.285855803333                 2
    64    63    65    66     1      0.000000000000      0.120462784425                 3
    64    63    65    66     1    180.000000000000      0.048633610628                 4
    64    63    65    67     1      0.000000000000     -0.097019738909                 1
    64    63    65    67     1    180.000000000000     -0.250823325382                 2
    64    63    65    67     1      0.000000000000      0.131726537237                 3
    64    63    65    67     1    180.000000000000      0.022062147303                 4
    64    63    65    82     1      0.000000000000     -0.124175546955                 1
    64    63    65    82     1    180.000000000000     -0.979980918869                 2
    64    63    65    82     1      0.000000000000      0.132014102331                 3
    64    63    65    82     1    180.000000000000      0.184093839400                 4
    65    63    62    80     1    180.000000000000     13.675298757543                 2
    65    63    64    81     1    180.000000000000     13.675298757543                 2
    65    66    89    90     1      0.000000000000     -2.082890772434                 1
    65    66    89    90     1    180.000000000000      9.356909567592                 2
    65    66    89    90     1      0.000000000000      0.839653717923                 3
    65    66    89    90     1    180.000000000000     -0.956526547205                 4
    65    66    89    91     1      0.000000000000      1.010431686578                 1
    65    66    89    91     1    180.000000000000      8.697701907094                 2
    65    66    89    91     1      0.000000000000      1.692690657305                 3
    65    66    89    91     1    180.000000000000      2.175601803098                 4
    66    65    67    84     1      0.000000000000      0.602098025234                 3
    66    65    67    85     1      0.000000000000      0.602098025234                 3
    66    65    67    86     1      0.000000000000      0.602098025234                 3
    66    89    91    92     1      0.000000000000     -0.051441979596                 1
    66    89    91    92     1    180.000000000000      4.260811327580                 2
    66    89    91    92     1      0.000000000000     -0.173948076049                 3
    66    89    91    92     1    180.000000000000      0.121518206243                 4
    66    89    91   113     1      0.000000000000     -0.051441979596                 1
    66    89    91   113     1    180.000000000000      4.260811327580                 2
    66    89    91   113     1      0.000000000000     -0.173948076049                 3
    66    89    91   113     1    180.000000000000      0.121518206243                 4
    67    65    66    83     1      0.000000000000     -1.860356063496                 1
    67    65    66    83     1    180.000000000000      0.762414140658                 2
    67    65    66    83     1      0.000000000000      0.705501691789                 3
    67    65    66    83     1    180.000000000000     -0.479941943029                 4
    67    65    66    89     1      0.000000000000     -0.160479705077                 1
    67    65    66    89     1    180.000000000000      0.408810172172                 2
    67    65    66    89     1      0.000000000000     -1.228437654664                 3
    67    65    66    89     1    180.000000000000      0.180262340815                 4
    68    50    49    71     1    180.000000000000     13.675298757543                 2
    69    47    48    70     1    180.000000000000     13.675298757543                 2
    70    48    49    71     1    180.000000000000     13.675298757543                 2
    76    57    58    77     1    180.000000000000     13.675298757543                 2
    78    60    61    79     1    180.000000000000     13.675298757543                 2
    79    61    62    80     1    180.000000000000     13.675298757543                 2
    82    65    66    83     1      0.000000000000     -2.096404551037                 1
    82    65    66    83     1    180.000000000000      0.803720187448                 2
    82    65    66    83     1      0.000000000000      0.991610902064                 3
    82    65    66    83     1    180.000000000000     -0.031013272831                 4
    82    65    66    89     1      0.000000000000      2.595971637386                 1
    82    65    66    89     1    180.000000000000      0.356978847596                 2
    82    65    66    89     1      0.000000000000      0.501404997592                 3
    82    65    66    89     1    180.000000000000      0.275944328045                 4
    82    65    67    84     1      0.000000000000      0.953929629431                 3
    82    65    67    85     1      0.000000000000      0.953929629431                 3
    82    65    67    86     1      0.000000000000      0.953929629431                 3
    83    66    89    90     1      0.000000000000      4.124920165638                 1
    83    66    89    90     1    180.000000000000      5.016401768351                 2
    83    66    89    90     1      0.000000000000     -0.503093285174                 3
    83    66    89    90     1    180.000000000000     -0.926538649938                 4
    83    66    89    91     1      0.000000000000      2.282619851962                 1
    83    66    89    91     1    180.000000000000      9.208033849624                 2
    83    66    89    91     1      0.000000000000     -0.072213145150                 3
    83    66    89    91     1    180.000000000000      1.138370716282                 4
    87    68    69    88     1    180.000000000000     13.675298757543                 2
    89    91    92    93     1    180.000000000000     13.675298757543                 2
    89    91    92   114     1    180.000000000000     13.675298757543                 2
    89    91   113   112     1    180.000000000000     13.675298757543                 2
    89    91   113   132     1    180.000000000000     13.675298757543                 2
    90    89    91    92     1      0.000000000000      0.040224616410                 1
    90    89    91    92     1    180.000000000000     -0.271329461231                 2
    90    89    91    92     1      0.000000000000      0.163069623559                 3
    90    89    91    92     1    180.000000000000      0.331414866539                 4
    90    89    91   113     1      0.000000000000      0.040224616410                 1
    90    89    91   113     1    180.000000000000     -0.271329461231                 2
    90    89    91   113     1      0.000000000000      0.163069623559                 3
    90    89    91   113     1    180.000000000000      0.331414866539                 4
    91    92    93    94     1    180.000000000000     13.675298757543                 2
    91    92    93   115     1    180.000000000000     13.675298757543                 2
    91   113   112    94     1    180.000000000000     13.675298757543                 2
    91   113   112   131     1    180.000000000000     13.675298757543                 2
    92    91   113   112     1    180.000000000000     13.675298757543                 2
    92    91   113   132     1    180.000000000000     13.675298757543                 2
    92    93    94    95     1    180.000000000000     13.675298757543                 2
    92    93    94   112     1    180.000000000000     13.675298757543                 2
    93    92    91   113     1    180.000000000000     13.675298757543                 2
    93    94    95    96     1      0.000000000000     -0.304473866043                 1
    93    94    95    96     1    180.000000000000      5.638519738776                 2
    93    94    95    96     1      0.000000000000     -0.337875939218                 3
    93    94    95    96     1    180.000000000000     -0.310471177225                 4
    93    94    95   102     1      0.000000000000      0.327701557688                 1
    93    94    95   102     1    180.000000000000      6.214477812011                 2
    93    94    95   102     1      0.000000000000      0.347537140987                 3
    93    94    95   102     1    180.000000000000      2.062325814514                 4
    93    94   112   113     1    180.000000000000     13.675298757543                 2
    93    94   112   131     1    180.000000000000     13.675298757543                 2
    94    93    92   114     1    180.000000000000     13.675298757543                 2
    94    95    96    97     1    180.000000000000     13.675298757543                 2
    94    95    96   103     1    180.000000000000     13.675298757543                 2
    94    95   102   101     1    180.000000000000     13.675298757543                 2
    94    95   102   121     1    180.000000000000     13.675298757543                 2
    94   112   113   132     1    180.000000000000     13.675298757543                 2
    95    94    93   115     1    180.000000000000     13.675298757543                 2
    95    94   112   113     1    180.000000000000     13.675298757543                 2
    95    94   112   131     1    180.000000000000     13.675298757543                 2
    95    96    97    98     1    180.000000000000     13.675298757543                 2
    95    96    97   116     1    180.000000000000     13.675298757543                 2
    95    96   103   104     1    180.000000000000      5.177721731788                 2
    95    96   103   108     1    180.000000000000      5.177721731788                 2
    95   102   101    98     1    180.000000000000     13.675298757543                 2
    95   102   101   120     1    180.000000000000     13.675298757543                 2
    96    95    94   112     1      0.000000000000     -0.304473866043                 1
    96    95    94   112     1    180.000000000000      5.638519738776                 2
    96    95    94   112     1      0.000000000000     -0.337875939218                 3
    96    95    94   112     1    180.000000000000     -0.310471177225                 4
    96    95   102   101     1    180.000000000000     13.675298757543                 2
    96    95   102   121     1    180.000000000000     13.675298757543                 2
    96    97    98    99     1    180.000000000000     13.675298757543                 2
    96    97    98   101     1    180.000000000000     13.675298757543                 2
    96   103   104   105     1    180.000000000000     13.675298757543                 2
    96   103   104   122     1    180.000000000000     13.675298757543                 2
    96   103   108   107     1    180.000000000000     13.675298757543                 2
    96   103   108   125     1    180.000000000000     13.675298757543                 2
    97    96    95   102     1    180.000000000000     13.675298757543                 2
    97    96   103   104     1    180.000000000000      5.177721731788                 2
    97    96   103   108     1    180.000000000000      5.177721731788                 2
    97    98    99   100     1      0.000000000000      0.236597390744                 1
    97    98    99   100     1    180.000000000000      9.740711322807                 2
    97    98    99   100     1      0.000000000000      1.171142620756                 3
    97    98    99   100     1    180.000000000000      0.673361548209                 4
    97    98   101   102     1    180.000000000000     13.675298757543                 2
    97    98   101   120     1    180.000000000000     13.675298757543                 2
    98    97    96   103     1    180.000000000000     13.675298757543                 2
    98    99   100   117     1      0.000000000000      1.100857953953                 3
    98    99   100   118     1      0.000000000000      1.100857953953                 3
    98    99   100   119     1      0.000000000000      1.100857953953                 3
    98   101   102   121     1    180.000000000000     13.675298757543                 2
    99    98    97   116     1    180.000000000000     13.675298757543                 2
    99    98   101   102     1    180.000000000000     13.675298757543                 2
    99    98   101   120     1    180.000000000000     13.675298757543                 2
   100    99    98   101     1      0.000000000000      0.236597390744                 1
   100    99    98   101     1    180.000000000000      9.740711322807                 2
   100    99    98   101     1      0.000000000000      1.171142620756                 3
   100    99    98   101     1    180.000000000000      0.673361548209                 4
   101    98    97   116     1    180.000000000000     13.675298757543                 2
   102    95    94   112     1      0.000000000000      0.327701557688                 1
   102    95    94   112     1    180.000000000000      6.214477812011                 2
   102    95    94   112     1      0.000000000000      0.347537140987                 3
   102    95    94   112     1    180.000000000000      2.062325814514                 4
   102    95    96   103     1    180.000000000000     13.675298757543                 2
   103    96    97   116     1    180.000000000000     13.675298757543                 2
   103   104   105   106     1    180.000000000000     13.675298757543                 2
   103   104   105   123     1    180.000000000000     13.675298757543                 2
   103   108   107   106     1    180.000000000000     13.675298757543                 2
   103   108   107   109     1    180.000000000000     13.675298757543                 2
   104   103   108   107     1    180.000000000000     13.675298757543                 2
   104   103   108   125     1    180.000000000000     13.675298757543                 2
   104   105   106   107     1    180.000000000000     13.675298757543                 2
   104   105   106   124     1    180.000000000000     13.675298757543                 2
   105   104   103   108     1    180.000000000000     13.675298757543                 2
   105   106   107   108     1    180.000000000000     13.675298757543                 2
   105   106   107   109     1    180.000000000000     13.675298757543                 2
   106   105   104   122     1    180.000000000000     13.675298757543                 2
   106   107   108   125     1    180.000000000000     13.675298757543                 2
   106   107   109   110     1      0.000000000000      0.214435416894                 1
   106   107   109   110     1    180.000000000000      1.285855803333                 2
   106   107   109   110     1      0.000000000000      0.120462784425                 3
   106   107   109   110     1    180.000000000000      0.048633610628                 4
   106   107   109   111     1      0.000000000000     -0.097019738909                 1
   106   107   109   111     1    180.000000000000     -0.250823325382                 2
   106   107   109   111     1      0.000000000000      0.131726537237                 3
   106   107   109   111     1    180.000000000000      0.022062147303                 4
   106   107   109   126     1      0.000000000000     -0.124175546955                 1
   106   107   109   126     1    180.000000000000     -0.979980918869                 2
   106   107   109   126     1      0.000000000000      0.132014102331                 3
   106   107   109   126     1    180.000000000000      0.184093839400                 4
   107   106   105   123     1    180.000000000000     13.675298757543                 2
   107   109   110   127     1      0.000000000000      3.762653108787                 1
   107   109   110   127     1    180.000000000000      2.746042277126                 2
   107   109   110   127     1      0.000000000000      1.147197619654                 3
   107   109   110   127     1    180.000000000000      0.725906633006                 4
   107   109   110   133     1      0.000000000000     -5.282967454290                 1
   107   109   110   133     1    180.000000000000      1.932264434142                 2
   107   109   110   133     1      0.000000000000     -0.702538909088                 3
   107   109   110   133     1    180.000000000000     -0.708884593460                 4
   107   109   111   128     1      0.000000000000      0.602098025234                 3
   107   109   111   129     1      0.000000000000      0.602098025234                 3
   107   109   111   130     1      0.000000000000      0.602098025234                 3
   108   103   104   122     1    180.000000000000     13.675298757543                 2
   108   107   106   124     1    180.000000000000     13.675298757543                 2
   108   107   109   110     1      0.000000000000      0.214435416894                 1
   108   107   109   110     1    180.000000000000      1.285855803333                 2
   108   107   109   110     1      0.000000000000      0.120462784425                 3
   108   107   109   110     1    180.000000000000      0.048633610628                 4
   108   107   109   111     1      0.000000000000     -0.097019738909                 1
   108   107   109   111     1    180.000000000000     -0.250823325382                 2
   108   107   109   111     1      0.000000000000      0.131726537237                 3
   108   107   109   111     1    180.000000000000      0.022062147303                 4
   108   107   109   126     1      0.000000000000     -0.124175546955                 1
   108   107   109   126     1    180.000000000000     -0.979980918869                 2
   108   107   109   126     1      0.000000000000      0.132014102331                 3
   108   107   109   126     1    180.000000000000      0.184093839400                 4
   109   107   106   124     1    180.000000000000     13.675298757543                 2
   109   107   108   125     1    180.000000000000     13.675298757543                 2
   109   110   133   134     1      0.000000000000     -2.082890772434                 1
   109   110   133   134     1    180.000000000000      9.356909567592                 2
   109   110   133   134     1      0.000000000000      0.839653717923                 3
   109   110   133   134     1    180.000000000000     -0.956526547205                 4
   109   110   133   135     1      0.000000000000      1.010431686578                 1
   109   110   133   135     1    180.000000000000      8.697701907094                 2
   109   110   133   135     1      0.000000000000      1.692690657305                 3
   109   110   133   135     1    180.000000000000      2.175601803098                 4
   110   109   111   128     1      0.000000000000      0.602098025234                 3
   110   109   111   129     1      0.000000000000      0.602098025234                 3
   110   109   111   130     1      0.000000000000      0.602098025234                 3
   110   133   135   136     1      0.000000000000     -0.051441979596                 1
   110   133   135   136     1    180.000000000000      4.260811327580                 2
   110   133   135   136     1      0.000000000000     -0.173948076049                 3
   110   133   135   136     1    180.000000000000      0.121518206243                 4
   110   133   135   157     1      0.000000000000     -0.051441979596                 1
   110   133   135   157     1    180.000000000000      4.260811327580                 2
   110   133   135   157     1      0.000000000000     -0.173948076049                 3
   110   133   135   157     1    180.000000000000      0.121518206243                 4
   111   109   110   127     1      0.000000000000     -1.860356063496                 1
   111   109   110   127     1    180.000000000000      0.762414140658                 2
   111   109   110   127     1      0.000000000000      0.705501691789                 3
   111   109   110   127     1    180.000000000000     -0.479941943029                 4
   111   109   110   133     1      0.000000000000     -0.160479705077                 1
   111   109   110   133     1    180.000000000000      0.408810172172                 2
   111   109   110   133     1      0.000000000000     -1.228437654664                 3
   111   109   110   133     1    180.000000000000      0.180262340815                 4
   112    94    93   115     1    180.000000000000     13.675298757543                 2
   113    91    92   114     1    180.000000000000     13.675298757543                 2
   114    92    93   115     1    180.000000000000     13.675298757543                 2
   120   101   102   121     1    180.000000000000     13.675298757543                 2
   122   104   105   123     1    180.000000000000     13.675298757543                 2
   123   105   106   124     1    180.000000000000     13.675298757543                 2
   126   109   110   127     1      0.000000000000     -2.096404551037                 1
   126   109   110   127     1    180.000000000000      0.803720187448                 2
   126   109   110   127     1      0.000000000000      0.991610902064                 3
   126   109   110   127     1    180.000000000000     -0.031013272831                 4
   126   109   110   133     1      0.000000000000      2.595971637386                 1
   126   109   110   133     1    180.000000000000      0.356978847596                 2
   126   109   110   133     1      0.000000000000      0.501404997592                 3
   126   109   110   133     1    180.000000000000      0.275944328045                 4
   126   109   111   128     1      0.000000000000      0.953929629431                 3
   126   109   111   129     1      0.000000000000      0.953929629431                 3
   126   109   111   130     1      0.000000000000      0.953929629431                 3
   127   110   133   134     1      0.000000000000      4.124920165638                 1
   127   110   133   134     1    180.000000000000      5.016401768351                 2
   127   110   133   134     1      0.000000000000     -0.503093285174                 3
   127   110   133   134     1    180.000000000000     -0.926538649938                 4
   127   110   133   135     1      0.000000000000      2.282619851962                 1
   127   110   133   135     1    180.000000000000      9.208033849624                 2
   127   110   133   135     1      0.000000000000     -0.072213145150                 3
   127   110   133   135     1    180.000000000000      1.138370716282                 4
   131   112   113   132     1    180.000000000000     13.675298757543                 2
   133   135   136   137     1    180.000000000000     13.675298757543                 2
   133   135   136   158     1    180.000000000000     13.675298757543                 2
   133   135   157   156     1    180.000000000000     13.675298757543                 2
   133   135   157   176     1    180.000000000000     13.675298757543                 2
   134   133   135   136     1      0.000000000000      0.040224616410                 1
   134   133   135   136     1    180.000000000000     -0.271329461231                 2
   134   133   135   136     1      0.000000000000      0.163069623559                 3
   134   133   135   136     1    180.000000000000      0.331414866539                 4
   134   133   135   157     1      0.000000000000      0.040224616410                 1
   134   133   135   157     1    180.000000000000     -0.271329461231                 2
   134   133   135   157     1      0.000000000000      0.163069623559                 3
   134   133   135   157     1    180.000000000000      0.331414866539                 4
   135   136   137   138     1    180.000000000000     13.675298757543                 2
   135   136   137   159     1    180.000000000000     13.675298757543                 2
   135   157   156   138     1    180.000000000000     13.675298757543                 2
   135   157   156   175     1    180.000000000000     13.675298757543                 2
   136   135   157   156     1    180.000000000000     13.675298757543                 2
   136   135   157   176     1    180.000000000000     13.675298757543                 2
   136   137   138   139     1    180.000000000000     13.675298757543                 2
   136   137   138   156     1    180.000000000000     13.675298757543                 2
   137   136   135   157     1    180.000000000000     13.675298757543                 2
   137   138   139   140     1      0.000000000000     -0.304473866043                 1
   137   138   139   140     1    180.000000000000      5.638519738776                 2
   137   138   139   140     1      0.000000000000     -0.337875939218                 3
   137   138   139   140     1    180.000000000000     -0.310471177225                 4
   137   138   139   146     1      0.000000000000      0.327701557688                 1
   137   138   139   146     1    180.000000000000      6.214477812011                 2
   137   138   139   146     1      0.000000000000      0.347537140987                 3
   137   138   139   146     1    180.000000000000      2.062325814514                 4
   137   138   156   157     1    180.000000000000     13.675298757543                 2
   137   138   156   175     1    180.000000000000     13.675298757543                 2
   138   137   136   158     1    180.000000000000     13.675298757543                 2
   138   139   140   141     1    180.000000000000     13.675298757543                 2
   138   139   140   147     1    180.000000000000     13.675298757543                 2
   138   139   146   145     1    180.000000000000     13.675298757543                 2
   138   139   146   165     1    180.000000000000     13.675298757543                 2
   138   156   157   176     1    180.000000000000     13.675298757543                 2
   139   138   137   159     1    180.000000000000     13.675298757543                 2
   139   138   156   157     1    180.000000000000     13.675298757543                 2
   139   138   156   175     1    180.000000000000     13.675298757543                 2
   139   140   141   142     1    180.000000000000     13.675298757543                 2
   139   140   141   160     1    180.000000000000     13.675298757543                 2
   139   140   147   148     1    180.000000000000      5.177721731788                 2
   139   140   147   152     1    180.000000000000      5.177721731788                 2
   139   146   145   142     1    180.000000000000     13.675298757543                 2
   139   146   145   164     1    180.000000000000     13.675298757543                 2
   140   139   138   156     1      0.000000000000     -0.304473866043                 1
   140   139   138   156     1    180.000000000000      5.638519738776                 2
   140   139   138   156     1      0.000000000000     -0.337875939218                 3
   140   139   138   156     1    180.000000000000     -0.310471177225                 4
   140   139   146   145     1    180.000000000000     13.675298757543                 2
   140   139   146   165     1    180.000000000000     13.675298757543                 2
   140   141   142   143     1    180.000000000000     13.675298757543                 2
   140   141   142   145     1    180.000000000000     13.675298757543                 2
   140   147   148   149     1    180.000000000000     13.675298757543                 2
   140   147   148   166     1    180.000000000000     13.675298757543                 2
   140   147   152   151     1    180.000000000000     13.675298757543                 2
   140   147   152   169     1    180.000000000000     13.675298757543                 2
   141   140   139   146     1    180.000000000000     13.675298757543                 2
   141   140   147   148     1    180.000000000000      5.177721731788                 2
   141   140   147   152     1    180.000000000000      5.177721731788                 2
   141   142   143   144     1      0.000000000000      0.236597390744                 1
   141   142   143   144     1    180.000000000000      9.740711322807                 2
   141   142   143   144     1      0.000000000000      1.171142620756                 3
   141   142   143   144     1    180.000000000000      0.673361548209                 4
   141   142   145   146     1    180.000000000000     13.675298757543                 2
   141   142   145   164     1    180.000000000000     13.675298757543                 2
   142   141   140   147     1    180.000000000000     13.675298757543                 2
   142   143   144   161     1      0.000000000000      1.100857953953                 3
   142   143   144   162     1      0.000000000000      1.100857953953                 3
   142   143   144   163     1      0.000000000000      1.100857953953                 3
   142   145   146   165     1    180.000000000000     13.675298757543                 2
   143   142   141   160     1    180.000000000000     13.675298757543                 2
   143   142   145   146     1    180.000000000000     13.675298757543                 2
   143   142   145   164     1    180.000000000000     13.675298757543                 2
   144   143   142   145     1      0.000000000000      0.236597390744                 1
   144   143   142   145     1    180.000000000000      9.740711322807                 2
   144   143   142   145     1      0.000000000000      1.171142620756                 3
   144   143   142   145     1    180.000000000000      0.673361548209                 4
   145   142   141   160     1    180.000000000000     13.675298757543                 2
   146   139   138   156     1      0.000000000000      0.327701557688                 1
   146   139   138   156     1    180.000000000000      6.214477812011                 2
   146   139   138   156     1      0.000000000000      0.347537140987                 3
   146   139   138   156     1    180.000000000000      2.062325814514                 4
   146   139   140   147     1    180.000000000000     13.675298757543                 2
   147   140   141   160     1    180.000000000000     13.675298757543                 2
   147   148   149   150     1    180.000000000000     13.675298757543                 2
   147   148   149   167     1    180.000000000000     13.675298757543                 2
   147   152   151   150     1    180.000000000000     13.675298757543                 2
   147   152   151   153     1    180.000000000000     13.675298757543                 2
   148   147   152   151     1    180.000000000000     13.675298757543                 2
   148   147   152   169     1    180.000000000000     13.675298757543                 2
   148   149   150   151     1    180.000000000000     13.675298757543                 2
   148   149   150   168     1    180.000000000000     13.675298757543                 2
   149   148   147   152     1    180.000000000000     13.675298757543                 2
   149   150   151   152     1    180.000000000000     13.675298757543                 2
   149   150   151   153     1    180.000000000000     13.675298757543                 2
   150   149   148   166     1    180.000000000000     13.675298757543                 2
   150   151   152   169     1    180.000000000000     13.675298757543                 2
   150   151   153   154     1      0.000000000000      0.214435416894                 1
   150   151   153   154     1    180.000000000000      1.285855803333                 2
   150   151   153   154     1      0.000000000000      0.120462784425                 3
   150   151   153   154     1    180.000000000000      0.048633610628                 4
   150   151   153   155     1      0.000000000000     -0.097019738909                 1
   150   151   153   155     1    180.000000000000     -0.250823325382                 2
   150   151   153   155     1      0.000000000000      0.131726537237                 3
   150   151   153   155     1    180.000000000000      0.022062147303                 4
   150   151   153   170     1      0.000000000000     -0.124175546955                 1
   150   151   153   170     1    180.000000000000     -0.979980918869                 2
   150   151   153   170     1      0.000000000000      0.132014102331                 3
   150   151   153   170     1    180.000000000000      0.184093839400                 4
   151   150   149   167     1    180.000000000000     13.675298757543                 2
   151   153   154   171     1      0.000000000000      3.762653108787                 1
   151   153   154   171     1    180.000000000000      2.746042277126                 2
   151   153   154   171     1      0.000000000000      1.147197619654                 3
   151   153   154   171     1    180.000000000000      0.725906633006                 4
   151   153   154   177     1      0.000000000000     -5.282967454290                 1
   151   153   154   177     1    180.000000000000      1.932264434142                 2
   151   153   154   177     1      0.000000000000     -0.702538909088                 3
   151   153   154   177     1    180.000000000000     -0.708884593460                 4
   151   153   155   172     1      0.000000000000      0.602098025234                 3
   151   153   155   173     1      0.000000000000      0.602098025234                 3
   151   153   155   174     1      0.000000000000      0.602098025234                 3
   152   147   148   166     1    180.000000000000     13.675298757543                 2
   152   151   150   168     1    180.000000000000     13.675298757543                 2
   152   151   153   154     1      0.000000000000      0.214435416894                 1
   152   151   153   154     1    180.000000000000      1.285855803333                 2
   152   151   153   154     1      0.000000000000      0.120462784425                 3
   152   151   153   154     1    180.000000000000      0.048633610628                 4
   152   151   153   155     1      0.000000000000     -0.097019738909                 1
   152   151   153   155     1    180.000000000000     -0.250823325382                 2
   152   151   153   155     1      0.000000000000      0.131726537237                 3
   152   151   153   155     1    180.000000000000      0.022062147303                 4
   152   151   153   170     1      0.000000000000     -0.124175546955                 1
   152   151   153   170     1    180.000000000000     -0.979980918869                 2
   152   151   153   170     1      0.000000000000      0.132014102331                 3
   152   151   153   170     1    180.000000000000      0.184093839400                 4
   153   151   150   168     1    180.000000000000     13.675298757543                 2
   153   151   152   169     1    180.000000000000     13.675298757543                 2
   153   154   177   178     1      0.000000000000     -2.082890772434                 1
   153   154   177   178     1    180.000000000000      9.356909567592                 2
   153   154   177   178     1      0.000000000000      0.839653717923                 3
   153   154   177   178     1    180.000000000000     -0.956526547205                 4
   153   154   177   179     1      0.000000000000      1.010431686578                 1
   153   154   177   179     1    180.000000000000      8.697701907094                 2
   153   154   177   179     1      0.000000000000      1.692690657305                 3
   153   154   177   179     1    180.000000000000      2.175601803098                 4
   154   153   155   172     1      0.000000000000      0.602098025234                 3
   154   153   155   173     1      0.000000000000      0.602098025234                 3
   154   153   155   174     1      0.000000000000      0.602098025234                 3
   154   177   179   180     1      0.000000000000     -0.051441979596                 1
   154   177   179   180     1    180.000000000000      4.260811327580                 2
   154   177   179   180     1      0.000000000000     -0.173948076049                 3
   154   177   179   180     1    180.000000000000      0.121518206243                 4
   154   177   179   201     1      0.000000000000     -0.051441979596                 1
   154   177   179   201     1    180.000000000000      4.260811327580                 2
   154   177   179   201     1      0.000000000000     -0.173948076049                 3
   154   177   179   201     1    180.000000000000      0.121518206243                 4
   155   153   154   171     1      0.000000000000     -1.860356063496                 1
   155   153   154   171     1    180.000000000000      0.762414140658                 2
   155   153   154   171     1      0.000000000000      0.705501691789                 3
   155   153   154   171     1    180.000000000000     -0.479941943029                 4
   155   153   154   177     1      0.000000000000     -0.160479705077                 1
   155   153   154   177     1    180.000000000000      0.408810172172                 2
   155   153   154   177     1      0.000000000000     -1.228437654664                 3
   155   153   154   177     1    180.000000000000      0.180262340815                 4
   156   138   137   159     1    180.000000000000     13.675298757543                 2
   157   135   136   158     1    180.000000000000     13.675298757543                 2
   158   136   137   159     1    180.000000000000     13.675298757543                 2
   164   145   146   165     1    180.000000000000     13.675298757543                 2
   166   148   149   167     1    180.000000000000     13.675298757543                 2
   167   149   150   168     1    180.000000000000     13.675298757543                 2
   170   153   154   171     1      0.000000000000     -2.096404551037                 1
   170   153   154   171     1    180.000000000000      0.803720187448                 2
   170   153   154   171     1      0.000000000000      0.991610902064                 3
   170   153   154   171     1    180.000000000000     -0.031013272831                 4
   170   153   154   177     1      0.000000000000      2.595971637386                 1
   170   153   154   177     1    180.000000000000      0.356978847596                 2
   170   153   154   177     1      0.000000000000      0.501404997592                 3
   170   153   154   177     1    180.000000000000      0.275944328045                 4
   170   153   155   172     1      0.000000000000      0.953929629431                 3
   170   153   155   173     1      0.000000000000      0.953929629431                 3
   170   153   155   174     1      0.000000000000      0.953929629431                 3
   171   154   177   178     1      0.000000000000      4.124920165638                 1
   171   154   177   178     1    180.000000000000      5.016401768351                 2
   171   154   177   178     1      0.000000000000     -0.503093285174                 3
   171   154   177   178     1    180.000000000000     -0.926538649938                 4
   171   154   177   179     1      0.000000000000      2.282619851962                 1
   171   154   177   179     1    180.000000000000      9.208033849624                 2
   171   154   177   179     1      0.000000000000     -0.072213145150                 3
   171   154   177   179     1    180.000000000000      1.138370716282                 4
   175   156   157   176     1    180.000000000000     13.675298757543                 2
   177   179   180   181     1    180.000000000000     13.675298757543                 2
   177   179   180   202     1    180.000000000000     13.675298757543                 2
   177   179   201   200     1    180.000000000000     13.675298757543                 2
   177   179   201   220     1    180.000000000000     13.675298757543                 2
   178   177   179   180     1      0.000000000000      0.040224616410                 1
   178   177   179   180     1    180.000000000000     -0.271329461231                 2
   178   177   179   180     1      0.000000000000      0.163069623559                 3
   178   177   179   180     1    180.000000000000      0.331414866539                 4
   178   177   179   201     1      0.000000000000      0.040224616410                 1
   178   177   179   201     1    180.000000000000     -0.271329461231                 2
   178   177   179   201     1      0.000000000000      0.163069623559                 3
   178   177   179   201     1    180.000000000000      0.331414866539                 4
   179   180   181   182     1    180.000000000000     13.675298757543                 2
   179   180   181   203     1    180.000000000000     13.675298757543                 2
   179   201   200   182     1    180.000000000000     13.675298757543                 2
   179   201   200   219     1    180.000000000000     13.675298757543                 2
   180   179   201   200     1    180.000000000000     13.675298757543                 2
   180   179   201   220     1    180.000000000000     13.675298757543                 2
   180   181   182   183     1    180.000000000000     13.675298757543                 2
   180   181   182   200     1    180.000000000000     13.675298757543                 2
   181   180   179   201     1    180.000000000000     13.675298757543                 2
   181   182   183   184     1      0.000000000000     -0.304473866043                 1
   181   182   183   184     1    180.000000000000      5.638519738776                 2
   181   182   183   184     1      0.000000000000     -0.337875939218                 3
   181   182   183   184     1    180.000000000000     -0.310471177225                 4
   181   182   183   190     1      0.000000000000      0.327701557688                 1
   181   182   183   190     1    180.000000000000      6.214477812011                 2
   181   182   183   190     1      0.000000000000      0.347537140987                 3
   181   182   183   190     1    180.000000000000      2.062325814514                 4
   181   182   200   201     1    180.000000000000     13.675298757543                 2
   181   182   200   219     1    180.000000000000     13.675298757543                 2
   182   181   180   202     1    180.000000000000     13.675298757543                 2
   182   183   184   185     1    180.000000000000     13.675298757543                 2
   182   183   184   191     1    180.000000000000     13.675298757543                 2
   182   183   190   189     1    180.000000000000     13.675298757543                 2
   182   183   190   209     1    180.000000000000     13.675298757543                 2
   182   200   201   220     1    180.000000000000     13.675298757543                 2
   183   182   181   203     1    180.000000000000     13.675298757543                 2
   183   182   200   201     1    180.000000000000     13.675298757543                 2
   183   182   200   219     1    180.000000000000     13.675298757543                 2
   183   184   185   186     1    180.000000000000     13.675298757543                 2
   183   184   185   204     1    180.000000000000     13.675298757543                 2
   183   184   191   192     1    180.000000000000      5.177721731788                 2
   183   184   191   196     1    180.000000000000      5.177721731788                 2
   183   190   189   186     1    180.000000000000     13.675298757543                 2
   183   190   189   208     1    180.000000000000     13.675298757543                 2
   184   183   182   200     1      0.000000000000     -0.304473866043                 1
   184   183   182   200     1    180.000000000000      5.638519738776                 2
   184   183   182   200     1      0.000000000000     -0.337875939218                 3
   184   183   182   200     1    180.000000000000     -0.310471177225                 4
   184   183   190   189     1    180.000000000000     13.675298757543                 2
   184   183   190   209     1    180.000000000000     13.675298757543                 2
   184   185   186   187     1    180.000000000000     13.675298757543                 2
   184   185   186   189     1    180.000000000000     13.675298757543                 2
   184   191   192   193     1    180.000000000000     13.675298757543                 2
   184   191   192   210     1    180.000000000000     13.675298757543                 2
   184   191   196   195     1    180.000000000000     13.675298757543                 2
   184   191   196   213     1    180.000000000000     13.675298757543                 2
   185   184   183   190     1    180.000000000000     13.675298757543                 2
   185   184   191   192     1    180.000000000000      5.177721731788                 2
   185   184   191   196     1    180.000000000000      5.177721731788                 2
   185   186   187   188     1      0.000000000000      0.236597390744                 1
   185   186   187   188     1    180.000000000000      9.740711322807                 2
   185   186   187   188     1      0.000000000000      1.171142620756                 3
   185   186   187   188     1    180.000000000000      0.673361548209                 4
   185   186   189   190     1    180.000000000000     13.675298757543                 2
   185   186   189   208     1    180.000000000000     13.675298757543                 2
   186   185   184   191     1    180.000000000000     13.675298757543                 2
   186   187   188   205     1      0.000000000000      1.100857953953                 3
   186   187   188   206     1      0.000000000000      1.100857953953                 3
   186   187   188   207     1      0.000000000000      1.100857953953                 3
   186   189   190   209     1    180.000000000000     13.675298757543                 2
   187   186   185   204     1    180.000000000000     13.675298757543                 2
   187   186   189   190     1    180.000000000000     13.675298757543                 2
   187   186   189   208     1    180.000000000000     13.675298757543                 2
   188   187   186   189     1      0.000000000000      0.236597390744                 1
   188   187   186   189     1    180.000000000000      9.740711322807                 2
   188   187   186   189     1      0.000000000000      1.171142620756                 3
   188   187   186   189     1    180.000000000000      0.673361548209                 4
   189   186   185   204     1    180.000000000000     13.675298757543                 2
   190   183   182   200     1      0.000000000000      0.327701557688                 1
   190   183   182   200     1    180.000000000000      6.214477812011                 2
   190   183   182   200     1      0.000000000000      0.347537140987                 3
   190   183   182   200     1    180.000000000000      2.062325814514                 4
   190   183   184   191     1    180.000000000000     13.675298757543                 2
   191   184   185   204     1    180.000000000000     13.675298757543                 2
   191   192   193   194     1    180.000000000000     13.675298757543                 2
   191   192   193   211     1    180.000000000000     13.675298757543                 2
   191   196   195   194     1    180.000000000000     13.675298757543                 2
   191   196   195   197     1    180.000000000000     13.675298757543                 2
   192   191   196   195     1    180.000000000000     13.675298757543                 2
   192   191   196   213     1    180.000000000000     13.675298757543                 2
   192   193   194   195     1    180.000000000000     13.675298757543                 2
   192   193   194   212     1    180.000000000000     13.675298757543                 2
   193   192   191   196     1    180.000000000000     13.675298757543                 2
   193   194   195   196     1    180.000000000000     13.675298757543                 2
   193   194   195   197     1    180.000000000000     13.675298757543                 2
   194   193   192   210     1    180.000000000000     13.675298757543                 2
   194   195   196   213     1    180.000000000000     13.675298757543                 2
   194   195   197   198     1      0.000000000000      0.214435416894                 1
   194   195   197   198     1    180.000000000000      1.285855803333                 2
   194   195   197   198     1      0.000000000000      0.120462784425                 3
   194   195   197   198     1    180.000000000000      0.048633610628                 4
   194   195   197   199     1      0.000000000000     -0.097019738909                 1
   194   195   197   199     1    180.000000000000     -0.250823325382                 2
   194   195   197   199     1      0.000000000000      0.131726537237                 3
   194   195   197   199     1    180.000000000000      0.022062147303                 4
   194   195   197   214     1      0.000000000000     -0.124175546955                 1
   194   195   197   214     1    180.000000000000     -0.979980918869                 2
   194   195   197   214     1      0.000000000000      0.132014102331                 3
   194   195   197   214     1    180.000000000000      0.184093839400                 4
   195   194   193   211     1    180.000000000000     13.675298757543                 2
   195   197   198   215     1      0.000000000000      3.762653108787                 1
   195   197   198   215     1    180.000000000000      2.746042277126                 2
   195   197   198   215     1      0.000000000000      1.147197619654                 3
   195   197   198   215     1    180.000000000000      0.725906633006                 4
   195   197   198   221     1      0.000000000000     -5.282967454290                 1
   195   197   198   221     1    180.000000000000      1.932264434142                 2
   195   197   198   221     1      0.000000000000     -0.702538909088                 3
   195   197   198   221     1    180.000000000000     -0.708884593460                 4
   195   197   199   216     1      0.000000000000      0.602098025234                 3
   195   197   199   217     1      0.000000000000      0.602098025234                 3
   195   197   199   218     1      0.000000000000      0.602098025234                 3
   196   191   192   210     1    180.000000000000     13.675298757543                 2
   196   195   194   212     1    180.000000000000     13.675298757543                 2
   196   195   197   198     1      0.000000000000      0.214435416894                 1
   196   195   197   198     1    180.000000000000      1.285855803333                 2
   196   195   197   198     1      0.000000000000      0.120462784425                 3
   196   195   197   198     1    180.000000000000      0.048633610628                 4
   196   195   197   199     1      0.000000000000     -0.097019738909                 1
   196   195   197   199     1    180.000000000000     -0.250823325382                 2
   196   195   197   199     1      0.000000000000      0.131726537237                 3
   196   195   197   199     1    180.000000000000      0.022062147303                 4
   196   195   197   214     1      0.000000000000     -0.124175546955                 1
   196   195   197   214     1    180.000000000000     -0.979980918869                 2
   196   195   197   214     1      0.000000000000      0.132014102331                 3
   196   195   197   214     1    180.000000000000      0.184093839400                 4
   197   195   194   212     1    180.000000000000     13.675298757543                 2
   197   195   196   213     1    180.000000000000     13.675298757543                 2
   197   198   221   222     1      0.000000000000     -2.082890772434                 1
   197   198   221   222     1    180.000000000000      9.356909567592                 2
   197   198   221   222     1      0.000000000000      0.839653717923                 3
   197   198   221   222     1    180.000000000000     -0.956526547205                 4
   197   198   221   223     1      0.000000000000      1.010431686578                 1
   197   198   221   223     1    180.000000000000      8.697701907094                 2
   197   198   221   223     1      0.000000000000      1.692690657305                 3
   197   198   221   223     1    180.000000000000      2.175601803098                 4
   198   197   199   216     1      0.000000000000      0.602098025234                 3
   198   197   199   217     1      0.000000000000      0.602098025234                 3
   198   197   199   218     1      0.000000000000      0.602098025234                 3
   198   221   223   224     1      0.000000000000     -0.051441979596                 1
   198   221   223   224     1    180.000000000000      4.260811327580                 2
   198   221   223   224     1      0.000000000000     -0.173948076049                 3
   198   221   223   224     1    180.000000000000      0.121518206243                 4
   198   221   223   245     1      0.000000000000     -0.051441979596                 1
   198   221   223   245     1    180.000000000000      4.260811327580                 2
   198   221   223   245     1      0.000000000000     -0.173948076049                 3
   198   221   223   245     1    180.000000000000      0.121518206243                 4
   199   197   198   215     1      0.000000000000     -1.860356063496                 1
   199   197   198   215     1    180.000000000000      0.762414140658                 2
   199   197   198   215     1      0.000000000000      0.705501691789                 3
   199   197   198   215     1    180.000000000000     -0.479941943029                 4
   199   197   198   221     1      0.000000000000     -0.160479705077                 1
   199   197   198   221     1    180.000000000000      0.408810172172                 2
   199   197   198   221     1      0.000000000000     -1.228437654664                 3
   199   197   198   221     1    180.000000000000      0.180262340815                 4
   200   182   181   203     1    180.000000000000     13.675298757543                 2
   201   179   180   202     1    180.000000000000     13.675298757543                 2
   202   180   181   203     1    180.000000000000     13.675298757543                 2
   208   189   190   209     1    180.000000000000     13.675298757543                 2
   210   192   193   211     1    180.000000000000     13.675298757543                 2
   211   193   194   212     1    180.000000000000     13.675298757543                 2
   214   197   198   215     1      0.000000000000     -2.096404551037                 1
   214   197   198   215     1    180.000000000000      0.803720187448                 2
   214   197   198   215     1      0.000000000000      0.991610902064                 3
   214   197   198   215     1    180.000000000000     -0.031013272831                 4
   214   197   198   221     1      0.000000000000      2.595971637386                 1
   214   197   198   221     1    180.000000000000      0.356978847596                 2
   214   197   198   221     1      0.000000000000      0.501404997592                 3
   214   197   198   221     1    180.000000000000      0.275944328045                 4
   214   197   199   216     1      0.000000000000      0.953929629431                 3
   214   197   199   217     1      0.000000000000      0.953929629431                 3
   214   197   199   218     1      0.000000000000      0.953929629431                 3
   215   198   221   222     1      0.000000000000      4.124920165638                 1
   215   198   221   222     1    180.000000000000      5.016401768351                 2
   215   198   221   222     1      0.000000000000     -0.503093285174                 3
   215   198   221   222     1    180.000000000000     -0.926538649938                 4
   215   198   221   223     1      0.000000000000      2.282619851962                 1
   215   198   221   223     1    180.000000000000      9.208033849624                 2
   215   198   221   223     1      0.000000000000     -0.072213145150                 3
   215   198   221   223     1    180.000000000000      1.138370716282                 4
   219   200   201   220     1    180.000000000000     13.675298757543                 2
   221   223   224   225     1    180.000000000000     13.675298757543                 2
   221   223   224   246     1    180.000000000000     13.675298757543                 2
   221   223   245   244     1    180.000000000000     13.675298757543                 2
   221   223   245   264     1    180.000000000000     13.675298757543                 2
   222   221   223   224     1      0.000000000000      0.040224616410                 1
   222   221   223   224     1    180.000000000000     -0.271329461231                 2
   222   221   223   224     1      0.000000000000      0.163069623559                 3
   222   221   223   224     1    180.000000000000      0.331414866539                 4
   222   221   223   245     1      0.000000000000      0.040224616410                 1
   222   221   223   245     1    180.000000000000     -0.271329461231                 2
   222   221   223   245     1      0.000000000000      0.163069623559                 3
   222   221   223   245     1    180.000000000000      0.331414866539                 4
   223   224   225   226     1    180.000000000000     13.675298757543                 2
   223   224   225   247     1    180.000000000000     13.675298757543                 2
   223   245   244   226     1    180.000000000000     13.675298757543                 2
   223   245   244   263     1    180.000000000000     13.675298757543                 2
   224   223   245   244     1    180.000000000000     13.675298757543                 2
   224   223   245   264     1    180.000000000000     13.675298757543                 2
   224   225   226   227     1    180.000000000000     13.675298757543                 2
   224   225   226   244     1    180.000000000000     13.675298757543                 2
   225   224   223   245     1    180.000000000000     13.675298757543                 2
   225   226   227   228     1      0.000000000000     -0.304473866043                 1
   225   226   227   228     1    180.000000000000      5.638519738776                 2
   225   226   227   228     1      0.000000000000     -0.337875939218                 3
   225   226   227   228     1    180.000000000000     -0.310471177225                 4
   225   226   227   234     1      0.000000000000      0.327701557688                 1
   225   226   227   234     1    180.000000000000      6.214477812011                 2
   225   226   227   234     1      0.000000000000      0.347537140987                 3
   225   226   227   234     1    180.000000000000      2.062325814514                 4
   225   226   244   245     1    180.000000000000     13.675298757543                 2
   225   226   244   263     1    180.000000000000     13.675298757543                 2
   226   225   224   246     1    180.000000000000     13.675298757543                 2
   226   227   228   229     1    180.000000000000     13.675298757543                 2
   226   227   228   235     1    180.000000000000     13.675298757543                 2
   226   227   234   233     1    180.000000000000     13.675298757543                 2
   226   227   234   253     1    180.000000000000     13.675298757543                 2
   226   244   245   264     1    180.000000000000     13.675298757543                 2
   227   226   225   247     1    180.000000000000     13.675298757543                 2
   227   226   244   245     1    180.000000000000     13.675298757543                 2
   227   226   244   263     1    180.000000000000     13.675298757543                 2
   227   228   229   230     1    180.000000000000     13.675298757543                 2
   227   228   229   248     1    180.000000000000     13.675298757543                 2
   227   228   235   236     1    180.000000000000      5.177721731788                 2
   227   228   235   240     1    180.000000000000      5.177721731788                 2
   227   234   233   230     1    180.000000000000     13.675298757543                 2
   227   234   233   252     1    180.000000000000     13.675298757543                 2
   228   227   226   244     1      0.000000000000     -0.304473866043                 1
   228   227   226   244     1    180.000000000000      5.638519738776                 2
   228   227   226   244     1      0.000000000000     -0.337875939218                 3
   228   227   226   244     1    180.000000000000     -0.310471177225                 4
   228   227   234   233     1    180.000000000000     13.675298757543                 2
   228   227   234   253     1    180.000000000000     13.675298757543                 2
   228   229   230   231     1    180.000000000000     13.675298757543                 2
   228   229   230   233     1    180.000000000000     13.675298757543                 2
   228   235   236   237     1    180.000000000000     13.675298757543                 2
   228   235   236   254     1    180.000000000000     13.675298757543                 2
   228   235   240   239     1    180.000000000000     13.675298757543                 2
   228   235   240   257     1    180.000000000000     13.675298757543                 2
   229   228   227   234     1    180.000000000000     13.675298757543                 2
   229   228   235   236     1    180.000000000000      5.177721731788                 2
   229   228   235   240     1    180.000000000000      5.177721731788                 2
   229   230   231   232     1      0.000000000000      0.236597390744                 1
   229   230   231   232     1    180.000000000000      9.740711322807                 2
   229   230   231   232     1      0.000000000000      1.171142620756                 3
   229   230   231   232     1    180.000000000000      0.673361548209                 4
   229   230   233   234     1    180.000000000000     13.675298757543                 2
   229   230   233   252     1    180.000000000000     13.675298757543                 2
   230   229   228   235     1    180.000000000000     13.675298757543                 2
   230   231   232   249     1      0.000000000000      1.100857953953                 3
   230   231   232   250     1      0.000000000000      1.100857953953                 3
   230   231   232   251     1      0.000000000000      1.100857953953                 3
   230   233   234   253     1    180.000000000000     13.675298757543                 2
   231   230   229   248     1    180.000000000000     13.675298757543                 2
   231   230   233   234     1    180.000000000000     13.675298757543                 2
   231   230   233   252     1    180.000000000000     13.675298757543                 2
   232   231   230   233     1      0.000000000000      0.236597390744                 1
   232   231   230   233     1    180.000000000000      9.740711322807                 2
   232   231   230   233     1      0.000000000000      1.171142620756                 3
   232   231   230   233     1    180.000000000000      0.673361548209                 4
   233   230   229   248     1    180.000000000000     13.675298757543                 2
   234   227   226   244     1      0.000000000000      0.327701557688                 1
   234   227   226   244     1    180.000000000000      6.214477812011                 2
   234   227   226   244     1      0.000000000000      0.347537140987                 3
   234   227   226   244     1    180.000000000000      2.062325814514                 4
   234   227   228   235     1    180.000000000000     13.675298757543                 2
   235   228   229   248     1    180.000000000000     13.675298757543                 2
   235   236   237   238     1    180.000000000000     13.675298757543                 2
   235   236   237   255     1    180.000000000000     13.675298757543                 2
   235   240   239   238     1    180.000000000000     13.675298757543                 2
   235   240   239   241     1    180.000000000000     13.675298757543                 2
   236   235   240   239     1    180.000000000000     13.675298757543                 2
   236   235   240   257     1    180.000000000000     13.675298757543                 2
   236   237   238   239     1    180.000000000000     13.675298757543                 2
   236   237   238   256     1    180.000000000000     13.675298757543                 2
   237   236   235   240     1    180.000000000000     13.675298757543                 2
   237   238   239   240     1    180.000000000000     13.675298757543                 2
   237   238   239   241     1    180.000000000000     13.675298757543                 2
   238   237   236   254     1    180.000000000000     13.675298757543                 2
   238   239   240   257     1    180.000000000000     13.675298757543                 2
   238   239   241   242     1      0.000000000000      0.214435416894                 1
   238   239   241   242     1    180.000000000000      1.285855803333                 2
   238   239   241   242     1      0.000000000000      0.120462784425                 3
   238   239   241   242     1    180.000000000000      0.048633610628                 4
   238   239   241   243     1      0.000000000000     -0.097019738909                 1
   238   239   241   243     1    180.000000000000     -0.250823325382                 2
   238   239   241   243     1      0.000000000000      0.131726537237                 3
   238   239   241   243     1    180.000000000000      0.022062147303                 4
   238   239   241   258     1      0.000000000000     -0.124175546955                 1
   238   239   241   258     1    180.000000000000     -0.979980918869                 2
   238   239   241   258     1      0.000000000000      0.132014102331                 3
   238   239   241   258     1    180.000000000000      0.184093839400                 4
   239   238   237   255     1    180.000000000000     13.675298757543                 2
   239   241   242   259     1      0.000000000000      3.762653108787                 1
   239   241   242   259     1    180.000000000000      2.746042277126                 2
   239   241   242   259     1      0.000000000000      1.147197619654                 3
   239   241   242   259     1    180.000000000000      0.725906633006                 4
   239   241   242   265     1      0.000000000000     -5.282967454290                 1
   239   241   242   265     1    180.000000000000      1.932264434142                 2
   239   241   242   265     1      0.000000000000     -0.702538909088                 3
   239   241   242   265     1    180.000000000000     -0.708884593460                 4
   239   241   243   260     1      0.000000000000      0.602098025234                 3
   239   241   243   261     1      0.000000000000      0.602098025234                 3
   239   241   243   262     1      0.000000000000      0.602098025234                 3
   240   235   236   254     1    180.000000000000     13.675298757543                 2
   240   239   238   256     1    180.000000000000     13.675298757543                 2
   240   239   241   242     1      0.000000000000      0.214435416894                 1
   240   239   241   242     1    180.000000000000      1.285855803333                 2
   240   239   241   242     1      0.000000000000      0.120462784425                 3
   240   239   241   242     1    180.000000000000      0.048633610628                 4
   240   239   241   243     1      0.000000000000     -0.097019738909                 1
   240   239   241   243     1    180.000000000000     -0.250823325382                 2
   240   239   241   243     1      0.000000000000      0.131726537237                 3
   240   239   241   243     1    180.000000000000      0.022062147303                 4
   240   239   241   258     1      0.000000000000     -0.124175546955                 1
   240   239   241   258     1    180.000000000000     -0.979980918869                 2
   240   239   241   258     1      0.000000000000      0.132014102331                 3
   240   239   241   258     1    180.000000000000      0.184093839400                 4
   241   239   238   256     1    180.000000000000     13.675298757543                 2
   241   239   240   257     1    180.000000000000     13.675298757543                 2
   241   242   265   266     1      0.000000000000     -2.082890772434                 1
   241   242   265   266     1    180.000000000000      9.356909567592                 2
   241   242   265   266     1      0.000000000000      0.839653717923                 3
   241   242   265   266     1    180.000000000000     -0.956526547205                 4
   241   242   265   267     1      0.000000000000      1.010431686578                 1
   241   242   265   267     1    180.000000000000      8.697701907094                 2
   241   242   265   267     1      0.000000000000      1.692690657305                 3
   241   242   265   267     1    180.000000000000      2.175601803098                 4
   242   241   243   260     1      0.000000000000      0.602098025234                 3
   242   241   243   261     1      0.000000000000      0.602098025234                 3
   242   241   243   262     1      0.000000000000      0.602098025234                 3
   242   265   267   268     1      0.000000000000     -0.051441979596                 1
   242   265   267   268     1    180.000000000000      4.260811327580                 2
   242   265   267   268     1      0.000000000000     -0.173948076049                 3
   242   265   267   268     1    180.000000000000      0.121518206243                 4
   242   265   267   289     1      0.000000000000     -0.051441979596                 1
   242   265   267   289     1    180.000000000000      4.260811327580                 2
   242   265   267   289     1      0.000000000000     -0.173948076049                 3
   242   265   267   289     1    180.000000000000      0.121518206243                 4
   243   241   242   259     1      0.000000000000     -1.860356063496                 1
   243   241   242   259     1    180.000000000000      0.762414140658                 2
   243   241   242   259     1      0.000000000000      0.705501691789                 3
   243   241   242   259     1    180.000000000000     -0.479941943029                 4
   243   241   242   265     1      0.000000000000     -0.160479705077                 1
   243   241   242   265     1    180.000000000000      0.408810172172                 2
   243   241   242   265     1      0.000000000000     -1.228437654664                 3
   243   241   242   265     1    180.000000000000      0.180262340815                 4
   244   226   225   247     1    180.000000000000     13.675298757543                 2
   245   223   224   246     1    180.000000000000     13.675298757543                 2
   246   224   225   247     1    180.000000000000     13.675298757543                 2
   252   233   234   253     1    180.000000000000     13.675298757543                 2
   254   236   237   255     1    180.000000000000     13.675298757543                 2
   255   237   238   256     1    180.000000000000     13.675298757543                 2
   258   241   242   259     1      0.000000000000     -2.096404551037                 1
   258   241   242   259     1    180.000000000000      0.803720187448                 2
   258   241   242   259     1      0.000000000000      0.991610902064                 3
   258   241   242   259     1    180.000000000000     -0.031013272831                 4
   258   241   242   265     1      0.000000000000      2.595971637386                 1
   258   241   242   265     1    180.000000000000      0.356978847596                 2
   258   241   242   265     1      0.000000000000      0.501404997592                 3
   258   241   242   265     1    180.000000000000      0.275944328045                 4
   258   241   243   260     1      0.000000000000      0.953929629431                 3
   258   241   243   261     1      0.000000000000      0.953929629431                 3
   258   241   243   262     1      0.000000000000      0.953929629431                 3
   259   242   265   266     1      0.000000000000      4.124920165638                 1
   259   242   265   266     1    180.000000000000      5.016401768351                 2
   259   242   265   266     1      0.000000000000     -0.503093285174                 3
   259   242   265   266     1    180.000000000000     -0.926538649938                 4
   259   242   265   267     1      0.000000000000      2.282619851962                 1
   259   242   265   267     1    180.000000000000      9.208033849624                 2
   259   242   265   267     1      0.000000000000     -0.072213145150                 3
   259   242   265   267     1    180.000000000000      1.138370716282                 4
   263   244   245   264     1    180.000000000000     13.675298757543                 2
   265   267   268   269     1    180.000000000000     13.675298757543                 2
   265   267   268   290     1    180.000000000000     13.675298757543                 2
   265   267   289   288     1    180.000000000000     13.675298757543                 2
   265   267   289   308     1    180.000000000000     13.675298757543                 2
   266   265   267   268     1      0.000000000000      0.040224616410                 1
   266   265   267   268     1    180.000000000000     -0.271329461231                 2
   266   265   267   268     1      0.000000000000      0.163069623559                 3
   266   265   267   268     1    180.000000000000      0.331414866539                 4
   266   265   267   289     1      0.000000000000      0.040224616410                 1
   266   265   267   289     1    180.000000000000     -0.271329461231                 2
   266   265   267   289     1      0.000000000000      0.163069623559                 3
   266   265   267   289     1    180.000000000000      0.331414866539                 4
   267   268   269   270     1    180.000000000000     13.675298757543                 2
   267   268   269   291     1    180.000000000000     13.675298757543                 2
   267   289   288   270     1    180.000000000000     13.675298757543                 2
   267   289   288   307     1    180.000000000000     13.675298757543                 2
   268   267   289   288     1    180.000000000000     13.675298757543                 2
   268   267   289   308     1    180.000000000000     13.675298757543                 2
   268   269   270   271     1    180.000000000000     13.675298757543                 2
   268   269   270   288     1    180.000000000000     13.675298757543                 2
   269   268   267   289     1    180.000000000000     13.675298757543                 2
   269   270   271   272     1      0.000000000000     -0.304473866043                 1
   269   270   271   272     1    180.000000000000      5.638519738776                 2
   269   270   271   272     1      0.000000000000     -0.337875939218                 3
   269   270   271   272     1    180.000000000000     -0.310471177225                 4
   269   270   271   278     1      0.000000000000      0.327701557688                 1
   269   270   271   278     1    180.000000000000      6.214477812011                 2
   269   270   271   278     1      0.000000000000      0.347537140987                 3
   269   270   271   278     1    180.000000000000      2.062325814514                 4
   269   270   288   289     1    180.000000000000     13.675298757543                 2
   269   270   288   307     1    180.000000000000     13.675298757543                 2
   270   269   268   290     1    180.000000000000     13.675298757543                 2
   270   271   272   273     1    180.000000000000     13.675298757543                 2
   270   271   272   279     1    180.000000000000     13.675298757543                 2
   270   271   278   277     1    180.000000000000     13.675298757543                 2
   270   271   278   297     1    180.000000000000     13.675298757543                 2
   270   288   289   308     1    180.000000000000     13.675298757543                 2
   271   270   269   291     1    180.000000000000     13.675298757543                 2
   271   270   288   289     1    180.000000000000     13.675298757543                 2
   271   270   288   307     1    180.000000000000     13.675298757543                 2
   271   272   273   274     1    180.000000000000     13.675298757543                 2
   271   272   273   292     1    180.000000000000     13.675298757543                 2
   271   272   279   280     1    180.000000000000      5.177721731788                 2
   271   272   279   284     1    180.000000000000      5.177721731788                 2
   271   278   277   274     1    180.000000000000     13.675298757543                 2
   271   278   277   296     1    180.000000000000     13.675298757543                 2
   272   271   270   288     1      0.000000000000     -0.304473866043                 1
   272   271   270   288     1    180.000000000000      5.638519738776                 2
   272   271   270   288     1      0.000000000000     -0.337875939218                 3
   272   271   270   288     1    180.000000000000     -0.310471177225                 4
   272   271   278   277     1    180.000000000000     13.675298757543                 2
   272   271   278   297     1    180.000000000000     13.675298757543                 2
   272   273   274   275     1    180.000000000000     13.675298757543                 2
   272   273   274   277     1    180.000000000000     13.675298757543                 2
   272   279   280   281     1    180.000000000000     13.675298757543                 2
   272   279   280   298     1    180.000000000000     13.675298757543                 2
   272   279   284   283     1    180.000000000000     13.675298757543                 2
   272   279   284   301     1    180.000000000000     13.675298757543                 2
   273   272   271   278     1    180.000000000000     13.675298757543                 2
   273   272   279   280     1    180.000000000000      5.177721731788                 2
   273   272   279   284     1    180.000000000000      5.177721731788                 2
   273   274   275   276     1      0.000000000000      0.236597390744                 1
   273   274   275   276     1    180.000000000000      9.740711322807                 2
   273   274   275   276     1      0.000000000000      1.171142620756                 3
   273   274   275   276     1    180.000000000000      0.673361548209                 4
   273   274   277   278     1    180.000000000000     13.675298757543                 2
   273   274   277   296     1    180.000000000000     13.675298757543                 2
   274   273   272   279     1    180.000000000000     13.675298757543                 2
   274   275   276   293     1      0.000000000000      1.100857953953                 3
   274   275   276   294     1      0.000000000000      1.100857953953                 3
   274   275   276   295     1      0.000000000000      1.100857953953                 3
   274   277   278   297     1    180.000000000000     13.675298757543                 2
   275   274   273   292     1    180.000000000000     13.675298757543                 2
   275   274   277   278     1    180.000000000000     13.675298757543                 2
   275   274   277   296     1    180.000000000000     13.675298757543                 2
   276   275   274   277     1      0.000000000000      0.236597390744                 1
   276   275   274   277     1    180.000000000000      9.740711322807                 2
   276   275   274   277     1      0.000000000000      1.171142620756                 3
   276   275   274   277     1    180.000000000000      0.673361548209                 4
   277   274   273   292     1    180.000000000000     13.675298757543                 2
   278   271   270   288     1      0.000000000000      0.327701557688                 1
   278   271   270   288     1    180.000000000000      6.214477812011                 2
   278   271   270   288     1      0.000000000000      0.347537140987                 3
   278   271   270   288     1    180.000000000000      2.062325814514                 4
   278   271   272   279     1    180.000000000000     13.675298757543                 2
   279   272   273   292     1    180.000000000000     13.675298757543                 2
   279   280   281   282     1    180.000000000000     13.675298757543                 2
   279   280   281   299     1    180.000000000000     13.675298757543                 2
   279   284   283   282     1    180.000000000000     13.675298757543                 2
   279   284   283   285     1    180.000000000000     13.675298757543                 2
   280   279   284   283     1    180.000000000000     13.675298757543                 2
   280   279   284   301     1    180.000000000000     13.675298757543                 2
   280   281   282   283     1    180.000000000000     13.675298757543                 2
   280   281   282   300     1    180.000000000000     13.675298757543                 2
   281   280   279   284     1    180.000000000000     13.675298757543                 2
   281   282   283   284     1    180.000000000000     13.675298757543                 2
   281   282   283   285     1    180.000000000000     13.675298757543                 2
   282   281   280   298     1    180.000000000000     13.675298757543                 2
   282   283   284   301     1    180.000000000000     13.675298757543                 2
   282   283   285   286     1      0.000000000000      0.214435416894                 1
   282   283   285   286     1    180.000000000000      1.285855803333                 2
   282   283   285   286     1      0.000000000000      0.120462784425                 3
   282   283   285   286     1    180.000000000000      0.048633610628                 4
   282   283   285   287     1      0.000000000000     -0.097019738909                 1
   282   283   285   287     1    180.000000000000     -0.250823325382                 2
   282   283   285   287     1      0.000000000000      0.131726537237                 3
   282   283   285   287     1    180.000000000000      0.022062147303                 4
   282   283   285   302     1      0.000000000000     -0.124175546955                 1
   282   283   285   302     1    180.000000000000     -0.979980918869                 2
   282   283   285   302     1      0.000000000000      0.132014102331                 3
   282   283   285   302     1    180.000000000000      0.184093839400                 4
   283   282   281   299     1    180.000000000000     13.675298757543                 2
   283   285   286   303     1      0.000000000000      3.762653108787                 1
   283   285   286   303     1    180.000000000000      2.746042277126                 2
   283   285   286   303     1      0.000000000000      1.147197619654                 3
   283   285   286   303     1    180.000000000000      0.725906633006                 4
   283   285   286   309     1      0.000000000000     -5.282967454290                 1
   283   285   286   309     1    180.000000000000      1.932264434142                 2
   283   285   286   309     1      0.000000000000     -0.702538909088                 3
   283   285   286   309     1    180.000000000000     -0.708884593460                 4
   283   285   287   304     1      0.000000000000      0.602098025234                 3
   283   285   287   305     1      0.000000000000      0.602098025234                 3
   283   285   287   306     1      0.000000000000      0.602098025234                 3
   284   279   280   298     1    180.000000000000     13.675298757543                 2
   284   283   282   300     1    180.000000000000     13.675298757543                 2
   284   283   285   286     1      0.000000000000      0.214435416894                 1
   284   283   285   286     1    180.000000000000      1.285855803333                 2
   284   283   285   286     1      0.000000000000      0.120462784425                 3
   284   283   285   286     1    180.000000000000      0.048633610628                 4
   284   283   285   287     1      0.000000000000     -0.097019738909                 1
   284   283   285   287     1    180.000000000000     -0.250823325382                 2
   284   283   285   287     1      0.000000000000      0.131726537237                 3
   284   283   285   287     1    180.000000000000      0.022062147303                 4
   284   283   285   302     1      0.000000000000     -0.124175546955                 1
   284   283   285   302     1    180.000000000000     -0.979980918869                 2
   284   283   285   302     1      0.000000000000      0.132014102331                 3
   284   283   285   302     1    180.000000000000      0.184093839400                 4
   285   283   282   300     1    180.000000000000     13.675298757543                 2
   285   283   284   301     1    180.000000000000     13.675298757543                 2
   285   286   309   310     1      0.000000000000     -2.082890772434                 1
   285   286   309   310     1    180.000000000000      9.356909567592                 2
   285   286   309   310     1      0.000000000000      0.839653717923                 3
   285   286   309   310     1    180.000000000000     -0.956526547205                 4
   285   286   309   311     1      0.000000000000      1.010431686578                 1
   285   286   309   311     1    180.000000000000      8.697701907094                 2
   285   286   309   311     1      0.000000000000      1.692690657305                 3
   285   286   309   311     1    180.000000000000      2.175601803098                 4
   286   285   287   304     1      0.000000000000      0.602098025234                 3
   286   285   287   305     1      0.000000000000      0.602098025234                 3
   286   285   287   306     1      0.000000000000      0.602098025234                 3
   286   309   311   312     1      0.000000000000     -0.051441979596                 1
   286   309   311   312     1    180.000000000000      4.260811327580                 2
   286   309   311   312     1      0.000000000000     -0.173948076049                 3
   286   309   311   312     1    180.000000000000      0.121518206243                 4
   286   309   311   333     1      0.000000000000     -0.051441979596                 1
   286   309   311   333     1    180.000000000000      4.260811327580                 2
   286   309   311   333     1      0.000000000000     -0.173948076049                 3
   286   309   311   333     1    180.000000000000      0.121518206243                 4
   287   285   286   303     1      0.000000000000     -1.860356063496                 1
   287   285   286   303     1    180.000000000000      0.762414140658                 2
   287   285   286   303     1      0.000000000000      0.705501691789                 3
   287   285   286   303     1    180.000000000000     -0.479941943029                 4
   287   285   286   309     1      0.000000000000     -0.160479705077                 1
   287   285   286   309     1    180.000000000000      0.408810172172                 2
   287   285   286   309     1      0.000000000000     -1.228437654664                 3
   287   285   286   309     1    180.000000000000      0.180262340815                 4
   288   270   269   291     1    180.000000000000     13.675298757543                 2
   289   267   268   290     1    180.000000000000     13.675298757543                 2
   290   268   269   291     1    180.000000000000     13.675298757543                 2
   296   277   278   297     1    180.000000000000     13.675298757543                 2
   298   280   281   299     1    180.000000000000     13.675298757543                 2
   299   281   282   300     1    180.000000000000     13.675298757543                 2
   302   285   286   303     1      0.000000000000     -2.096404551037                 1
   302   285   286   303     1    180.000000000000      0.803720187448                 2
   302   285   286   303     1      0.000000000000      0.991610902064                 3
   302   285   286   303     1    180.000000000000     -0.031013272831                 4
   302   285   286   309     1      0.000000000000      2.595971637386                 1
   302   285   286   309     1    180.000000000000      0.356978847596                 2
   302   285   286   309     1      0.000000000000      0.501404997592                 3
   302   285   286   309     1    180.000000000000      0.275944328045                 4
   302   285   287   304     1      0.000000000000      0.953929629431                 3
   302   285   287   305     1      0.000000000000      0.953929629431                 3
   302   285   287   306     1      0.000000000000      0.953929629431                 3
   303   286   309   310     1      0.000000000000      4.124920165638                 1
   303   286   309   310     1    180.000000000000      5.016401768351                 2
   303   286   309   310     1      0.000000000000     -0.503093285174                 3
   303   286   309   310     1    180.000000000000     -0.926538649938                 4
   303   286   309   311     1      0.000000000000      2.282619851962                 1
   303   286   309   311     1    180.000000000000      9.208033849624                 2
   303   286   309   311     1      0.000000000000     -0.072213145150                 3
   303   286   309   311     1    180.000000000000      1.138370716282                 4
   307   288   289   308     1    180.000000000000     13.675298757543                 2
   309   311   312   313     1    180.000000000000     13.675298757543                 2
   309   311   312   334     1    180.000000000000     13.675298757543                 2
   309   311   333   332     1    180.000000000000     13.675298757543                 2
   309   311   333   352     1    180.000000000000     13.675298757543                 2
   310   309   311   312     1      0.000000000000      0.040224616410                 1
   310   309   311   312     1    180.000000000000     -0.271329461231                 2
   310   309   311   312     1      0.000000000000      0.163069623559                 3
   310   309   311   312     1    180.000000000000      0.331414866539                 4
   310   309   311   333     1      0.000000000000      0.040224616410                 1
   310   309   311   333     1    180.000000000000     -0.271329461231                 2
   310   309   311   333     1      0.000000000000      0.163069623559                 3
   310   309   311   333     1    180.000000000000      0.331414866539                 4
   311   312   313   314     1    180.000000000000     13.675298757543                 2
   311   312   313   335     1    180.000000000000     13.675298757543                 2
   311   333   332   314     1    180.000000000000     13.675298757543                 2
   311   333   332   351     1    180.000000000000     13.675298757543                 2
   312   311   333   332     1    180.000000000000     13.675298757543                 2
   312   311   333   352     1    180.000000000000     13.675298757543                 2
   312   313   314   315     1    180.000000000000     13.675298757543                 2
   312   313   314   332     1    180.000000000000     13.675298757543                 2
   313   312   311   333     1    180.000000000000     13.675298757543                 2
   313   314   315   316     1      0.000000000000     -0.304473866043                 1
   313   314   315   316     1    180.000000000000      5.638519738776                 2
   313   314   315   316     1      0.000000000000     -0.337875939218                 3
   313   314   315   316     1    180.000000000000     -0.310471177225                 4
   313   314   315   322     1      0.000000000000      0.327701557688                 1
   313   314   315   322     1    180.000000000000      6.214477812011                 2
   313   314   315   322     1      0.000000000000      0.347537140987                 3
   313   314   315   322     1    180.000000000000      2.062325814514                 4
   313   314   332   333     1    180.000000000000     13.675298757543                 2
   313   314   332   351     1    180.000000000000     13.675298757543                 2
   314   313   312   334     1    180.000000000000     13.675298757543                 2
   314   315   316   317     1    180.000000000000     13.675298757543                 2
   314   315   316   323     1    180.000000000000     13.675298757543                 2
   314   315   322   321     1    180.000000000000     13.675298757543                 2
   314   315   322   341     1    180.000000000000     13.675298757543                 2
   314   332   333   352     1    180.000000000000     13.675298757543                 2
   315   314   313   335     1    180.000000000000     13.675298757543                 2
   315   314   332   333     1    180.000000000000     13.675298757543                 2
   315   314   332   351     1    180.000000000000     13.675298757543                 2
   315   316   317   318     1    180.000000000000     13.675298757543                 2
   315   316   317   336     1    180.000000000000     13.675298757543                 2
   315   316   323   324     1    180.000000000000      5.177721731788                 2
   315   316   323   328     1    180.000000000000      5.177721731788                 2
   315   322   321   318     1    180.000000000000     13.675298757543                 2
   315   322   321   340     1    180.000000000000     13.675298757543                 2
   316   315   314   332     1      0.000000000000     -0.304473866043                 1
   316   315   314   332     1    180.000000000000      5.638519738776                 2
   316   315   314   332     1      0.000000000000     -0.337875939218                 3
   316   315   314   332     1    180.000000000000     -0.310471177225                 4
   316   315   322   321     1    180.000000000000     13.675298757543                 2
   316   315   322   341     1    180.000000000000     13.675298757543                 2
   316   317   318   319     1    180.000000000000     13.675298757543                 2
   316   317   318   321     1    180.000000000000     13.675298757543                 2
   316   323   324   325     1    180.000000000000     13.675298757543                 2
   316   323   324   342     1    180.000000000000     13.675298757543                 2
   316   323   328   327     1    180.000000000000     13.675298757543                 2
   316   323   328   345     1    180.000000000000     13.675298757543                 2
   317   316   315   322     1    180.000000000000     13.675298757543                 2
   317   316   323   324     1    180.000000000000      5.177721731788                 2
   317   316   323   328     1    180.000000000000      5.177721731788                 2
   317   318   319   320     1      0.000000000000      0.236597390744                 1
   317   318   319   320     1    180.000000000000      9.740711322807                 2
   317   318   319   320     1      0.000000000000      1.171142620756                 3
   317   318   319   320     1    180.000000000000      0.673361548209                 4
   317   318   321   322     1    180.000000000000     13.675298757543                 2
   317   318   321   340     1    180.000000000000     13.675298757543                 2
   318   317   316   323     1    180.000000000000     13.675298757543                 2
   318   319   320   337     1      0.000000000000      1.100857953953                 3
   318   319   320   338     1      0.000000000000      1.100857953953                 3
   318   319   320   339     1      0.000000000000      1.100857953953                 3
   318   321   322   341     1    180.000000000000     13.675298757543                 2
   319   318   317   336     1    180.000000000000     13.675298757543                 2
   319   318   321   322     1    180.000000000000     13.675298757543                 2
   319   318   321   340     1    180.000000000000     13.675298757543                 2
   320   319   318   321     1      0.000000000000      0.236597390744                 1
   320   319   318   321     1    180.000000000000      9.740711322807                 2
   320   319   318   321     1      0.000000000000      1.171142620756                 3
   320   319   318   321     1    180.000000000000      0.673361548209                 4
   321   318   317   336     1    180.000000000000     13.675298757543                 2
   322   315   314   332     1      0.000000000000      0.327701557688                 1
   322   315   314   332     1    180.000000000000      6.214477812011                 2
   322   315   314   332     1      0.000000000000      0.347537140987                 3
   322   315   314   332     1    180.000000000000      2.062325814514                 4
   322   315   316   323     1    180.000000000000     13.675298757543                 2
   323   316   317   336     1    180.000000000000     13.675298757543                 2
   323   324   325   326     1    180.000000000000     13.675298757543                 2
   323   324   325   343     1    180.000000000000     13.675298757543                 2
   323   328   327   326     1    180.000000000000     13.675298757543                 2
   323   328   327   329     1    180.000000000000     13.675298757543                 2
   324   323   328   327     1    180.000000000000     13.675298757543                 2
   324   323   328   345     1    180.000000000000     13.675298757543                 2
   324   325   326   327     1    180.000000000000     13.675298757543                 2
   324   325   326   344     1    180.000000000000     13.675298757543                 2
   325   324   323   328     1    180.000000000000     13.675298757543                 2
   325   326   327   328     1    180.000000000000     13.675298757543                 2
   325   326   327   329     1    180.000000000000     13.675298757543                 2
   326   325   324   342     1    180.000000000000     13.675298757543                 2
   326   327   328   345     1    180.000000000000     13.675298757543                 2
   326   327   329   330     1      0.000000000000      0.158397987956                 1
   326   327   329   330     1    180.000000000000      0.987832603397                 2
   326   327   329   330     1      0.000000000000      0.313516962776                 3
   326   327   329   330     1    180.000000000000      0.099890132425                 4
   326   327   329   331     1      0.000000000000     -0.068571946162                 1
   326   327   329   331     1    180.000000000000      0.016311040684                 2
   326   327   329   331     1      0.000000000000      0.315807185475                 3
   326   327   329   331     1    180.000000000000      0.117328781760                 4
   326   327   329   346     1      0.000000000000     -0.095728081217                 1
   326   327   329   346     1    180.000000000000     -0.731617385377                 2
   326   327   329   346     1      0.000000000000      0.319573703049                 3
   326   327   329   346     1    180.000000000000      0.232035422756                 4
   327   326   325   343     1    180.000000000000     13.675298757543                 2
   327   329   330   347     1      0.000000000000      2.617606788176                 1
   327   329   330   347     1    180.000000000000      1.945916594085                 2
   327   329   330   347     1      0.000000000000      0.944292626302                 3
   327   329   330   347     1    180.000000000000      0.368002892954                 4
   327   329   330   363     1      0.000000000000     -4.267958506763                 1
   327   329   330   363     1    180.000000000000      1.970712674733                 2
   327   329   330   363     1      0.000000000000     -0.912105867385                 3
   327   329   330   363     1    180.000000000000     -0.320625992117                 4
   327   329   331   348     1      0.000000000000      0.602098025234                 3
   327   329   331   349     1      0.000000000000      0.602098025234                 3
   327   329   331   350     1      0.000000000000      0.602098025234                 3
   328   323   324   342     1    180.000000000000     13.675298757543                 2
   328   327   326   344     1    180.000000000000     13.675298757543                 2
   328   327   329   330     1      0.000000000000      0.158397987956                 1
   328   327   329   330     1    180.000000000000      0.987832603397                 2
   328   327   329   330     1      0.000000000000      0.313516962776                 3
   328   327   329   330     1    180.000000000000      0.099890132425                 4
   328   327   329   331     1      0.000000000000     -0.068571946162                 1
   328   327   329   331     1    180.000000000000      0.016311040684                 2
   328   327   329   331     1      0.000000000000      0.315807185475                 3
   328   327   329   331     1    180.000000000000      0.117328781760                 4
   328   327   329   346     1      0.000000000000     -0.095728081217                 1
   328   327   329   346     1    180.000000000000     -0.731617385377                 2
   328   327   329   346     1      0.000000000000      0.319573703049                 3
   328   327   329   346     1    180.000000000000      0.232035422756                 4
   329   327   326   344     1    180.000000000000     13.675298757543                 2
   329   327   328   345     1    180.000000000000     13.675298757543                 2
   329   330   363   362     1      0.000000000000      1.016291696027                 1
   329   330   363   362     1    180.000000000000      8.795731173795                 2
   329   330   363   362     1      0.000000000000      0.047169791972                 3
   329   330   363   362     1    180.000000000000     -0.972881002509                 4
   329   330   363   364     1      0.000000000000      1.189631802682                 1
   329   330   363   364     1    180.000000000000      8.326370891872                 2
   329   330   363   364     1      0.000000000000      1.435990836376                 3
   329   330   363   364     1    180.000000000000     -1.209057082374                 4
   330   329   331   348     1      0.000000000000      0.602098025234                 3
   330   329   331   349     1      0.000000000000      0.602098025234                 3
   330   329   331   350     1      0.000000000000      0.602098025234                 3
   330   363   362   359     1      0.000000000000      1.742367240454                 1
   330   363   362   359     1    180.000000000000     18.481085252668                 2
   330   363   362   359     1      0.000000000000     -0.178722379011                 3
   330   363   362   359     1    180.000000000000      1.899339735401                 4
   331   329   330   347     1      0.000000000000     -2.005867907378                 1
   331   329   330   347     1    180.000000000000      1.504578668256                 2
   331   329   330   347     1      0.000000000000      1.210758861461                 3
   331   329   330   347     1    180.000000000000      0.042756498169                 4
   331   329   330   363     1      0.000000000000     -0.756174462722                 1
   331   329   330   363     1    180.000000000000     -0.023938857824                 2
   331   329   330   363     1      0.000000000000     -1.373444099621                 3
   331   329   330   363     1    180.000000000000     -0.510577063975                 4
   332   314   313   335     1    180.000000000000     13.675298757543                 2
   333   311   312   334     1    180.000000000000     13.675298757543                 2
   334   312   313   335     1    180.000000000000     13.675298757543                 2
   340   321   322   341     1    180.000000000000     13.675298757543                 2
   342   324   325   343     1    180.000000000000     13.675298757543                 2
   343   325   326   344     1    180.000000000000     13.675298757543                 2
   346   329   330   347     1      0.000000000000     -0.744167658555                 1
   346   329   330   347     1    180.000000000000      0.805633099355                 2
   346   329   330   347     1      0.000000000000      1.004860998994                 3
   346   329   330   347     1    180.000000000000     -0.936405906997                 4
   346   329   330   363     1      0.000000000000      2.169306666680                 1
   346   329   330   363     1    180.000000000000      0.717229125971                 2
   346   329   330   363     1      0.000000000000      0.249675592543                 3
   346   329   330   363     1    180.000000000000      0.522975206740                 4
   346   329   331   348     1      0.000000000000      0.953929629431                 3
   346   329   331   349     1      0.000000000000      0.953929629431                 3
   346   329   331   350     1      0.000000000000      0.953929629431                 3
   347   330   363   362     1      0.000000000000      1.890170845379                 1
   347   330   363   362     1    180.000000000000      8.357484357432                 2
   347   330   363   362     1      0.000000000000     -0.002746394866                 3
   347   330   363   362     1    180.000000000000     -1.686184131973                 4
   347   330   363   364     1      0.000000000000      4.842170009679                 1
   347   330   363   364     1    180.000000000000      1.612003112454                 2
   347   330   363   364     1      0.000000000000      1.144631135770                 3
   347   330   363   364     1    180.000000000000     -1.661800688276                 4
   351   332   333   352     1    180.000000000000     13.675298757543                 2
   358   359   360   368     1      0.000000000000      0.412282083439                 3
   358   359   360   369     1      0.000000000000      0.412282083439                 3
   358   359   360   370     1      0.000000000000      0.412282083439                 3
   358   359   361   371     1      0.000000000000      0.412282083439                 3
   358   359   361   372     1      0.000000000000      0.412282083439                 3
   358   359   361   373     1      0.000000000000      0.412282083439                 3
   358   359   362   363     1      0.000000000000      1.585079727935                 1
   358   359   362   363     1    180.000000000000      0.126776526095                 2
   358   359   362   363     1      0.000000000000     -1.755747767547                 3
   358   359   362   363     1    180.000000000000      1.312179943997                 4
   359   362   363   364     1      0.000000000000      3.892506368867                 1
   359   362   363   364     1    180.000000000000      4.717839435425                 2
   359   362   363   364     1      0.000000000000      0.586254767463                 3
   359   362   363   364     1    180.000000000000      0.799491889786                 4
   360   359   358   365     1      0.000000000000      0.412282083439                 3
   360   359   358   366     1      0.000000000000      0.412282083439                 3
   360   359   358   367     1      0.000000000000      0.412282083439                 3
   360   359   361   371     1      0.000000000000      0.412282083439                 3
   360   359   361   372     1      0.000000000000      0.412282083439                 3
   360   359   361   373     1      0.000000000000      0.412282083439                 3
   360   359   362   363     1      0.000000000000      1.585079727935                 1
   360   359   362   363     1    180.000000000000      0.126776526095                 2
   360   359   362   363     1      0.000000000000     -1.755747767547                 3
   360   359   362   363     1    180.000000000000      1.312179943997                 4
   361   359   358   365     1      0.000000000000      0.412282083439                 3
   361   359   358   366     1      0.000000000000      0.412282083439                 3
   361   359   358   367     1      0.000000000000      0.412282083439                 3
   361   359   360   368     1      0.000000000000      0.412282083439                 3
   361   359   360   369     1      0.000000000000      0.412282083439                 3
   361   359   360   370     1      0.000000000000      0.412282083439                 3
   361   359   362   363     1      0.000000000000      1.585079727935                 1
   361   359   362   363     1    180.000000000000      0.126776526095                 2
   361   359   362   363     1      0.000000000000     -1.755747767547                 3
   361   359   362   363     1    180.000000000000      1.312179943997                 4
   362   359   358   365     1      0.000000000000      0.548667589915                 3
   362   359   358   365     1      0.000000000000      1.826511275305                 1
   362   359   358   366     1      0.000000000000      0.548667589915                 3
   362   359   358   366     1      0.000000000000      1.826511275305                 1
   362   359   358   367     1      0.000000000000      0.548667589915                 3
   362   359   358   367     1      0.000000000000      1.826511275305                 1
   362   359   360   368     1      0.000000000000      0.548667589915                 3
   362   359   360   368     1      0.000000000000      1.826511275305                 1
   362   359   360   369     1      0.000000000000      0.548667589915                 3
   362   359   360   369     1      0.000000000000      1.826511275305                 1
   362   359   360   370     1      0.000000000000      0.548667589915                 3
   362   359   360   370     1      0.000000000000      1.826511275305                 1
   362   359   361   371     1      0.000000000000      0.548667589915                 3
   362   359   361   371     1      0.000000000000      1.826511275305                 1
   362   359   361   372     1      0.000000000000      0.548667589915                 3
   362   359   361   372     1      0.000000000000      1.826511275305                 1
   362   359   361   373     1      0.000000000000      0.548667589915                 3
   362   359   361   373     1      0.000000000000      1.826511275305                 1
   152   147   151   169     4    180.000000000000      7.295209241758                 2
    66    83    89    65     4    180.000000000000      1.752067434103                 2
   102    95   101   121     4    180.000000000000      7.295209241758                 2
    57    58    76    54     4    180.000000000000      7.295209241758                 2
   282   281   283   300     4    180.000000000000      7.295209241758                 2
   183   182   184   190     4    180.000000000000      7.295209241758                 2
   245   244   264   223     4    180.000000000000      7.295209241758                 2
   135   136   157   133     4    180.000000000000      7.295209241758                 2
   318   317   319   321     4    180.000000000000      7.295209241758                 2
   182   183   200   181     4    180.000000000000      7.295209241758                 2
    13    10    14    32     4    180.000000000000      7.295209241758                 2
    93    92    94   115     4    180.000000000000      7.295209241758                 2
   108   125   103   107     4    180.000000000000      7.295209241758                 2
   325   326   343   324     4    180.000000000000      7.295209241758                 2
   227   228   234   226     4    180.000000000000      7.295209241758                 2
   194   212   193   195     4    180.000000000000      7.295209241758                 2
    14    33     7    13     4    180.000000000000      7.295209241758                 2
   318   319   321   317     4    180.000000000000      7.295209241758                 2
   240   235   239   257     4    180.000000000000      7.295209241758                 2
   112   131    94   113     4    180.000000000000      7.295209241758                 2
   315   322   314   316     4    180.000000000000      7.295209241758                 2
   267   268   289   265     4    180.000000000000      7.295209241758                 2
   326   325   327   344     4    180.000000000000      7.295209241758                 2
   272   279   271   273     4    180.000000000000      7.295209241758                 2
   110   127   133   109     4    180.000000000000      1.752067434103                 2
   148   147   149   166     4    180.000000000000      7.295209241758                 2
    50    68    49    51     4    180.000000000000      7.295209241758                 2
   148   166   147   149     4    180.000000000000      7.295209241758                 2
   236   235   237   254     4    180.000000000000      7.295209241758                 2
   191   184   192   196     4    180.000000000000      7.295209241758                 2
   318   321   317   319     4    180.000000000000      7.295209241758                 2
   195   197   194   196     4    180.000000000000      7.295209241758                 2
   105   104   106   123     4    180.000000000000      7.295209241758                 2
   137   138   159   136     4    180.000000000000      7.295209241758                 2
   151   150   152   153     4    180.000000000000      7.295209241758                 2
    62    63    80    61     4    180.000000000000      7.295209241758                 2
   271   270   272   278     4    180.000000000000      7.295209241758                 2
   139   146   138   140     4    180.000000000000      7.295209241758                 2
   245   264   223   244     4    180.000000000000      7.295209241758                 2
     5     4     6    27     4    180.000000000000      7.295209241758                 2
    13    32    10    14     4    180.000000000000      7.295209241758                 2
   288   270   289   307     4    180.000000000000      7.295209241758                 2
   102   121    95   101     4    180.000000000000      7.295209241758                 2
   145   146   164   142     4    180.000000000000      7.295209241758                 2
   185   204   184   186     4    180.000000000000      7.295209241758                 2
   184   183   185   191     4    180.000000000000      7.295209241758                 2
   224   225   246   223     4    180.000000000000      7.295209241758                 2
   235   240   228   236     4    180.000000000000      7.295209241758                 2
   179   180   201   177     4    180.000000000000      7.295209241758                 2
     3     4    25     1     4    180.000000000000      7.295209241758                 2
   221   198   222   223     4    180.000000000000      7.295209241758                 2
    95   102    94    96     4    180.000000000000      7.295209241758                 2
   183   184   190   182     4    180.000000000000      7.295209241758                 2
    47    48    69    45     4    180.000000000000      7.295209241758                 2
   110   109   127   133     4    180.000000000000      1.752067434103                 2
   229   230   248   228     4    180.000000000000      7.295209241758                 2
   281   299   280   282     4    180.000000000000      7.295209241758                 2
   138   139   156   137     4    180.000000000000      7.295209241758                 2
   286   309   285   303     4    180.000000000000      1.752067434103                 2
    49    71    48    50     4    180.000000000000      7.295209241758                 2
    10     9    11    13     4    180.000000000000      7.295209241758                 2
   229   228   230   248     4    180.000000000000      7.295209241758                 2
   244   263   226   245     4    180.000000000000      7.295209241758                 2
   278   297   271   277     4    180.000000000000      7.295209241758                 2
   268   269   290   267     4    180.000000000000      7.295209241758                 2
   142   145   141   143     4    180.000000000000      7.295209241758                 2
   189   186   190   208     4    180.000000000000      7.295209241758                 2
   273   272   274   292     4    180.000000000000      7.295209241758                 2
   103   108    96   104     4    180.000000000000      7.295209241758                 2
   101    98   102   120     4    180.000000000000      7.295209241758                 2
     4    26     3     5     4    180.000000000000      7.295209241758                 2
   192   193   210   191     4    180.000000000000      7.295209241758                 2
   312   334   311   313     4    180.000000000000      7.295209241758                 2
   150   149   151   168     4    180.000000000000      7.295209241758                 2
   311   333   309   312     4    180.000000000000      7.295209241758                 2
   311   312   333   309     4    180.000000000000      7.295209241758                 2
   221   223   198   222     4    180.000000000000      7.295209241758                 2
   225   224   226   247     4    180.000000000000      7.295209241758                 2
   281   280   282   299     4    180.000000000000      7.295209241758                 2
   107   108   109   106     4    180.000000000000      7.295209241758                 2
   181   182   203   180     4    180.000000000000      7.295209241758                 2
   154   177   153   171     4    180.000000000000      1.752067434103                 2
   200   182   201   219     4    180.000000000000      7.295209241758                 2
   191   196   184   192     4    180.000000000000      7.295209241758                 2
   133   134   135   110     4    180.000000000000      7.295209241758                 2
    97    96    98   116     4    180.000000000000      7.295209241758                 2
   315   314   316   322     4    180.000000000000      7.295209241758                 2
   192   191   193   210     4    180.000000000000      7.295209241758                 2
    61    79    60    62     4    180.000000000000      7.295209241758                 2
   313   335   312   314     4    180.000000000000      7.295209241758                 2
   135   157   133   136     4    180.000000000000      7.295209241758                 2
   230   233   229   231     4    180.000000000000      7.295209241758                 2
   104   105   122   103     4    180.000000000000      7.295209241758                 2
   267   289   265   268     4    180.000000000000      7.295209241758                 2
    98   101    97    99     4    180.000000000000      7.295209241758                 2
   309   310   311   286     4    180.000000000000      7.295209241758                 2
   283   285   282   284     4    180.000000000000      7.295209241758                 2
   244   226   245   263     4    180.000000000000      7.295209241758                 2
   269   268   270   291     4    180.000000000000      7.295209241758                 2
   190   183   189   209     4    180.000000000000      7.295209241758                 2
    15    20     8    16     4    180.000000000000      7.295209241758                 2
   154   153   171   177     4    180.000000000000      1.752067434103                 2
   333   311   332   352     4    180.000000000000      7.295209241758                 2
   277   278   296   274     4    180.000000000000      7.295209241758                 2
    45    47    22    46     4    180.000000000000      7.295209241758                 2
    62    80    61    63     4    180.000000000000      7.295209241758                 2
   233   230   234   252     4    180.000000000000      7.295209241758                 2
    19    21    18    20     4    180.000000000000      7.295209241758                 2
   278   271   277   297     4    180.000000000000      7.295209241758                 2
   281   282   299   280     4    180.000000000000      7.295209241758                 2
   103   104   108    96     4    180.000000000000      7.295209241758                 2
    17    35    16    18     4    180.000000000000      7.295209241758                 2
   242   241   259   265     4    180.000000000000      1.752067434103                 2
     9    10    28     8     4    180.000000000000      7.295209241758                 2
   180   181   202   179     4    180.000000000000      7.295209241758                 2
   102   101   121    95     4    180.000000000000      7.295209241758                 2
   105   106   123   104     4    180.000000000000      7.295209241758                 2
   283   282   284   285     4    180.000000000000      7.295209241758                 2
   139   140   146   138     4    180.000000000000      7.295209241758                 2
   201   179   200   220     4    180.000000000000      7.295209241758                 2
     6    24     5     7     4    180.000000000000      7.295209241758                 2
   142   143   145   141     4    180.000000000000      7.295209241758                 2
   150   168   149   151     4    180.000000000000      7.295209241758                 2
   229   248   228   230     4    180.000000000000      7.295209241758                 2
   179   201   177   180     4    180.000000000000      7.295209241758                 2
   104   103   105   122     4    180.000000000000      7.295209241758                 2
   113   132    91   112     4    180.000000000000      7.295209241758                 2
    97    98   116    96     4    180.000000000000      7.295209241758                 2
    95    94    96   102     4    180.000000000000      7.295209241758                 2
   328   345   323   327     4    180.000000000000      7.295209241758                 2
    89    91    66    90     4    180.000000000000      7.295209241758                 2
   101   120    98   102     4    180.000000000000      7.295209241758                 2
   108   103   107   125     4    180.000000000000      7.295209241758                 2
    13    14    32    10     4    180.000000000000      7.295209241758                 2
   268   290   267   269     4    180.000000000000      7.295209241758                 2
   330   363   329   347     4    180.000000000000      1.752067434103                 2
   233   252   230   234     4    180.000000000000      7.295209241758                 2
   200   201   219   182     4    180.000000000000      7.295209241758                 2
   195   194   196   197     4    180.000000000000      7.295209241758                 2
   327   329   326   328     4    180.000000000000      7.295209241758                 2
   190   189   209   183     4    180.000000000000      7.295209241758                 2
   146   145   165   139     4    180.000000000000      7.295209241758                 2
    20    37    15    19     4    180.000000000000      7.295209241758                 2
   326   327   344   325     4    180.000000000000      7.295209241758                 2
   274   273   275   277     4    180.000000000000      7.295209241758                 2
    49    50    71    48     4    180.000000000000      7.295209241758                 2
   224   223   225   246     4    180.000000000000      7.295209241758                 2
    63    65    62    64     4    180.000000000000      7.295209241758                 2
   271   272   278   270     4    180.000000000000      7.295209241758                 2
   191   192   196   184     4    180.000000000000      7.295209241758                 2
   140   147   139   141     4    180.000000000000      7.295209241758                 2
    63    64    65    62     4    180.000000000000      7.295209241758                 2
     4     3     5    26     4    180.000000000000      7.295209241758                 2
    60    61    78    59     4    180.000000000000      7.295209241758                 2
    22    21    39    45     4    180.000000000000      1.752067434103                 2
   181   203   180   182     4    180.000000000000      7.295209241758                 2
   133   135   110   134     4    180.000000000000      7.295209241758                 2
   272   271   273   279     4    180.000000000000      7.295209241758                 2
    96    97   103    95     4    180.000000000000      7.295209241758                 2
   201   200   220   179     4    180.000000000000      7.295209241758                 2
    52    59    51    53     4    180.000000000000      7.295209241758                 2
   196   213   191   195     4    180.000000000000      7.295209241758                 2
    66    89    65    83     4    180.000000000000      1.752067434103                 2
   186   189   185   187     4    180.000000000000      7.295209241758                 2
   190   209   183   189     4    180.000000000000      7.295209241758                 2
   314   313   315   332     4    180.000000000000      7.295209241758                 2
   151   152   153   150     4    180.000000000000      7.295209241758                 2
   321   318   322   340     4    180.000000000000      7.295209241758                 2
   228   229   235   227     4    180.000000000000      7.295209241758                 2
     7     6     8    14     4    180.000000000000      7.295209241758                 2
   180   202   179   181     4    180.000000000000      7.295209241758                 2
   322   341   315   321     4    180.000000000000      7.295209241758                 2
    18    17    19    36     4    180.000000000000      7.295209241758                 2
    53    54    72    52     4    180.000000000000      7.295209241758                 2
     7     8    14     6     4    180.000000000000      7.295209241758                 2
    58    77    51    57     4    180.000000000000      7.295209241758                 2
   198   215   221   197     4    180.000000000000      1.752067434103                 2
   225   226   247   224     4    180.000000000000      7.295209241758                 2
   268   267   269   290     4    180.000000000000      7.295209241758                 2
   186   187   189   185     4    180.000000000000      7.295209241758                 2
   180   179   181   202     4    180.000000000000      7.295209241758                 2
   141   140   142   160     4    180.000000000000      7.295209241758                 2
   330   347   363   329     4    180.000000000000      1.752067434103                 2
    48    49    70    47     4    180.000000000000      7.295209241758                 2
    93   115    92    94     4    180.000000000000      7.295209241758                 2
   192   210   191   193     4    180.000000000000      7.295209241758                 2
    45    46    47    22     4    180.000000000000      7.295209241758                 2
   328   323   327   345     4    180.000000000000      7.295209241758                 2
    14     7    13    33     4    180.000000000000      7.295209241758                 2
   156   157   175   138     4    180.000000000000      7.295209241758                 2
   224   246   223   225     4    180.000000000000      7.295209241758                 2
    94    95   112    93     4    180.000000000000      7.295209241758                 2
     5     6    27     4     4    180.000000000000      7.295209241758                 2
   140   141   147   139     4    180.000000000000      7.295209241758                 2
     4     5    26     3     4    180.000000000000      7.295209241758                 2
   184   191   183   185     4    180.000000000000      7.295209241758                 2
    96    95    97   103     4    180.000000000000      7.295209241758                 2
   239   238   240   241     4    180.000000000000      7.295209241758                 2
   150   151   168   149     4    180.000000000000      7.295209241758                 2
   149   148   150   167     4    180.000000000000      7.295209241758                 2
   237   238   255   236     4    180.000000000000      7.295209241758                 2
   141   142   160   140     4    180.000000000000      7.295209241758                 2
   107   106   108   109     4    180.000000000000      7.295209241758                 2
   238   239   256   237     4    180.000000000000      7.295209241758                 2
   317   316   318   336     4    180.000000000000      7.295209241758                 2
   315   316   322   314     4    180.000000000000      7.295209241758                 2
    69    47    68    88     4    180.000000000000      7.295209241758                 2
    92   114    91    93     4    180.000000000000      7.295209241758                 2
   185   186   204   184     4    180.000000000000      7.295209241758                 2
    98    99   101    97     4    180.000000000000      7.295209241758                 2
   200   219   182   201     4    180.000000000000      7.295209241758                 2
   277   296   274   278     4    180.000000000000      7.295209241758                 2
   316   317   323   315     4    180.000000000000      7.295209241758                 2
    20    15    19    37     4    180.000000000000      7.295209241758                 2
    17    16    18    35     4    180.000000000000      7.295209241758                 2
   327   326   328   329     4    180.000000000000      7.295209241758                 2
   145   164   142   146     4    180.000000000000      7.295209241758                 2
    22    45    21    39     4    180.000000000000      1.752067434103                 2
   103    96   104   108     4    180.000000000000      7.295209241758                 2
   322   321   341   315     4    180.000000000000      7.295209241758                 2
    91   113    89    92     4    180.000000000000      7.295209241758                 2
   141   160   140   142     4    180.000000000000      7.295209241758                 2
   327   328   329   326     4    180.000000000000      7.295209241758                 2
    24     6    25    43     4    180.000000000000      7.295209241758                 2
   321   322   340   318     4    180.000000000000      7.295209241758                 2
    91    89    92   113     4    180.000000000000      7.295209241758                 2
    96   103    95    97     4    180.000000000000      7.295209241758                 2
   137   159   136   138     4    180.000000000000      7.295209241758                 2
   226   227   244   225     4    180.000000000000      7.295209241758                 2
   142   141   143   145     4    180.000000000000      7.295209241758                 2
   227   226   228   234     4    180.000000000000      7.295209241758                 2
   267   265   268   289     4    180.000000000000      7.295209241758                 2
    57    54    58    76     4    180.000000000000      7.295209241758                 2
    24    25    43     6     4    180.000000000000      7.295209241758                 2
   239   241   238   240     4    180.000000000000      7.295209241758                 2
   147   148   152   140     4    180.000000000000      7.295209241758                 2
   311   309   312   333     4    180.000000000000      7.295209241758                 2
   106   124   105   107     4    180.000000000000      7.295209241758                 2
   230   231   233   229     4    180.000000000000      7.295209241758                 2
   313   312   314   335     4    180.000000000000      7.295209241758                 2
    91    92   113    89     4    180.000000000000      7.295209241758                 2
    92    93   114    91     4    180.000000000000      7.295209241758                 2
    97   116    96    98     4    180.000000000000      7.295209241758                 2
   233   234   252   230     4    180.000000000000      7.295209241758                 2
    54    55    57    53     4    180.000000000000      7.295209241758                 2
   145   142   146   164     4    180.000000000000      7.295209241758                 2
   194   193   195   212     4    180.000000000000      7.295209241758                 2
    18    19    36    17     4    180.000000000000      7.295209241758                 2
   156   138   157   175     4    180.000000000000      7.295209241758                 2
   189   208   186   190     4    180.000000000000      7.295209241758                 2
    58    51    57    77     4    180.000000000000      7.295209241758                 2
    48    47    49    70     4    180.000000000000      7.295209241758                 2
   324   342   323   325     4    180.000000000000      7.295209241758                 2
    49    48    50    71     4    180.000000000000      7.295209241758                 2
     1     3   354     2     4    180.000000000000     18.013091641645                 2
   147   140   148   152     4    180.000000000000      7.295209241758                 2
   234   227   233   253     4    180.000000000000      7.295209241758                 2
   183   190   182   184     4    180.000000000000      7.295209241758                 2
   280   281   298   279     4    180.000000000000      7.295209241758                 2
   147   152   140   148     4    180.000000000000      7.295209241758                 2
   177   179   154   178     4    180.000000000000      7.295209241758                 2
    60    78    59    61     4    180.000000000000      7.295209241758                 2
    61    60    62    79     4    180.000000000000      7.295209241758                 2
   314   332   313   315     4    180.000000000000      7.295209241758                 2
    68    69    87    50     4    180.000000000000      7.295209241758                 2
   221   222   223   198     4    180.000000000000      7.295209241758                 2
   226   244   225   227     4    180.000000000000      7.295209241758                 2
   236   237   254   235     4    180.000000000000      7.295209241758                 2
    89    66    90    91     4    180.000000000000      7.295209241758                 2
   228   227   229   235     4    180.000000000000      7.295209241758                 2
   148   149   166   147     4    180.000000000000      7.295209241758                 2
   146   165   139   145     4    180.000000000000      7.295209241758                 2
   314   315   332   313     4    180.000000000000      7.295209241758                 2
     6     5     7    24     4    180.000000000000      7.295209241758                 2
   328   327   345   323     4    180.000000000000      7.295209241758                 2
    50    51    68    49     4    180.000000000000      7.295209241758                 2
    45    22    46    47     4    180.000000000000      7.295209241758                 2
    47    69    45    48     4    180.000000000000      7.295209241758                 2
   284   279   283   301     4    180.000000000000      7.295209241758                 2
   363   362   364   330     4    180.000000000000     18.013091641645                 2
    94    93    95   112     4    180.000000000000      7.295209241758                 2
    51    52    58    50     4    180.000000000000      7.295209241758                 2
   235   236   240   228     4    180.000000000000      7.295209241758                 2
    52    53    59    51     4    180.000000000000      7.295209241758                 2
   238   237   239   256     4    180.000000000000      7.295209241758                 2
    25    44     3    24     4    180.000000000000      7.295209241758                 2
    64    63    81    59     4    180.000000000000      7.295209241758                 2
   108   107   125   103     4    180.000000000000      7.295209241758                 2
   110   133   109   127     4    180.000000000000      1.752067434103                 2
   136   158   135   137     4    180.000000000000      7.295209241758                 2
   179   177   180   201     4    180.000000000000      7.295209241758                 2
   112    94   113   131     4    180.000000000000      7.295209241758                 2
    16    17    34    15     4    180.000000000000      7.295209241758                 2
   182   200   181   183     4    180.000000000000      7.295209241758                 2
   234   253   227   233     4    180.000000000000      7.295209241758                 2
   157   156   176   135     4    180.000000000000      7.295209241758                 2
   265   266   267   242     4    180.000000000000      7.295209241758                 2
   137   136   138   159     4    180.000000000000      7.295209241758                 2
    50    49    51    68     4    180.000000000000      7.295209241758                 2
    24    43     6    25     4    180.000000000000      7.295209241758                 2
   324   325   342   323     4    180.000000000000      7.295209241758                 2
     8     7     9    15     4    180.000000000000      7.295209241758                 2
   316   323   315   317     4    180.000000000000      7.295209241758                 2
   133   110   134   135     4    180.000000000000      7.295209241758                 2
   230   229   231   233     4    180.000000000000      7.295209241758                 2
   288   307   270   289     4    180.000000000000      7.295209241758                 2
   313   314   335   312     4    180.000000000000      7.295209241758                 2
   286   303   309   285     4    180.000000000000      1.752067434103                 2
   280   298   279   281     4    180.000000000000      7.295209241758                 2
   321   340   318   322     4    180.000000000000      7.295209241758                 2
    18    36    17    19     4    180.000000000000      7.295209241758                 2
    16    34    15    17     4    180.000000000000      7.295209241758                 2
   269   270   291   268     4    180.000000000000      7.295209241758                 2
   289   267   288   308     4    180.000000000000      7.295209241758                 2
   223   245   221   224     4    180.000000000000      7.295209241758                 2
   284   301   279   283     4    180.000000000000      7.295209241758                 2
   106   105   107   124     4    180.000000000000      7.295209241758                 2
   317   336   316   318     4    180.000000000000      7.295209241758                 2
   154   171   177   153     4    180.000000000000      1.752067434103                 2
   225   247   224   226     4    180.000000000000      7.295209241758                 2
   186   185   187   189     4    180.000000000000      7.295209241758                 2
   242   259   265   241     4    180.000000000000      1.752067434103                 2
   282   283   300   281     4    180.000000000000      7.295209241758                 2
   279   280   284   272     4    180.000000000000      7.295209241758                 2
     3    25     1     4     4    180.000000000000      7.295209241758                 2
    25    24    44     3     4    180.000000000000      7.295209241758                 2
    25     3    24    44     4    180.000000000000      7.295209241758                 2
   193   192   194   211     4    180.000000000000      7.295209241758                 2
   270   269   271   288     4    180.000000000000      7.295209241758                 2
    98    97    99   101     4    180.000000000000      7.295209241758                 2
     9     8    10    28     4    180.000000000000      7.295209241758                 2
    10    11    13     9     4    180.000000000000      7.295209241758                 2
   309   311   286   310     4    180.000000000000      7.295209241758                 2
   322   315   321   341     4    180.000000000000      7.295209241758                 2
   184   185   191   183     4    180.000000000000      7.295209241758                 2
    22    39    45    21     4    180.000000000000      1.752067434103                 2
   113    91   112   132     4    180.000000000000      7.295209241758                 2
   138   156   137   139     4    180.000000000000      7.295209241758                 2
   227   234   226   228     4    180.000000000000      7.295209241758                 2
   136   137   158   135     4    180.000000000000      7.295209241758                 2
    54    53    55    57     4    180.000000000000      7.295209241758                 2
   177   154   178   179     4    180.000000000000      7.295209241758                 2
   277   274   278   296     4    180.000000000000      7.295209241758                 2
   152   169   147   151     4    180.000000000000      7.295209241758                 2
   193   211   192   194     4    180.000000000000      7.295209241758                 2
    53    72    52    54     4    180.000000000000      7.295209241758                 2
    60    59    61    78     4    180.000000000000      7.295209241758                 2
   272   273   279   271     4    180.000000000000      7.295209241758                 2
   201   220   179   200     4    180.000000000000      7.295209241758                 2
   326   344   325   327     4    180.000000000000      7.295209241758                 2
   112   113   131    94     4    180.000000000000      7.295209241758                 2
   279   284   272   280     4    180.000000000000      7.295209241758                 2
   239   240   241   238     4    180.000000000000      7.295209241758                 2
   157   176   135   156     4    180.000000000000      7.295209241758                 2
   244   245   263   226     4    180.000000000000      7.295209241758                 2
   149   167   148   150     4    180.000000000000      7.295209241758                 2
   104   122   103   105     4    180.000000000000      7.295209241758                 2
    59    64    52    60     4    180.000000000000      7.295209241758                 2
    51    50    52    58     4    180.000000000000      7.295209241758                 2
   273   274   292   272     4    180.000000000000      7.295209241758                 2
     5    27     4     6     4    180.000000000000      7.295209241758                 2
   289   308   267   288     4    180.000000000000      7.295209241758                 2
   269   291   268   270     4    180.000000000000      7.295209241758                 2
    15     8    16    20     4    180.000000000000      7.295209241758                 2
   113   112   132    91     4    180.000000000000      7.295209241758                 2
   223   224   245   221     4    180.000000000000      7.295209241758                 2
   196   195   213   191     4    180.000000000000      7.295209241758                 2
   312   313   334   311     4    180.000000000000      7.295209241758                 2
   332   351   314   333     4    180.000000000000      7.295209241758                 2
   288   289   307   270     4    180.000000000000      7.295209241758                 2
    68    87    50    69     4    180.000000000000      7.295209241758                 2
   245   223   244   264     4    180.000000000000      7.295209241758                 2
   278   277   297   271     4    180.000000000000      7.295209241758                 2
   223   221   224   245     4    180.000000000000      7.295209241758                 2
   234   233   253   227     4    180.000000000000      7.295209241758                 2
   237   236   238   255     4    180.000000000000      7.295209241758                 2
   325   324   326   343     4    180.000000000000      7.295209241758                 2
    48    70    47    49     4    180.000000000000      7.295209241758                 2
   135   133   136   157     4    180.000000000000      7.295209241758                 2
    15    16    20     8     4    180.000000000000      7.295209241758                 2
    62    61    63    80     4    180.000000000000      7.295209241758                 2
   189   190   208   186     4    180.000000000000      7.295209241758                 2
   228   235   227   229     4    180.000000000000      7.295209241758                 2
   333   352   311   332     4    180.000000000000      7.295209241758                 2
   270   271   288   269     4    180.000000000000      7.295209241758                 2
    14    13    33     7     4    180.000000000000      7.295209241758                 2
   333   332   352   311     4    180.000000000000      7.295209241758                 2
   237   255   236   238     4    180.000000000000      7.295209241758                 2
   312   311   313   334     4    180.000000000000      7.295209241758                 2
   363   330   362   364     4    180.000000000000     18.013091641645                 2
   198   221   197   215     4    180.000000000000      1.752067434103                 2
    59    52    60    64     4    180.000000000000      7.295209241758                 2
   177   178   179   154     4    180.000000000000      7.295209241758                 2
   101   102   120    98     4    180.000000000000      7.295209241758                 2
    58    57    77    51     4    180.000000000000      7.295209241758                 2
   196   191   195   213     4    180.000000000000      7.295209241758                 2
   139   138   140   146     4    180.000000000000      7.295209241758                 2
    89    90    91    66     4    180.000000000000      7.295209241758                 2
   181   180   182   203     4    180.000000000000      7.295209241758                 2
   270   288   269   271     4    180.000000000000      7.295209241758                 2
   279   272   280   284     4    180.000000000000      7.295209241758                 2
    93    94   115    92     4    180.000000000000      7.295209241758                 2
     9    28     8    10     4    180.000000000000      7.295209241758                 2
   271   278   270   272     4    180.000000000000      7.295209241758                 2
   240   257   235   239     4    180.000000000000      7.295209241758                 2
   323   316   324   328     4    180.000000000000      7.295209241758                 2
   265   242   266   267     4    180.000000000000      7.295209241758                 2
   138   137   139   156     4    180.000000000000      7.295209241758                 2
   238   256   237   239     4    180.000000000000      7.295209241758                 2
   323   324   328   316     4    180.000000000000      7.295209241758                 2
     1   354     2     3     4    180.000000000000     18.013091641645                 2
   146   139   145   165     4    180.000000000000      7.295209241758                 2
    17    18    35    16     4    180.000000000000      7.295209241758                 2
    69    68    88    47     4    180.000000000000      7.295209241758                 2
   193   194   211   192     4    180.000000000000      7.295209241758                 2
    57    76    54    58     4    180.000000000000      7.295209241758                 2
   185   184   186   204     4    180.000000000000      7.295209241758                 2
   309   286   310   311     4    180.000000000000      7.295209241758                 2
   152   151   169   147     4    180.000000000000      7.295209241758                 2
    16    15    17    34     4    180.000000000000      7.295209241758                 2
    59    60    64    52     4    180.000000000000      7.295209241758                 2
   286   285   303   309     4    180.000000000000      1.752067434103                 2
   151   153   150   152     4    180.000000000000      7.295209241758                 2
   274   275   277   273     4    180.000000000000      7.295209241758                 2
   317   318   336   316     4    180.000000000000      7.295209241758                 2
     1     2     3   354     4    180.000000000000     18.013091641645                 2
    51    58    50    52     4    180.000000000000      7.295209241758                 2
   330   329   347   363     4    180.000000000000      1.752067434103                 2
   332   314   333   351     4    180.000000000000      7.295209241758                 2
   240   239   257   235     4    180.000000000000      7.295209241758                 2
    19    18    20    21     4    180.000000000000      7.295209241758                 2
   325   343   324   326     4    180.000000000000      7.295209241758                 2
    92    91    93   114     4    180.000000000000      7.295209241758                 2
    53    52    54    72     4    180.000000000000      7.295209241758                 2
    64    59    63    81     4    180.000000000000      7.295209241758                 2
    94   112    93    95     4    180.000000000000      7.295209241758                 2
   182   181   183   200     4    180.000000000000      7.295209241758                 2
   332   333   351   314     4    180.000000000000      7.295209241758                 2
   156   175   138   157     4    180.000000000000      7.295209241758                 2
     8     9    15     7     4    180.000000000000      7.295209241758                 2
    69    88    47    68     4    180.000000000000      7.295209241758                 2
   236   254   235   237     4    180.000000000000      7.295209241758                 2
    47    45    48    69     4    180.000000000000      7.295209241758                 2
   274   277   273   275     4    180.000000000000      7.295209241758                 2
    54    57    53    55     4    180.000000000000      7.295209241758                 2
     8    15     7     9     4    180.000000000000      7.295209241758                 2
   198   197   215   221     4    180.000000000000      1.752067434103                 2
   316   315   317   323     4    180.000000000000      7.295209241758                 2
   226   225   227   244     4    180.000000000000      7.295209241758                 2
    61    62    79    60     4    180.000000000000      7.295209241758                 2
     6     7    24     5     4    180.000000000000      7.295209241758                 2
   282   300   281   283     4    180.000000000000      7.295209241758                 2
   106   107   124   105     4    180.000000000000      7.295209241758                 2
   140   139   141   147     4    180.000000000000      7.295209241758                 2
     7    14     6     8     4    180.000000000000      7.295209241758                 2
    95    96   102    94     4    180.000000000000      7.295209241758                 2
   194   195   212   193     4    180.000000000000      7.295209241758                 2
   280   279   281   298     4    180.000000000000      7.295209241758                 2
   235   228   236   240     4    180.000000000000      7.295209241758                 2
    63    62    64    65     4    180.000000000000      7.295209241758                 2
   136   135   137   158     4    180.000000000000      7.295209241758                 2
   324   323   325   342     4    180.000000000000      7.295209241758                 2
    66    65    83    89     4    180.000000000000      1.752067434103                 2
     3     1     4    25     4    180.000000000000      7.295209241758                 2
    20    19    37    15     4    180.000000000000      7.295209241758                 2
   105   123   104   106     4    180.000000000000      7.295209241758                 2
   265   267   242   266     4    180.000000000000      7.295209241758                 2
   157   135   156   176     4    180.000000000000      7.295209241758                 2
   149   150   167   148     4    180.000000000000      7.295209241758                 2
   273   292   272   274     4    180.000000000000      7.295209241758                 2
   363   364   330   362     4    180.000000000000     18.013091641645                 2
    10    13     9    11     4    180.000000000000      7.295209241758                 2
    19    20    21    18     4    180.000000000000      7.295209241758                 2
   195   196   197   194     4    180.000000000000      7.295209241758                 2
   323   328   316   324     4    180.000000000000      7.295209241758                 2
   283   284   285   282     4    180.000000000000      7.295209241758                 2
   284   283   301   279     4    180.000000000000      7.295209241758                 2
    68    50    69    87     4    180.000000000000      7.295209241758                 2
   242   265   241   259     4    180.000000000000      1.752067434103                 2
   107   109   106   108     4    180.000000000000      7.295209241758                 2
    64    81    59    63     4    180.000000000000      7.295209241758                 2
   289   288   308   267     4    180.000000000000      7.295209241758                 2
    52    51    53    59     4    180.000000000000      7.295209241758                 2

[ settles ]
;i  funct   dOH  dHH


[ exclusions ]
;ai    aj

[ moleculetype ]
TCM	         3

[ atoms ]
;index, atom type, resnum, resname, name, cgnr, charge, mass
     1 TCM_0        1 TCM      c1         1      0.224379999936     12.010780000000
     2 TCM_1        1 TCM      cl1        1     -0.114630000293     35.453200000000
     3 TCM_2        1 TCM      cl2        1     -0.114630000293     35.453200000000
     4 TCM_3        1 TCM      h1         1      0.119510000944      1.007947000000
     5 TCM_4        1 TCM      cl3        1     -0.114630000293     35.453200000000

[ pairs ]
;ai    aj   funct

[ bonds ]
;ai    aj   funct r k
     1      2      1      0.179482617418  173885.040698109922 
     1      3      1      0.179482617418  173885.040698109922 
     1      4      1      0.109288837838  317186.185378679947 
     1      5      1      0.179482617418  173885.040698109922 

[ angles ]
;ai    aj   ak   funct theta  k
     2      1      3      1     107.660782175200     425.669014814353 
     2      1      4      1     107.660782175200     425.669014814353 
     2      1      5      1     107.660782175200     425.669014814353 
     3      1      4      1     107.660782175200     425.669014814353 
     3      1      5      1     107.660782175200     425.669014814353 
     4      1      5      1     107.660782175200     425.669014814353 

[ dihedrals ]
;ai    aj   ak   al   funct phi  k

[ settles ]
;i  funct   dOH  dHH


[ exclusions ]
;ai    aj


[ system ]
;name
FOO

[ molecules ]
;name	number
em_helix_mop_octamer	1
TCM	634

