GROwing Monsters And Cloning Shrimps
 3543
    1MOP     C1    1   3.484   3.357   3.555
    1MOP     O1    2   3.575   3.352   3.473
    1MOP     C2    3   3.484   3.260   3.668
    1MOP     C3    4   3.405   3.285   3.783
    1MOP     C4    5   3.418   3.203   3.898
    1MOP     C5    6   3.510   3.095   3.900
    1MOP     C6    7   3.542   3.028   4.029
    1MOP     C7    8   3.570   2.888   4.043
    1MOP     C8    9   3.612   2.837   4.168
    1MOP     C9   10   3.624   2.921   4.280
    1MOP     O2   11   3.666   2.861   4.399
    1MOP    C10   12   3.677   2.945   4.517
    1MOP    C11   13   3.593   3.058   4.269
    1MOP    C12   14   3.553   3.110   4.144
    1MOP    C13   15   3.549   2.789   3.934
    1MOP    C14   16   3.650   2.694   3.906
    1MOP    C15   17   3.625   2.588   3.816
    1MOP    C16   18   3.499   2.576   3.755
    1MOP    C17   19   3.396   2.669   3.782
    1MOP    C18   20   3.424   2.778   3.869
    1MOP    C19   21   3.260   2.651   3.714
    1MOP     N1   22   3.262   2.714   3.582
    1MOP    C20   23   3.143   2.714   3.795
    1MOP    C21   24   3.582   3.065   3.782
    1MOP    C22   25   3.570   3.147   3.667
    1MOP     H1   26   3.337   3.369   3.786
    1MOP     H2   27   3.359   3.227   3.986
    1MOP     H3   28   3.634   2.732   4.180
    1MOP     H4   29   3.710   2.884   4.602
    1MOP     H5   30   3.580   2.988   4.543
    1MOP     H6   31   3.750   3.024   4.502
    1MOP     H7   32   3.600   3.126   4.352
    1MOP     H8   33   3.534   3.217   4.138
    1MOP     H9   34   3.747   2.701   3.954
    1MOP    H10   35   3.704   2.516   3.794
    1MOP    H11   36   3.480   2.492   3.688
    1MOP    H12   37   3.348   2.852   3.893
    1MOP    H13   38   3.240   2.544   3.705
    1MOP    H14   39   3.269   2.815   3.585
    1MOP    H15   40   3.150   2.823   3.795
    1MOP    H16   41   3.143   2.676   3.897
    1MOP    H17   42   3.047   2.687   3.747
    1MOP    H18   43   3.655   2.984   3.780
    1MOP    H19   44   3.630   3.125   3.580
    2MOP    C23   45   3.348   2.673   3.483
    2MOP     O3   46   3.426   2.760   3.444
    2MOP    C24   47   3.346   2.538   3.420
    2MOP    C25   48   3.237   2.450   3.438
    2MOP    C26   49   3.235   2.324   3.376
    2MOP    C27   50   3.341   2.283   3.290
    2MOP    C28   51   3.341   2.145   3.232
    2MOP    C29   52   3.386   2.115   3.099
    2MOP    C30   53   3.392   1.982   3.056
    2MOP    C31   54   3.352   1.875   3.139
    2MOP     O4   55   3.361   1.746   3.086
    2MOP    C32   56   3.320   1.636   3.171
    2MOP    C33   57   3.304   1.904   3.269
    2MOP    C34   58   3.299   2.038   3.315
    2MOP    C35   59   3.421   2.219   2.998
    2MOP    C36   60   3.554   2.233   2.955
    2MOP    C37   61   3.586   2.323   2.851
    2MOP    C38   62   3.484   2.396   2.787
    2MOP    C39   63   3.349   2.381   2.826
    2MOP    C40   64   3.318   2.293   2.934
    2MOP    C41   65   3.241   2.459   2.751
    2MOP     N2   66   3.235   2.593   2.810
    2MOP    C42   67   3.102   2.392   2.758
    2MOP    C43   68   3.449   2.372   3.271
    2MOP    C44   69   3.451   2.497   3.335
    2MOP    H20   70   3.151   2.480   3.500
    2MOP    H21   71   3.150   2.258   3.392
    2MOP    H22   72   3.425   1.959   2.955
    2MOP    H23   73   3.333   1.541   3.118
    2MOP    H24   74   3.215   1.644   3.199
    2MOP    H25   75   3.383   1.632   3.261
    2MOP    H26   76   3.272   1.826   3.337
    2MOP    H27   77   3.266   2.056   3.416
    2MOP    H28   78   3.632   2.173   3.001
    2MOP    H29   79   3.690   2.334   2.819
    2MOP    H30   80   3.510   2.465   2.707
    2MOP    H31   81   3.217   2.279   2.969
    2MOP    H32   82   3.270   2.466   2.645
    2MOP    H33   83   3.254   2.599   2.910
    2MOP    H34   84   3.061   2.396   2.859
    2MOP    H35   85   3.107   2.288   2.725
    2MOP    H36   86   3.032   2.445   2.691
    2MOP    H37   87   3.533   2.343   3.207
    2MOP    H38   88   3.536   2.563   3.316
    3MOP    C45   89   3.271   2.708   2.744
    3MOP     O5   90   3.313   2.799   2.814
    3MOP    C46   91   3.230   2.738   2.606
    3MOP    C47   92   3.097   2.716   2.564
    3MOP    C48   93   3.054   2.762   2.438
    3MOP    C49   94   3.144   2.832   2.354
    3MOP    C50   95   3.095   2.889   2.226
    3MOP    C51   96   3.108   3.028   2.194
    3MOP    C52   97   3.070   3.071   2.064
    3MOP    C53   98   3.023   2.981   1.967
    3MOP     O6   99   2.992   3.034   1.842
    3MOP    C54  100   2.948   2.941   1.739
    3MOP    C55  101   3.010   2.844   2.001
    3MOP    C56  102   3.046   2.799   2.129
    3MOP    C57  103   3.161   3.130   2.292
    3MOP    C58  104   3.254   3.227   2.246
    3MOP    C59  105   3.308   3.321   2.336
    3MOP    C60  106   3.270   3.320   2.471
    3MOP    C61  107   3.177   3.224   2.520
    3MOP    C62  108   3.120   3.133   2.427
    3MOP    C63  109   3.140   3.221   2.671
    3MOP     N3  110   3.253   3.268   2.754
    3MOP    C64  111   3.111   3.076   2.718
    3MOP    C65  112   3.277   2.850   2.394
    3MOP    C66  113   3.321   2.805   2.520
    3MOP    H39  114   3.026   2.669   2.631
    3MOP    H40  115   2.951   2.748   2.407
    3MOP    H41  116   3.078   3.176   2.037
    3MOP    H42  117   2.930   2.995   1.646
    3MOP    H43  118   2.855   2.891   1.769
    3MOP    H44  119   3.026   2.866   1.719
    3MOP    H45  120   2.973   2.771   1.929
    3MOP    H46  121   3.038   2.693   2.153
    3MOP    H47  122   3.287   3.227   2.143
    3MOP    H48  123   3.380   3.393   2.300
    3MOP    H49  124   3.316   3.393   2.537
    3MOP    H50  125   3.046   3.061   2.459
    3MOP    H51  126   3.050   3.279   2.690
    3MOP    H52  127   3.323   3.200   2.777
    3MOP    H53  128   3.196   3.011   2.694
    3MOP    H54  129   3.020   3.036   2.673
    3MOP    H55  130   3.097   3.073   2.827
    3MOP    H56  131   3.346   2.905   2.329
    3MOP    H57  132   3.422   2.825   2.554
    4MOP    C67  133   3.283   3.392   2.810
    4MOP     O7  134   3.382   3.388   2.882
    4MOP    C68  135   3.209   3.523   2.796
    4MOP    C69  136   3.102   3.545   2.706
    4MOP    C70  137   3.035   3.670   2.704
    4MOP    C71  138   3.076   3.778   2.787
    4MOP    C72  139   3.004   3.910   2.782
    4MOP    C73  140   2.995   4.000   2.894
    4MOP    C74  141   2.929   4.124   2.879
    4MOP    C75  142   2.867   4.161   2.759
    4MOP     O8  143   2.803   4.284   2.756
    4MOP    C76  144   2.733   4.322   2.634
    4MOP    C77  145   2.872   4.071   2.649
    4MOP    C78  146   2.940   3.949   2.661
    4MOP    C79  147   3.045   3.967   3.030
    4MOP    C80  148   3.139   4.052   3.093
    4MOP    C81  149   3.186   4.023   3.223
    4MOP    C82  150   3.138   3.909   3.291
    4MOP    C83  151   3.042   3.826   3.230
    4MOP    C84  152   2.997   3.854   3.099
    4MOP    C85  153   2.985   3.708   3.310
    4MOP     N4  154   3.050   3.584   3.265
    4MOP    C86  155   2.832   3.694   3.293
    4MOP    C87  156   3.190   3.758   2.867
    4MOP    C88  157   3.254   3.633   2.874
    4MOP    H58  158   3.069   3.471   2.635
    4MOP    H59  159   2.949   3.679   2.638
    4MOP    H60  160   2.921   4.192   2.964
    4MOP    H61  161   2.686   4.419   2.647
    4MOP    H62  162   2.655   4.249   2.611
    4MOP    H63  163   2.803   4.329   2.550
    4MOP    H64  164   2.826   4.095   2.555
    4MOP    H65  165   2.944   3.886   2.573
    4MOP    H66  166   3.177   4.141   3.041
    4MOP    H67  167   3.260   4.088   3.270
    4MOP    H68  168   3.174   3.888   3.392
    4MOP    H69  169   2.923   3.790   3.050
    4MOP    H70  170   3.006   3.725   3.416
    4MOP    H71  171   3.053   3.563   3.166
    4MOP    H72  172   2.806   3.664   3.192
    4MOP    H73  173   2.783   3.788   3.318
    4MOP    H74  174   2.794   3.617   3.362
    4MOP    H75  175   3.233   3.838   2.926
    4MOP    H76  176   3.339   3.623   2.940
    5MOP    C89  177   3.093   3.483   3.351
    5MOP     O9  178   3.070   3.495   3.470
    5MOP    C90  179   3.149   3.355   3.297
    5MOP    C91  180   3.151   3.327   3.159
    5MOP    C92  181   3.189   3.199   3.113
    5MOP    C93  182   3.232   3.100   3.204
    5MOP    C94  183   3.227   2.958   3.165
    5MOP    C95  184   3.340   2.875   3.139
    5MOP    C96  185   3.319   2.736   3.120
    5MOP    C97  186   3.191   2.678   3.127
    5MOP    O10  187   3.181   2.541   3.108
    5MOP    C98  188   3.051   2.480   3.128
    5MOP    C99  189   3.079   2.761   3.151
    5MOP   C100  190   3.098   2.900   3.169
    5MOP   C101  191   3.481   2.927   3.128
    5MOP   C102  192   3.586   2.854   3.186
    5MOP   C103  193   3.721   2.891   3.167
    5MOP   C104  194   3.751   3.002   3.085
    5MOP   C105  195   3.648   3.075   3.024
    5MOP   C106  196   3.511   3.039   3.048
    5MOP   C107  197   3.686   3.189   2.930
    5MOP     N5  198   3.655   3.318   2.992
    5MOP   C108  199   3.617   3.176   2.793
    5MOP   C109  200   3.242   3.131   3.341
    5MOP   C110  201   3.200   3.258   3.388
    5MOP    H77  202   3.114   3.399   3.085
    5MOP    H78  203   3.181   3.174   3.008
    5MOP    H79  204   3.404   2.672   3.098
    5MOP    H80  205   3.059   2.372   3.118
    5MOP    H81  206   2.979   2.517   3.056
    5MOP    H82  207   3.014   2.501   3.230
    5MOP    H83  208   2.978   2.724   3.156
    5MOP    H84  209   3.012   2.962   3.192
    5MOP    H85  210   3.566   2.767   3.247
    5MOP    H86  211   3.802   2.835   3.214
    5MOP    H87  212   3.855   3.031   3.071
    5MOP    H88  213   3.432   3.095   2.999
    5MOP    H89  214   3.794   3.185   2.912
    5MOP    H90  215   3.564   3.360   2.971
    5MOP    H91  216   3.509   3.173   2.802
    5MOP    H92  217   3.649   3.083   2.743
    5MOP    H93  218   3.644   3.260   2.729
    5MOP    H94  219   3.273   3.055   3.411
    5MOP    H95  220   3.201   3.278   3.494
    6MOP   C111  221   3.735   3.379   3.086
    6MOP    O11  222   3.842   3.326   3.118
    6MOP   C112  223   3.703   3.515   3.139
    6MOP   C113  224   3.572   3.568   3.129
    6MOP   C114  225   3.546   3.702   3.169
    6MOP   C115  226   3.651   3.784   3.219
    6MOP   C116  227   3.626   3.929   3.247
    6MOP   C117  228   3.685   4.001   3.355
    6MOP   C118  229   3.664   4.141   3.364
    6MOP   C119  230   3.587   4.211   3.269
    6MOP    O12  231   3.576   4.349   3.285
    6MOP   C120  232   3.503   4.423   3.184
    6MOP   C121  233   3.526   4.139   3.164
    6MOP   C122  234   3.545   4.000   3.154
    6MOP   C123  235   3.769   3.939   3.463
    6MOP   C124  236   3.886   4.004   3.508
    6MOP   C125  237   3.963   3.950   3.612
    6MOP   C126  238   3.924   3.830   3.674
    6MOP   C127  239   3.805   3.764   3.632
    6MOP   C128  240   3.729   3.818   3.527
    6MOP   C129  241   3.764   3.637   3.707
    6MOP     N6  242   3.795   3.516   3.629
    6MOP   C130  243   3.615   3.639   3.747
    6MOP   C131  244   3.781   3.728   3.232
    6MOP   C132  245   3.806   3.595   3.194
    6MOP    H96  246   3.490   3.507   3.091
    6MOP    H97  247   3.446   3.741   3.159
    6MOP    H98  248   3.706   4.199   3.445
    6MOP    H99  249   3.505   4.530   3.208
    6MOP   H100  250   3.398   4.391   3.180
    6MOP   H101  251   3.549   4.409   3.085
    6MOP   H102  252   3.466   4.187   3.088
    6MOP   H103  253   3.501   3.948   3.069
    6MOP   H104  254   3.919   4.097   3.461
    6MOP   H105  255   4.052   4.001   3.647
    6MOP   H106  256   3.985   3.789   3.753
    6MOP   H107  257   3.637   3.770   3.494
    6MOP   H108  258   3.820   3.633   3.801
    6MOP   H109  259   3.722   3.471   3.574
    6MOP   H110  260   3.550   3.644   3.659
    6MOP   H111  261   3.593   3.727   3.810
    6MOP   H112  262   3.590   3.549   3.804
    6MOP   H113  263   3.864   3.789   3.267
    6MOP   H114  264   3.907   3.556   3.202
    7MOP   C133  265   3.912   3.446   3.645
    7MOP    O13  266   4.009   3.501   3.698
    7MOP   C134  267   3.923   3.305   3.604
    7MOP   C135  268   3.871   3.257   3.481
    7MOP   C136  269   3.871   3.120   3.453
    7MOP   C137  270   3.925   3.027   3.545
    7MOP   C138  271   3.919   2.882   3.522
    7MOP   C139  272   4.034   2.799   3.530
    7MOP   C140  273   4.021   2.659   3.528
    7MOP   C141  274   3.894   2.598   3.515
    7MOP    O14  275   3.890   2.459   3.514
    7MOP   C142  276   3.763   2.396   3.487
    7MOP   C143  277   3.779   2.680   3.505
    7MOP   C144  278   3.792   2.820   3.508
    7MOP   C145  279   4.172   2.856   3.538
    7MOP   C146  280   4.267   2.803   3.629
    7MOP   C147  281   4.397   2.855   3.635
    7MOP   C148  282   4.436   2.960   3.549
    7MOP   C149  283   4.344   3.013   3.457
    7MOP   C150  284   4.212   2.962   3.451
    7MOP   C151  285   4.389   3.126   3.363
    7MOP     N7  286   4.361   3.256   3.426
    7MOP   C152  287   4.319   3.123   3.225
    7MOP   C153  288   3.981   3.075   3.666
    7MOP   C154  289   3.982   3.213   3.694
    7MOP   H115  290   3.826   3.327   3.409
    7MOP   H116  291   3.827   3.085   3.359
    7MOP   H117  292   4.107   2.594   3.533
    7MOP   H118  293   3.775   2.286   3.487
    7MOP   H119  294   3.727   2.425   3.387
    7MOP   H120  295   3.688   2.421   3.562
    7MOP   H121  296   3.678   2.639   3.497
    7MOP   H122  297   3.701   2.882   3.504
    7MOP   H123  298   4.238   2.723   3.697
    7MOP   H124  299   4.469   2.816   3.707
    7MOP   H125  300   4.536   3.000   3.553
    7MOP   H126  301   4.139   3.001   3.381
    7MOP   H127  302   4.496   3.114   3.346
    7MOP   H128  303   4.264   3.280   3.444
    7MOP   H129  304   4.213   3.148   3.235
    7MOP   H130  305   4.328   3.023   3.180
    7MOP   H131  306   4.365   3.196   3.158
    7MOP   H132  307   4.024   3.005   3.738
    7MOP   H133  308   4.024   3.247   3.788
    8MOP   C155  309   4.456   3.354   3.449
    8MOP    O15  310   4.574   3.329   3.427
    8MOP   C156  311   4.415   3.492   3.489
    8MOP   C157  312   4.280   3.533   3.485
    8MOP   C158  313   4.246   3.669   3.508
    8MOP   C159  314   4.346   3.764   3.536
    8MOP   C160  315   4.311   3.908   3.547
    8MOP   C161  316   4.343   3.986   3.662
    8MOP   C162  317   4.316   4.125   3.660
    8MOP   C163  318   4.260   4.188   3.548
    8MOP    O16  319   4.235   4.324   3.557
    8MOP   C164  320   4.174   4.389   3.443
    8MOP   C165  321   4.230   4.110   3.433
    8MOP   C166  322   4.256   3.971   3.434
    8MOP   C167  323   4.399   3.927   3.787
    8MOP   C168  324   4.504   3.992   3.856
    8MOP   C169  325   4.557   3.937   3.974
    8MOP   C170  326   4.506   3.815   4.024
    8MOP   C171  327   4.399   3.750   3.960
    8MOP   C172  328   4.346   3.806   3.841
    8MOP   C173  329   4.349   3.616   4.013
    8MOP     N8  330   4.399   3.509   3.928
    8MOP   C174  331   4.194   3.610   4.018
    8MOP   C175  332   4.480   3.723   3.546
    8MOP   C176  333   4.515   3.587   3.523
    8MOP   H134  334   4.200   3.464   3.462
    8MOP   H135  335   4.141   3.699   3.503
    8MOP   H136  336   4.337   4.186   3.748
    8MOP   H137  337   4.161   4.496   3.465
    8MOP   H138  338   4.076   4.346   3.422
    8MOP   H139  339   4.239   4.382   3.355
    8MOP   H140  340   4.188   4.153   3.343
    8MOP   H141  341   4.235   3.912   3.345
    8MOP   H142  342   4.546   4.084   3.817
    8MOP   H143  343   4.640   3.986   4.025
    8MOP   H144  344   4.551   3.771   4.113
    8MOP   H145  345   4.265   3.756   3.789
    8MOP   H146  346   4.386   3.604   4.115
    8MOP   H147  347   4.355   3.492   3.838
    8MOP   H148  348   4.152   3.612   3.917
    8MOP   H149  349   4.154   3.694   4.075
    8MOP   H150  350   4.162   3.517   4.066
    8MOP   H151  351   4.558   3.795   3.568
    8MOP   H152  352   4.620   3.558   3.527
    9CAP   C177  353   3.400   3.551   3.443
    9CAP    O17  354   3.392   3.458   3.555
    9CAP   H153  355   3.498   3.599   3.439
    9CAP   H154  356   3.324   3.629   3.453
    9CAP   H155  357   3.385   3.497   3.349
   10CAP   C178  358   4.672   3.173   3.751
   10CAP   C179  359   4.681   3.286   3.856
   10CAP   C180  360   4.713   3.218   3.992
   10CAP   C181  361   4.793   3.383   3.811
   10CAP    O18  362   4.549   3.349   3.853
   10CAP   C182  363   4.522   3.451   3.941
   10CAP    O19  364   4.597   3.490   4.029
   10CAP   H156  365   4.767   3.119   3.743
   10CAP   H157  366   4.594   3.102   3.778
   10CAP   H158  367   4.648   3.215   3.653
   10CAP   H159  368   4.627   3.162   4.029
   10CAP   H160  369   4.741   3.293   4.068
   10CAP   H161  370   4.797   3.149   3.982
   10CAP   H162  371   4.766   3.430   3.716
   10CAP   H163  372   4.808   3.461   3.886
   10CAP   H164  373   4.886   3.329   3.799
    1TCM     c1  374   4.358   0.337   2.674
    1TCM    cl1  375   4.267   0.184   2.683
    1TCM    cl2  376   4.291   0.453   2.791
    1TCM     h1  377   4.465   0.318   2.698
    1TCM    cl3  378   4.345   0.404   2.510
    1TCM     c1  379   2.077   2.839   3.747
    1TCM    cl1  380   2.133   2.882   3.910
    1TCM    cl2  381   2.143   2.681   3.701
    1TCM     h1  382   1.966   2.835   3.746
    1TCM    cl3  383   2.132   2.963   3.631
    1TCM     c1  384   2.003   2.402   1.062
    1TCM    cl1  385   1.956   2.408   0.891
    1TCM    cl2  386   1.880   2.313   1.155
    1TCM     h1  387   2.101   2.350   1.072
    1TCM    cl3  388   2.018   2.567   1.126
    1TCM     c1  389   2.642   1.150   3.898
    1TCM    cl1  390   2.654   1.003   3.798
    1TCM    cl2  391   2.546   1.273   3.811
    1TCM     h1  392   2.592   1.126   3.994
    1TCM    cl3  393   2.805   1.214   3.930
    1TCM     c1  394   2.196   1.863   2.514
    1TCM    cl1  395   2.246   1.692   2.520
    1TCM    cl2  396   2.341   1.967   2.512
    1TCM     h1  397   2.136   1.881   2.423
    1TCM    cl3  398   2.099   1.901   2.658
    1TCM     c1  399   5.026   1.294   0.554
    1TCM    cl1  400   4.924   1.387   0.443
    1TCM    cl2  401   4.992   1.120   0.534
    1TCM     h1  402   5.133   1.313   0.531
    1TCM    cl3  403   4.991   1.342   0.722
    1TCM     c1  404   2.861   0.557   2.399
    1TCM    cl1  405   2.788   0.666   2.520
    1TCM    cl2  406   2.885   0.646   2.247
    1TCM     h1  407   2.958   0.521   2.437
    1TCM    cl3  408   2.752   0.419   2.371
    1TCM     c1  409   3.738   4.179   4.828
    1TCM    cl1  410   3.853   4.212   4.959
    1TCM    cl2  411   3.805   4.240   4.674
    1TCM     h1  412   3.721   4.070   4.820
    1TCM    cl3  413   3.584   4.261   4.862
    1TCM     c1  414   0.766   4.146   3.471
    1TCM    cl1  415   0.746   4.209   3.636
    1TCM    cl2  416   0.940   4.139   3.432
    1TCM     h1  417   0.723   4.044   3.465
    1TCM    cl3  418   0.684   4.253   3.356
    1TCM     c1  419   4.024   1.344   2.494
    1TCM    cl1  420   3.933   1.262   2.365
    1TCM    cl2  421   4.198   1.311   2.474
    1TCM     h1  422   4.006   1.453   2.488
    1TCM    cl3  423   3.970   1.283   2.652
    1TCM     c1  424   5.031   3.092   4.547
    1TCM    cl1  425   4.940   3.181   4.423
    1TCM    cl2  426   4.925   3.056   4.685
    1TCM     h1  427   5.069   2.997   4.503
    1TCM    cl3  428   5.169   3.190   4.602
    1TCM     c1  429   0.523   2.839   1.455
    1TCM    cl1  430   0.368   2.880   1.532
    1TCM    cl2  431   0.498   2.706   1.339
    1TCM     h1  432   0.563   2.928   1.402
    1TCM    cl3  433   0.639   2.787   1.580
    1TCM     c1  434   1.543   1.993   2.379
    1TCM    cl1  435   1.707   1.946   2.428
    1TCM    cl2  436   1.467   1.860   2.290
    1TCM     h1  437   1.482   2.017   2.469
    1TCM    cl3  438   1.551   2.137   2.274
    1TCM     c1  439   4.295   4.390   0.707
    1TCM    cl1  440   4.315   4.270   0.836
    1TCM    cl2  441   4.442   4.490   0.696
    1TCM     h1  442   4.278   4.339   0.611
    1TCM    cl3  443   4.156   4.495   0.744
    1TCM     c1  444   2.642   5.276   3.842
    1TCM    cl1  445   2.751   5.340   3.717
    1TCM    cl2  446   2.691   5.110   3.884
    1TCM     h1  447   2.647   5.340   3.932
    1TCM    cl3  448   2.476   5.274   3.779
    1TCM     c1  449   2.422   1.913   3.072
    1TCM    cl1  450   2.501   1.757   3.103
    1TCM    cl2  451   2.252   1.886   3.028
    1TCM     h1  452   2.427   1.976   3.163
    1TCM    cl3  453   2.505   1.996   2.938
    1TCM     c1  454   0.690   3.100   4.998
    1TCM    cl1  455   0.633   3.212   4.872
    1TCM    cl2  456   0.551   3.019   5.073
    1TCM     h1  457   0.757   3.024   4.953
    1TCM    cl3  458   0.779   3.191   5.122
    1TCM     c1  459   4.626   3.652   2.314
    1TCM    cl1  460   4.476   3.738   2.273
    1TCM    cl2  461   4.698   3.726   2.459
    1TCM     h1  462   4.604   3.545   2.335
    1TCM    cl3  463   4.741   3.664   2.179
    1TCM     c1  464   5.273   3.410   5.095
    1TCM    cl1  465   5.109   3.418   5.164
    1TCM    cl2  466   5.266   3.448   4.922
    1TCM     h1  467   5.338   3.484   5.147
    1TCM    cl3  468   5.340   3.247   5.118
    1TCM     c1  469   2.138   1.027   3.549
    1TCM    cl1  470   2.150   0.898   3.427
    1TCM    cl2  471   2.132   0.956   3.711
    1TCM     h1  472   2.226   1.094   3.541
    1TCM    cl3  473   1.990   1.121   3.520
    1TCM     c1  474   1.256   2.194   2.766
    1TCM    cl1  475   1.374   2.280   2.665
    1TCM    cl2  476   1.277   2.019   2.747
    1TCM     h1  477   1.272   2.222   2.873
    1TCM    cl3  478   1.091   2.240   2.717
    1TCM     c1  479   3.058   4.673   4.878
    1TCM    cl1  480   2.936   4.634   4.755
    1TCM    cl2  481   3.090   4.848   4.876
    1TCM     h1  482   3.021   4.643   4.978
    1TCM    cl3  483   3.209   4.585   4.843
    1TCM     c1  484   2.439   1.930   2.153
    1TCM    cl1  485   2.310   1.915   2.031
    1TCM    cl2  486   2.424   1.799   2.272
    1TCM     h1  487   2.538   1.923   2.103
    1TCM    cl3  488   2.425   2.087   2.235
    1TCM     c1  489   2.756   2.099   5.160
    1TCM    cl1  490   2.622   2.129   5.046
    1TCM    cl2  491   2.696   2.116   5.327
    1TCM     h1  492   2.795   1.997   5.145
    1TCM    cl3  493   2.885   2.218   5.131
    1TCM     c1  494   5.030   0.261   1.340
    1TCM    cl1  495   5.113   0.120   1.271
    1TCM    cl2  496   4.873   0.210   1.408
    1TCM     h1  497   5.092   0.305   1.420
    1TCM    cl3  498   5.002   0.382   1.213
    1TCM     c1  499   3.074   0.856   1.255
    1TCM    cl1  500   3.131   0.688   1.246
    1TCM    cl2  501   3.077   0.910   1.425
    1TCM     h1  502   3.141   0.921   1.194
    1TCM    cl3  503   2.908   0.866   1.193
    1TCM     c1  504   3.902   2.893   1.587
    1TCM    cl1  505   3.822   3.051   1.574
    1TCM    cl2  506   3.802   2.783   1.684
    1TCM     h1  507   3.916   2.850   1.486
    1TCM    cl3  508   4.061   2.913   1.666
    1TCM     c1  509   1.131   0.922   3.638
    1TCM    cl1  510   1.281   0.909   3.733
    1TCM    cl2  511   1.167   0.892   3.466
    1TCM     h1  512   1.057   0.848   3.674
    1TCM    cl3  513   1.064   1.086   3.655
    1TCM     c1  514   2.803   3.719   3.791
    1TCM    cl1  515   2.718   3.851   3.707
    1TCM    cl2  516   2.697   3.651   3.917
    1TCM     h1  517   2.830   3.640   3.718
    1TCM    cl3  518   2.951   3.782   3.867
    1TCM     c1  519   0.333   0.902   2.444
    1TCM    cl1  520   0.215   0.811   2.540
    1TCM    cl2  521   0.397   0.798   2.314
    1TCM     h1  522   0.283   0.991   2.398
    1TCM    cl3  523   0.466   0.956   2.548
    1TCM     c1  524   4.971   1.972   2.118
    1TCM    cl1  525   5.075   1.987   2.261
    1TCM    cl2  526   4.997   2.112   2.011
    1TCM     h1  527   4.997   1.879   2.063
    1TCM    cl3  528   4.801   1.966   2.168
    1TCM     c1  529   1.140   3.550   2.360
    1TCM    cl1  530   1.030   3.592   2.226
    1TCM    cl2  531   1.044   3.502   2.502
    1TCM     h1  532   1.205   3.465   2.329
    1TCM    cl3  533   1.241   3.691   2.400
    1TCM     c1  534   3.929   1.430   2.008
    1TCM    cl1  535   3.913   1.253   2.007
    1TCM    cl2  536   3.912   1.490   2.174
    1TCM     h1  537   4.029   1.458   1.969
    1TCM    cl3  538   3.803   1.502   1.905
    1TCM     c1  539   0.812   2.279   2.107
    1TCM    cl1  540   0.836   2.437   2.184
    1TCM    cl2  541   0.808   2.299   1.931
    1TCM     h1  542   0.896   2.211   2.135
    1TCM    cl3  543   0.658   2.209   2.162
    1TCM     c1  544   2.170   3.652   1.777
    1TCM    cl1  545   2.199   3.822   1.821
    1TCM    cl2  546   2.000   3.631   1.732
    1TCM     h1  547   2.235   3.624   1.691
    1TCM    cl3  548   2.208   3.548   1.916
    1TCM     c1  549   1.046   4.557   1.135
    1TCM    cl1  550   0.902   4.554   1.031
    1TCM    cl2  551   1.117   4.394   1.143
    1TCM     h1  552   1.121   4.628   1.092
    1TCM    cl3  553   1.001   4.610   1.298
    1TCM     c1  554   0.237   1.261   4.841
    1TCM    cl1  555   0.068   1.311   4.816
    1TCM    cl2  556   0.320   1.382   4.942
    1TCM     h1  557   0.240   1.163   4.892
    1TCM    cl3  558   0.319   1.249   4.683
    1TCM     c1  559   1.321   3.896   4.778
    1TCM    cl1  560   1.459   4.009   4.786
    1TCM    cl2  561   1.343   3.768   4.899
    1TCM     h1  562   1.227   3.951   4.799
    1TCM    cl3  563   1.313   3.824   4.616
    1TCM     c1  564   0.310   0.739   4.845
    1TCM    cl1  565   0.397   0.695   4.994
    1TCM    cl2  566   0.372   0.642   4.709
    1TCM     h1  567   0.201   0.719   4.858
    1TCM    cl3  568   0.335   0.911   4.811
    1TCM     c1  569   1.063   4.310   2.228
    1TCM    cl1  570   0.945   4.272   2.355
    1TCM    cl2  571   0.982   4.398   2.096
    1TCM     h1  572   1.144   4.373   2.271
    1TCM    cl3  573   1.132   4.159   2.165
    1TCM     c1  574   3.689   4.130   0.159
    1TCM    cl1  575   3.767   4.012   0.051
    1TCM    cl2  576   3.749   4.108   0.325
    1TCM     h1  577   3.713   4.233   0.125
    1TCM    cl3  578   3.513   4.107   0.156
    1TCM     c1  579   1.578   1.534   1.397
    1TCM    cl1  580   1.442   1.615   1.479
    1TCM    cl2  581   1.710   1.651   1.374
    1TCM     h1  582   1.614   1.450   1.459
    1TCM    cl3  583   1.524   1.474   1.239
    1TCM     c1  584   3.445   0.687   2.304
    1TCM    cl1  585   3.307   0.577   2.284
    1TCM    cl2  586   3.592   0.592   2.339
    1TCM     h1  587   3.460   0.745   2.211
    1TCM    cl3  588   3.414   0.798   2.439
    1TCM     c1  589   0.163   0.621   1.952
    1TCM    cl1  590   0.071   0.584   2.099
    1TCM    cl2  591   0.278   0.753   1.984
    1TCM     h1  592   0.220   0.530   1.920
    1TCM    cl3  593   0.051   0.669   1.822
    1TCM     c1  594   3.867   2.588   1.120
    1TCM    cl1  595   3.985   2.496   1.216
    1TCM    cl2  596   3.919   2.758   1.110
    1TCM     h1  597   3.862   2.545   1.017
    1TCM    cl3  598   3.707   2.579   1.196
    1TCM     c1  599   4.940   1.752   3.434
    1TCM    cl1  600   4.826   1.711   3.305
    1TCM    cl2  601   4.978   1.926   3.426
    1TCM     h1  602   4.894   1.729   3.533
    1TCM    cl3  603   5.089   1.658   3.414
    1TCM     c1  604   1.879   3.822   2.378
    1TCM    cl1  605   1.847   3.916   2.230
    1TCM    cl2  606   1.731   3.739   2.429
    1TCM     h1  607   1.959   3.747   2.357
    1TCM    cl3  608   1.933   3.931   2.507
    1TCM     c1  609   0.565   0.238   4.883
    1TCM    cl1  610   0.671   0.151   4.769
    1TCM    cl2  611   0.481   0.369   4.797
    1TCM     h1  612   0.491   0.168   4.925
    1TCM    cl3  613   0.663   0.308   5.014
    1TCM     c1  614   4.496   0.663   4.501
    1TCM    cl1  615   4.356   0.755   4.558
    1TCM    cl2  616   4.481   0.493   4.552
    1TCM     h1  617   4.501   0.667   4.390
    1TCM    cl3  618   4.645   0.732   4.569
    1TCM     c1  619   3.856   4.695   1.578
    1TCM    cl1  620   3.920   4.861   1.590
    1TCM    cl2  621   3.831   4.630   1.742
    1TCM     h1  622   3.759   4.697   1.524
    1TCM    cl3  623   3.972   4.593   1.490
    1TCM     c1  624   4.497   4.558   4.911
    1TCM    cl1  625   4.535   4.717   4.981
    1TCM    cl2  626   4.563   4.548   4.746
    1TCM     h1  627   4.543   4.478   4.974
    1TCM    cl3  628   4.321   4.535   4.907
    1TCM     c1  629   3.987   4.399   1.679
    1TCM    cl1  630   3.816   4.404   1.725
    1TCM    cl2  631   4.058   4.244   1.729
    1TCM     h1  632   3.996   4.410   1.569
    1TCM    cl3  633   4.074   4.532   1.759
    1TCM     c1  634   3.883   4.253   3.251
    1TCM    cl1  635   3.986   4.110   3.221
    1TCM    cl2  636   3.947   4.392   3.160
    1TCM     h1  637   3.780   4.231   3.217
    1TCM    cl3  638   3.883   4.290   3.425
    1TCM     c1  639   0.379   0.896   3.388
    1TCM    cl1  640   0.255   0.768   3.375
    1TCM    cl2  641   0.452   0.890   3.549
    1TCM     h1  642   0.457   0.879   3.311
    1TCM    cl3  643   0.303   1.054   3.362
    1TCM     c1  644   2.368   3.096   2.775
    1TCM    cl1  645   2.343   3.115   2.600
    1TCM    cl2  646   2.255   2.974   2.838
    1TCM     h1  647   2.472   3.064   2.794
    1TCM    cl3  648   2.338   3.252   2.856
    1TCM     c1  649   2.880   0.880   3.785
    1TCM    cl1  650   2.866   0.959   3.626
    1TCM    cl2  651   2.948   0.995   3.902
    1TCM     h1  652   2.780   0.848   3.819
    1TCM    cl3  653   2.987   0.738   3.771
    1TCM     c1  654   5.014   0.652   2.406
    1TCM    cl1  655   4.942   0.721   2.259
    1TCM    cl2  656   4.889   0.631   2.530
    1TCM     h1  657   5.060   0.554   2.382
    1TCM    cl3  658   5.140   0.762   2.467
    1TCM     c1  659   5.169   3.705   1.340
    1TCM    cl1  660   5.156   3.759   1.509
    1TCM    cl2  661   5.232   3.838   1.240
    1TCM     h1  662   5.238   3.618   1.334
    1TCM    cl3  663   5.009   3.657   1.281
    1TCM     c1  664   1.515   3.297   0.939
    1TCM    cl1  665   1.637   3.170   0.921
    1TCM    cl2  666   1.380   3.266   0.827
    1TCM     h1  667   1.477   3.298   1.043
    1TCM    cl3  668   1.587   3.455   0.902
    1TCM     c1  669   4.880   0.121   2.158
    1TCM    cl1  670   4.720   0.044   2.142
    1TCM    cl2  671   4.894   0.195   2.320
    1TCM     h1  672   4.959   0.045   2.145
    1TCM    cl3  673   4.898   0.247   2.034
    1TCM     c1  674   2.696   4.487   4.193
    1TCM    cl1  675   2.566   4.589   4.130
    1TCM    cl2  676   2.846   4.519   4.102
    1TCM     h1  677   2.712   4.509   4.300
    1TCM    cl3  678   2.652   4.316   4.174
    1TCM     c1  679   4.677   1.719   0.347
    1TCM    cl1  680   4.576   1.648   0.475
    1TCM    cl2  681   4.593   1.704   0.190
    1TCM     h1  682   4.695   1.827   0.369
    1TCM    cl3  683   4.833   1.634   0.339
    1TCM     c1  684   2.961   4.759   4.432
    1TCM    cl1  685   2.907   4.590   4.423
    1TCM    cl2  686   2.861   4.847   4.551
    1TCM     h1  687   3.067   4.762   4.464
    1TCM    cl3  688   2.943   4.836   4.273
    1TCM     c1  689   3.829   4.274   1.951
    1TCM    cl1  690   3.934   4.131   1.931
    1TCM    cl2  691   3.703   4.272   1.825
    1TCM     h1  692   3.782   4.271   2.051
    1TCM    cl3  693   3.926   4.422   1.935
    1TCM     c1  694   0.939   0.218   3.454
    1TCM    cl1  695   0.814   0.333   3.402
    1TCM    cl2  696   0.963   0.232   3.630
    1TCM     h1  697   0.907   0.115   3.429
    1TCM    cl3  698   1.092   0.255   3.371
    1TCM     c1  699   0.943   1.376   2.614
    1TCM    cl1  700   0.795   1.349   2.709
    1TCM    cl2  701   0.899   1.404   2.443
    1TCM     h1  702   0.997   1.465   2.653
    1TCM    cl3  703   1.048   1.234   2.625
    1TCM     c1  704   1.217   0.775   2.282
    1TCM    cl1  705   1.274   0.911   2.183
    1TCM    cl2  706   1.119   0.836   2.417
    1TCM     h1  707   1.156   0.707   2.219
    1TCM    cl3  708   1.357   0.686   2.346
    1TCM     c1  709   2.361   1.524   3.546
    1TCM    cl1  710   2.504   1.537   3.649
    1TCM    cl2  711   2.214   1.544   3.645
    1TCM     h1  712   2.364   1.604   3.468
    1TCM    cl3  713   2.358   1.365   3.467
    1TCM     c1  714   4.641   5.143   1.260
    1TCM    cl1  715   4.505   5.171   1.372
    1TCM    cl2  716   4.585   5.161   1.093
    1TCM     h1  717   4.721   5.216   1.281
    1TCM    cl3  718   4.703   4.978   1.284
    1TCM     c1  719   0.515   4.427   0.313
    1TCM    cl1  720   0.643   4.542   0.270
    1TCM    cl2  721   0.508   4.408   0.489
    1TCM     h1  722   0.417   4.465   0.276
    1TCM    cl3  723   0.548   4.269   0.237
    1TCM     c1  724   2.502   3.811   1.903
    1TCM    cl1  725   2.661   3.734   1.881
    1TCM    cl2  726   2.375   3.706   1.836
    1TCM     h1  727   2.484   3.828   2.011
    1TCM    cl3  728   2.500   3.967   1.817
    1TCM     c1  729   0.369   3.172   1.103
    1TCM    cl1  730   0.493   3.259   1.010
    1TCM    cl2  731   0.397   3.198   1.277
    1TCM     h1  732   0.269   3.211   1.076
    1TCM    cl3  733   0.378   2.999   1.067
    1TCM     c1  734   3.372   3.631   1.027
    1TCM    cl1  735   3.544   3.672   1.013
    1TCM    cl2  736   3.301   3.716   1.166
    1TCM     h1  737   3.319   3.661   0.934
    1TCM    cl3  738   3.355   3.455   1.051
    1TCM     c1  739   3.134   3.343   4.891
    1TCM    cl1  740   3.221   3.205   4.961
    1TCM    cl2  741   2.962   3.333   4.935
    1TCM     h1  742   3.177   3.438   4.932
    1TCM    cl3  743   3.151   3.342   4.714
    1TCM     c1  744   1.083   1.282   1.901
    1TCM    cl1  745   1.242   1.221   1.852
    1TCM    cl2  746   1.096   1.360   2.060
    1TCM     h1  747   1.047   1.356   1.827
    1TCM    cl3  748   0.968   1.147   1.911
    1TCM     c1  749   1.967   2.654   4.765
    1TCM    cl1  750   2.132   2.599   4.724
    1TCM    cl2  751   1.958   2.688   4.939
    1TCM     h1  752   1.944   2.747   4.708
    1TCM    cl3  753   1.850   2.528   4.723
    1TCM     c1  754   2.181   4.187   4.453
    1TCM    cl1  755   2.058   4.232   4.334
    1TCM    cl2  756   2.156   4.281   4.603
    1TCM     h1  757   2.173   4.079   4.476
    1TCM    cl3  758   2.343   4.223   4.388
    1TCM     c1  759   0.768   0.345   0.148
    1TCM    cl1  760   0.849   0.400   0.000
    1TCM    cl2  761   0.859   0.401   0.290
    1TCM     h1  762   0.665   0.385   0.152
    1TCM    cl3  763   0.762   0.167   0.149
    1TCM     c1  764   1.107   0.638   2.952
    1TCM    cl1  765   1.086   0.814   2.954
    1TCM    cl2  766   1.151   0.581   3.115
    1TCM     h1  767   1.013   0.589   2.920
    1TCM    cl3  768   1.237   0.596   2.838
    1TCM     c1  769   2.422   0.269   3.850
    1TCM    cl1  770   2.268   0.194   3.898
    1TCM    cl2  771   2.463   0.219   3.685
    1TCM     h1  772   2.412   0.379   3.854
    1TCM    cl3  773   2.550   0.217   3.962
    1TCM     c1  774   3.197   4.843   5.170
    1TCM    cl1  775   3.170   4.990   5.074
    1TCM    cl2  776   3.145   4.871   5.338
    1TCM     h1  777   3.139   4.759   5.127
    1TCM    cl3  778   3.370   4.802   5.168
    1TCM     c1  779   1.846   0.238   3.606
    1TCM    cl1  780   1.711   0.235   3.722
    1TCM    cl2  781   1.786   0.295   3.448
    1TCM     h1  782   1.924   0.307   3.643
    1TCM    cl3  783   1.913   0.075   3.589
    1TCM     c1  784   0.955   0.779   4.130
    1TCM    cl1  785   0.825   0.747   4.014
    1TCM    cl2  786   0.892   0.874   4.266
    1TCM     h1  787   0.996   0.683   4.168
    1TCM    cl3  788   1.085   0.870   4.050
    1TCM     c1  789   2.052   5.158   2.388
    1TCM    cl1  790   2.151   5.044   2.483
    1TCM    cl2  791   2.020   5.303   2.486
    1TCM     h1  792   2.107   5.187   2.296
    1TCM    cl3  793   1.898   5.081   2.344
    1TCM     c1  794   1.270   1.297   2.405
    1TCM    cl1  795   1.187   1.413   2.511
    1TCM    cl2  796   1.264   1.355   2.237
    1TCM     h1  797   1.376   1.287   2.436
    1TCM    cl3  798   1.190   1.138   2.415
    1TCM     c1  799   1.614   1.630   0.179
    1TCM    cl1  800   1.671   1.495   0.078
    1TCM    cl2  801   1.454   1.683   0.121
    1TCM     h1  802   1.605   1.596   0.284
    1TCM    cl3  803   1.729   1.765   0.169
    1TCM     c1  804   1.717   3.003   4.132
    1TCM    cl1  805   1.868   3.027   4.221
    1TCM    cl2  806   1.615   2.884   4.217
    1TCM     h1  807   1.662   3.099   4.124
    1TCM    cl3  808   1.753   2.943   3.968
    1TCM     c1  809   2.929   4.958   1.432
    1TCM    cl1  810   3.074   4.861   1.398
    1TCM    cl2  811   2.928   5.005   1.604
    1TCM     h1  812   2.931   5.050   1.369
    1TCM    cl3  813   2.783   4.863   1.396
    1TCM     c1  814   4.414   1.760   3.164
    1TCM    cl1  815   4.418   1.726   3.339
    1TCM    cl2  816   4.567   1.709   3.090
    1TCM     h1  817   4.330   1.703   3.118
    1TCM    cl3  818   4.390   1.934   3.137
    1TCM     c1  819   4.517   0.248   3.416
    1TCM    cl1  820   4.599   0.096   3.456
    1TCM    cl2  821   4.505   0.349   3.562
    1TCM     h1  822   4.575   0.303   3.339
    1TCM    cl3  823   4.354   0.213   3.355
    1TCM     c1  824   4.065   0.280   3.046
    1TCM    cl1  825   4.018   0.256   2.876
    1TCM    cl2  826   3.980   0.422   3.112
    1TCM     h1  827   4.038   0.190   3.105
    1TCM    cl3  828   4.241   0.306   3.056
    1TCM     c1  829   2.125   0.166   3.318
    1TCM    cl1  830   2.015   0.231   3.194
    1TCM    cl2  831   2.044   0.034   3.405
    1TCM     h1  832   2.217   0.127   3.270
    1TCM    cl3  833   2.167   0.295   3.433
    1TCM     c1  834   0.530   4.480   3.681
    1TCM    cl1  835   0.437   4.629   3.655
    1TCM    cl2  836   0.672   4.480   3.574
    1TCM     h1  837   0.563   4.475   3.787
    1TCM    cl3  838   0.428   4.339   3.644
    1TCM     c1  839   0.295   1.974   4.782
    1TCM    cl1  840   0.224   2.087   4.899
    1TCM    cl2  841   0.284   1.808   4.845
    1TCM     h1  842   0.240   1.981   4.686
    1TCM    cl3  843   0.466   2.016   4.756
    1TCM     c1  844   1.071   5.175   5.213
    1TCM    cl1  845   1.047   5.010   5.152
    1TCM    cl2  846   0.992   5.291   5.103
    1TCM     h1  847   1.028   5.184   5.314
    1TCM    cl3  848   1.245   5.211   5.220
    1TCM     c1  849   0.909   2.274   1.158
    1TCM    cl1  850   1.028   2.371   1.249
    1TCM    cl2  851   0.958   2.267   0.987
    1TCM     h1  852   0.906   2.172   1.200
    1TCM    cl3  853   0.749   2.349   1.171
    1TCM     c1  854   4.831   1.709   2.306
    1TCM    cl1  855   4.791   1.546   2.248
    1TCM    cl2  856   4.936   1.697   2.450
    1TCM     h1  857   4.884   1.765   2.226
    1TCM    cl3  858   4.682   1.795   2.350
    1TCM     c1  859   2.783   1.063   2.570
    1TCM    cl1  860   2.658   0.985   2.669
    1TCM    cl2  861   2.707   1.181   2.461
    1TCM     h1  862   2.855   1.115   2.636
    1TCM    cl3  863   2.868   0.940   2.475
    1TCM     c1  864   3.213   0.554   2.629
    1TCM    cl1  865   3.062   0.465   2.661
    1TCM    cl2  866   3.180   0.690   2.520
    1TCM     h1  867   3.255   0.592   2.724
    1TCM    cl3  868   3.331   0.444   2.552
    1TCM     c1  869   2.368   4.677   1.101
    1TCM    cl1  870   2.215   4.620   1.171
    1TCM    cl2  871   2.343   4.838   1.029
    1TCM     h1  872   2.445   4.684   1.180
    1TCM    cl3  873   2.421   4.564   0.975
    1TCM     c1  874   0.572   3.414   4.100
    1TCM    cl1  875   0.635   3.545   4.203
    1TCM    cl2  876   0.636   3.433   3.935
    1TCM     h1  877   0.603   3.316   4.141
    1TCM    cl3  878   0.394   3.423   4.096
    1TCM     c1  879   2.531   0.081   1.775
    1TCM    cl1  880   2.526   0.182   1.921
    1TCM    cl2  881   2.576   0.181   1.635
    1TCM     h1  882   2.605   0.000   1.788
    1TCM    cl3  883   2.370   0.010   1.747
    1TCM     c1  884   2.551   4.961   3.774
    1TCM    cl1  885   2.488   4.795   3.780
    1TCM    cl2  886   2.729   4.956   3.762
    1TCM     h1  887   2.510   5.014   3.686
    1TCM    cl3  888   2.505   5.048   3.923
    1TCM     c1  889   3.639   3.475   4.774
    1TCM    cl1  890   3.492   3.469   4.673
    1TCM    cl2  891   3.715   3.315   4.778
    1TCM     h1  892   3.710   3.549   4.731
    1TCM    cl3  893   3.595   3.525   4.939
    1TCM     c1  894   1.719   0.222   4.796
    1TCM    cl1  895   1.561   0.303   4.789
    1TCM    cl2  896   1.835   0.311   4.695
    1TCM     h1  897   1.755   0.220   4.901
    1TCM    cl3  898   1.703   0.056   4.735
    1TCM     c1  899   3.507   4.138   2.280
    1TCM    cl1  900   3.654   4.188   2.193
    1TCM    cl2  901   3.407   4.036   2.174
    1TCM     h1  902   3.536   4.080   2.370
    1TCM    cl3  903   3.415   4.282   2.328
    1TCM     c1  904   0.175   2.734   2.086
    1TCM    cl1  905   0.154   2.581   2.174
    1TCM    cl2  906   0.309   2.826   2.159
    1TCM     h1  907   0.199   2.712   1.980
    1TCM    cl3  908   0.026   2.829   2.095
    1TCM     c1  909   1.855   0.902   3.602
    1TCM    cl1  910   1.738   0.797   3.685
    1TCM    cl2  911   1.782   0.967   3.454
    1TCM     h1  912   1.884   0.986   3.669
    1TCM    cl3  913   2.000   0.807   3.560
    1TCM     c1  914   1.460   4.574   3.670
    1TCM    cl1  915   1.430   4.481   3.521
    1TCM    cl2  916   1.470   4.462   3.808
    1TCM     h1  917   1.555   4.629   3.660
    1TCM    cl3  918   1.327   4.688   3.697
    1TCM     c1  919   1.263   3.261   3.561
    1TCM    cl1  920   1.233   3.430   3.607
    1TCM    cl2  921   1.289   3.251   3.386
    1TCM     h1  922   1.353   3.224   3.614
    1TCM    cl3  923   1.122   3.162   3.606
    1TCM     c1  924   4.871   2.267   2.426
    1TCM    cl1  925   4.998   2.304   2.545
    1TCM    cl2  926   4.946   2.231   2.269
    1TCM     h1  927   4.813   2.178   2.460
    1TCM    cl3  928   4.763   2.407   2.410
    1TCM     c1  929   2.364   1.416   1.825
    1TCM    cl1  930   2.243   1.520   1.746
    1TCM    cl2  931   2.333   1.414   2.001
    1TCM     h1  932   2.356   1.313   1.785
    1TCM    cl3  933   2.527   1.480   1.794
    1TCM     c1  934   1.320   0.139   3.685
    1TCM    cl1  935   1.186   0.027   3.652
    1TCM    cl2  936   1.331   0.168   3.860
    1TCM     h1  937   1.415   0.094   3.649
    1TCM    cl3  938   1.291   0.293   3.602
    1TCM     c1  939   4.392   3.876   2.502
    1TCM    cl1  940   4.467   3.725   2.558
    1TCM    cl2  941   4.472   3.930   2.353
    1TCM     h1  942   4.284   3.859   2.482
    1TCM    cl3  943   4.410   4.001   2.627
    1TCM     c1  944   4.456   1.275   4.094
    1TCM    cl1  945   4.633   1.283   4.089
    1TCM    cl2  946   4.405   1.171   4.228
    1TCM     h1  947   4.415   1.377   4.108
    1TCM    cl3  948   4.396   1.208   3.940
    1TCM     c1  949   2.933   0.315   2.908
    1TCM    cl1  950   2.790   0.223   2.961
    1TCM    cl2  951   2.896   0.399   2.755
    1TCM     h1  952   2.960   0.389   2.985
    1TCM    cl3  953   3.069   0.203   2.882
    1TCM     c1  954   4.987   4.207   3.141
    1TCM    cl1  955   5.001   4.263   2.973
    1TCM    cl2  956   5.102   4.296   3.243
    1TCM     h1  957   4.884   4.224   3.178
    1TCM    cl3  958   5.024   4.033   3.148
    1TCM     c1  959   0.461   1.869   0.666
    1TCM    cl1  960   0.553   1.753   0.765
    1TCM    cl2  961   0.459   1.813   0.497
    1TCM     h1  962   0.357   1.877   0.704
    1TCM    cl3  963   0.539   2.029   0.674
    1TCM     c1  964   4.269   0.940   3.430
    1TCM    cl1  965   4.123   0.996   3.346
    1TCM    cl2  966   4.412   0.972   3.328
    1TCM     h1  967   4.280   0.995   3.526
    1TCM    cl3  968   4.257   0.766   3.461
    1TCM     c1  969   1.454   2.406   3.006
    1TCM    cl1  970   1.298   2.330   3.047
    1TCM    cl2  971   1.440   2.488   2.849
    1TCM     h1  972   1.481   2.480   3.084
    1TCM    cl3  973   1.580   2.281   2.996
    1TCM     c1  974   0.328   3.052   0.142
    1TCM    cl1  975   0.245   2.984   0.000
    1TCM    cl2  976   0.317   2.937   0.278
    1TCM     h1  977   0.435   3.069   0.118
    1TCM    cl3  978   0.252   3.205   0.188
    1TCM     c1  979   0.827   4.636   5.003
    1TCM    cl1  980   0.875   4.776   5.102
    1TCM    cl2  981   0.894   4.487   5.074
    1TCM     h1  982   0.716   4.629   5.001
    1TCM    cl3  983   0.889   4.656   4.838
    1TCM     c1  984   4.733   4.766   0.221
    1TCM    cl1  985   4.701   4.873   0.358
    1TCM    cl2  986   4.799   4.861   0.085
    1TCM     h1  987   4.807   4.688   0.250
    1TCM    cl3  988   4.582   4.687   0.170
    1TCM     c1  989   0.735   1.591   0.635
    1TCM    cl1  990   0.794   1.462   0.528
    1TCM    cl2  991   0.601   1.530   0.734
    1TCM     h1  992   0.818   1.625   0.701
    1TCM    cl3  993   0.678   1.728   0.536
    1TCM     c1  994   2.476   0.335   3.481
    1TCM    cl1  995   2.561   0.384   3.629
    1TCM    cl2  996   2.331   0.435   3.460
    1TCM     h1  997   2.543   0.347   3.394
    1TCM    cl3  998   2.427   0.164   3.495
    1TCM     c1  999   0.473   1.533   3.351
    1TCM    cl1 1000   0.361   1.623   3.456
    1TCM    cl2 1001   0.459   1.593   3.184
    1TCM     h1 1002   0.577   1.547   3.387
    1TCM    cl3 1003   0.432   1.360   3.355
    1TCM     c1 1004   0.292   4.391   5.030
    1TCM    cl1 1005   0.467   4.360   5.038
    1TCM    cl2 1006   0.228   4.329   4.876
    1TCM     h1 1007   0.242   4.340   5.114
    1TCM    cl3 1008   0.263   4.566   5.040
    1TCM     c1 1009   4.309   1.434   2.201
    1TCM    cl1 1010   4.410   1.294   2.159
    1TCM    cl2 1011   4.321   1.466   2.375
    1TCM     h1 1012   4.344   1.523   2.144
    1TCM    cl3 1013   4.140   1.400   2.158
    1TCM     c1 1014   1.487   0.656   1.785
    1TCM    cl1 1015   1.653   0.713   1.817
    1TCM    cl2 1016   1.377   0.722   1.908
    1TCM     h1 1017   1.456   0.691   1.684
    1TCM    cl3 1018   1.483   0.479   1.790
    1TCM     c1 1019   0.135   5.156   3.547
    1TCM    cl1 1020   0.002   5.044   3.509
    1TCM    cl2 1021   0.168   5.260   3.406
    1TCM     h1 1022   0.107   5.219   3.634
    1TCM    cl3 1023   0.282   5.062   3.586
    1TCM     c1 1024   1.939   1.642   3.476
    1TCM    cl1 1025   1.928   1.810   3.420
    1TCM    cl2 1026   1.930   1.638   3.653
    1TCM     h1 1027   1.855   1.583   3.433
    1TCM    cl3 1028   2.093   1.571   3.422
    1TCM     c1 1029   2.539   3.844   3.890
    1TCM    cl1 1030   2.662   3.972   3.880
    1TCM    cl2 1031   2.554   3.760   4.047
    1TCM     h1 1032   2.438   3.888   3.882
    1TCM    cl3 1033   2.564   3.727   3.758
    1TCM     c1 1034   0.880   1.399   3.733
    1TCM    cl1 1035   0.889   1.295   3.589
    1TCM    cl2 1036   0.770   1.327   3.852
    1TCM     h1 1037   0.981   1.409   3.777
    1TCM    cl3 1038   0.820   1.560   3.686
    1TCM     c1 1039   0.793   4.414   1.922
    1TCM    cl1 1040   0.663   4.402   1.802
    1TCM    cl2 1041   0.727   4.387   2.085
    1TCM     h1 1042   0.871   4.338   1.900
    1TCM    cl3 1043   0.865   4.577   1.914
    1TCM     c1 1044   3.824   4.361   2.361
    1TCM    cl1 1045   3.920   4.224   2.302
    1TCM    cl2 1046   3.706   4.303   2.480
    1TCM     h1 1047   3.891   4.435   2.408
    1TCM    cl3 1048   3.738   4.437   2.224
    1TCM     c1 1049   0.666   2.548   3.570
    1TCM    cl1 1050   0.633   2.663   3.438
    1TCM    cl2 1051   0.753   2.408   3.506
    1TCM     h1 1052   0.728   2.598   3.648
    1TCM    cl3 1053   0.512   2.495   3.642
    1TCM     c1 1054   1.803   3.872   1.638
    1TCM    cl1 1055   1.669   3.798   1.548
    1TCM    cl2 1056   1.799   3.817   1.807
    1TCM     h1 1057   1.900   3.842   1.591
    1TCM    cl3 1058   1.788   4.049   1.632
    1TCM     c1 1059   1.456   1.622   2.636
    1TCM    cl1 1060   1.333   1.562   2.751
    1TCM    cl2 1061   1.471   1.508   2.501
    1TCM     h1 1062   1.426   1.721   2.598
    1TCM    cl3 1063   1.613   1.636   2.720
    1TCM     c1 1064   3.951   0.150   4.032
    1TCM    cl1 1065   4.049   0.075   3.904
    1TCM    cl2 1066   4.047   0.160   4.181
    1TCM     h1 1067   3.921   0.252   4.001
    1TCM    cl3 1068   3.806   0.051   4.061
    1TCM     c1 1069   0.157   4.557   4.558
    1TCM    cl1 1070   0.305   4.636   4.498
    1TCM    cl2 1071   0.043   4.681   4.615
    1TCM     h1 1072   0.111   4.499   4.476
    1TCM    cl3 1073   0.199   4.449   4.693
    1TCM     c1 1074   1.120   1.708   0.758
    1TCM    cl1 1075   1.072   1.878   0.743
    1TCM    cl2 1076   1.140   1.638   0.596
    1TCM     h1 1077   1.217   1.702   0.813
    1TCM    cl3 1078   0.995   1.618   0.847
    1TCM     c1 1079   2.709   2.806   0.222
    1TCM    cl1 1080   2.589   2.842   0.095
    1TCM    cl2 1081   2.775   2.642   0.196
    1TCM     h1 1082   2.791   2.880   0.217
    1TCM    cl3 1083   2.631   2.813   0.381
    1TCM     c1 1084   4.423   1.342   2.902
    1TCM    cl1 1085   4.285   1.426   2.828
    1TCM    cl2 1086   4.564   1.352   2.795
    1TCM     h1 1087   4.447   1.389   3.000
    1TCM    cl3 1088   4.380   1.171   2.929
    1TCM     c1 1089   3.523   0.290   1.931
    1TCM    cl1 1090   3.577   0.418   2.042
    1TCM    cl2 1091   3.612   0.303   1.778
    1TCM     h1 1092   3.543   0.191   1.977
    1TCM    cl3 1093   3.349   0.308   1.901
    1TCM     c1 1094   4.230   2.780   1.479
    1TCM    cl1 1095   4.408   2.780   1.474
    1TCM    cl2 1096   4.175   2.748   1.645
    1TCM     h1 1097   4.192   2.878   1.446
    1TCM    cl3 1098   4.168   2.653   1.371
    1TCM     c1 1099   3.070   4.358   2.772
    1TCM    cl1 1100   3.109   4.531   2.771
    1TCM    cl2 1101   3.214   4.264   2.816
    1TCM     h1 1102   2.989   4.339   2.847
    1TCM    cl3 1103   3.014   4.308   2.611
    1TCM     c1 1104   4.432   1.062   2.741
    1TCM    cl1 1105   4.555   1.101   2.863
    1TCM    cl2 1106   4.512   1.000   2.594
    1TCM     h1 1107   4.363   0.985   2.781
    1TCM    cl3 1108   4.340   1.209   2.701
    1TCM     c1 1109   1.043   2.095   4.911
    1TCM    cl1 1110   1.115   1.968   4.810
    1TCM    cl2 1111   1.113   2.088   5.075
    1TCM     h1 1112   1.064   2.194   4.866
    1TCM    cl3 1113   0.867   2.071   4.921
    1TCM     c1 1114   2.467   4.596   4.633
    1TCM    cl1 1115   2.571   4.626   4.773
    1TCM    cl2 1116   2.372   4.448   4.659
    1TCM     h1 1117   2.398   4.682   4.619
    1TCM    cl3 1118   2.567   4.577   4.487
    1TCM     c1 1119   2.337   5.092   5.089
    1TCM    cl1 1120   2.268   5.179   5.229
    1TCM    cl2 1121   2.514   5.105   5.092
    1TCM     h1 1122   2.307   4.985   5.093
    1TCM    cl3 1123   2.275   5.165   4.939
    1TCM     c1 1124   2.018   1.158   3.277
    1TCM    cl1 1125   2.088   1.306   3.347
    1TCM    cl2 1126   2.054   1.153   3.103
    1TCM     h1 1127   2.062   1.069   3.326
    1TCM    cl3 1128   1.842   1.159   3.301
    1TCM     c1 1129   1.945   2.207   5.153
    1TCM    cl1 1130   1.868   2.351   5.224
    1TCM    cl2 1131   2.025   2.252   5.000
    1TCM     h1 1132   2.020   2.167   5.224
    1TCM    cl3 1133   1.821   2.084   5.121
    1TCM     c1 1134   2.272   1.841   1.684
    1TCM    cl1 1135   2.229   1.857   1.856
    1TCM    cl2 1136   2.434   1.910   1.657
    1TCM     h1 1137   2.272   1.734   1.655
    1TCM    cl3 1138   2.153   1.930   1.586
    1TCM     c1 1139   2.685   2.679   0.833
    1TCM    cl1 1140   2.804   2.654   0.962
    1TCM    cl2 1141   2.764   2.756   0.694
    1TCM     h1 1142   2.643   2.581   0.802
    1TCM    cl3 1143   2.554   2.783   0.892
    1TCM     c1 1144   2.915   1.896   1.556
    1TCM    cl1 1145   3.026   1.843   1.427
    1TCM    cl2 1146   2.954   1.810   1.707
    1TCM     h1 1147   2.927   2.006   1.572
    1TCM    cl3 1148   2.747   1.860   1.509
    1TCM     c1 1149   4.693   4.575   2.683
    1TCM    cl1 1150   4.669   4.420   2.765
    1TCM    cl2 1151   4.804   4.677   2.779
    1TCM     h1 1152   4.737   4.558   2.582
    1TCM    cl3 1153   4.537   4.658   2.665
    1TCM     c1 1154   3.211   0.413   4.908
    1TCM    cl1 1155   3.352   0.476   4.996
    1TCM    cl2 1156   3.135   0.544   4.816
    1TCM     h1 1157   3.243   0.333   4.839
    1TCM    cl3 1158   3.094   0.347   5.025
    1TCM     c1 1159   3.667   3.920   4.119
    1TCM    cl1 1160   3.639   4.047   3.998
    1TCM    cl2 1161   3.653   3.988   4.282
    1TCM     h1 1162   3.592   3.839   4.106
    1TCM    cl3 1163   3.830   3.852   4.097
    1TCM     c1 1164   2.136   1.317   2.823
    1TCM    cl1 1165   2.191   1.153   2.867
    1TCM    cl2 1166   2.276   1.426   2.813
    1TCM     h1 1167   2.085   1.313   2.724
    1TCM    cl3 1168   2.022   1.376   2.946
    1TCM     c1 1169   2.675   0.490   0.126
    1TCM    cl1 1170   2.830   0.403   0.132
    1TCM    cl2 1171   2.640   0.558   0.286
    1TCM     h1 1172   2.682   0.572   0.052
    1TCM    cl3 1173   2.546   0.377   0.079
    1TCM     c1 1174   2.172   2.497   1.980
    1TCM    cl1 1175   2.309   2.610   1.975
    1TCM    cl2 1176   2.043   2.557   1.874
    1TCM     h1 1177   2.205   2.398   1.945
    1TCM    cl3 1178   2.111   2.485   2.147
    1TCM     c1 1179   1.115   4.970   1.634
    1TCM    cl1 1180   1.090   5.146   1.631
    1TCM    cl2 1181   1.289   4.935   1.649
    1TCM     h1 1182   1.061   4.927   1.721
    1TCM    cl3 1183   1.053   4.898   1.484
    1TCM     c1 1184   3.631   2.229   4.487
    1TCM    cl1 1185   3.739   2.088   4.496
    1TCM    cl2 1186   3.462   2.174   4.491
    1TCM     h1 1187   3.650   2.296   4.573
    1TCM    cl3 1188   3.661   2.317   4.335
    1TCM     c1 1189   1.930   5.132   5.146
    1TCM    cl1 1190   1.854   5.004   5.049
    1TCM    cl2 1191   1.861   5.132   5.310
    1TCM     h1 1192   2.040   5.114   5.152
    1TCM    cl3 1193   1.901   5.290   5.069
    1TCM     c1 1194   3.415   3.826   0.670
    1TCM    cl1 1195   3.510   3.713   0.570
    1TCM    cl2 1196   3.468   3.815   0.839
    1TCM     h1 1197   3.431   3.930   0.633
    1TCM    cl3 1198   3.243   3.785   0.659
    1TCM     c1 1199   4.666   0.977   1.066
    1TCM    cl1 1200   4.702   1.028   1.232
    1TCM    cl2 1201   4.573   1.104   0.984
    1TCM     h1 1202   4.761   0.960   1.011
    1TCM    cl3 1203   4.571   0.826   1.069
    1TCM     c1 1204   4.198   1.839   1.964
    1TCM    cl1 1205   4.219   1.890   1.794
    1TCM    cl2 1206   4.087   1.951   2.046
    1TCM     h1 1207   4.155   1.736   1.966
    1TCM    cl3 1208   4.355   1.840   2.046
    1TCM     c1 1209   4.134   1.738   0.154
    1TCM    cl1 1210   4.194   1.574   0.192
    1TCM    cl2 1211   3.957   1.733   0.137
    1TCM     h1 1212   4.161   1.807   0.237
    1TCM    cl3 1213   4.207   1.794   0.003
    1TCM     c1 1214   3.639   3.077   4.984
    1TCM    cl1 1215   3.575   3.240   4.952
    1TCM    cl2 1216   3.504   2.968   5.025
    1TCM     h1 1217   3.691   3.040   4.893
    1TCM    cl3 1218   3.753   3.084   5.120
    1TCM     c1 1219   1.224   0.533   3.785
    1TCM    cl1 1220   1.226   0.594   3.952
    1TCM    cl2 1221   1.278   0.662   3.674
    1TCM     h1 1222   1.293   0.446   3.776
    1TCM    cl3 1223   1.059   0.483   3.742
    1TCM     c1 1224   3.585   0.360   1.439
    1TCM    cl1 1225   3.413   0.372   1.483
    1TCM    cl2 1226   3.602   0.378   1.263
    1TCM     h1 1227   3.642   0.440   1.490
    1TCM    cl3 1228   3.647   0.201   1.489
    1TCM     c1 1229   1.296   0.334   4.151
    1TCM    cl1 1230   1.374   0.488   4.192
    1TCM    cl2 1231   1.120   0.358   4.138
    1TCM     h1 1232   1.336   0.297   4.054
    1TCM    cl3 1233   1.330   0.214   4.278
    1TCM     c1 1234   2.304   0.304   4.483
    1TCM    cl1 1235   2.304   0.428   4.611
    1TCM    cl2 1236   2.307   0.143   4.558
    1TCM     h1 1237   2.213   0.315   4.421
    1TCM    cl3 1238   2.449   0.324   4.381
    1TCM     c1 1239   3.337   0.743   0.435
    1TCM    cl1 1240   3.416   0.618   0.535
    1TCM    cl2 1241   3.362   0.707   0.263
    1TCM     h1 1242   3.229   0.745   0.458
    1TCM    cl3 1243   3.408   0.902   0.473
    1TCM     c1 1244   1.694   2.077   2.756
    1TCM    cl1 1245   1.799   2.173   2.862
    1TCM    cl2 1246   1.732   2.112   2.586
    1TCM     h1 1247   1.710   1.969   2.775
    1TCM    cl3 1248   1.524   2.118   2.788
    1TCM     c1 1249   4.925   4.059   4.904
    1TCM    cl1 1250   5.034   4.078   5.043
    1TCM    cl2 1251   4.851   3.898   4.909
    1TCM     h1 1252   4.846   4.137   4.907
    1TCM    cl3 1253   5.019   4.076   4.753
    1TCM     c1 1254   0.847   0.931   2.763
    1TCM    cl1 1255   0.970   0.803   2.766
    1TCM    cl2 1256   0.787   0.952   2.596
    1TCM     h1 1257   0.762   0.903   2.829
    1TCM    cl3 1258   0.919   1.084   2.819
    1TCM     c1 1259   4.735   0.975   3.652
    1TCM    cl1 1260   4.714   1.151   3.637
    1TCM    cl2 1261   4.660   0.894   3.513
    1TCM     h1 1262   4.844   0.951   3.655
    1TCM    cl3 1263   4.659   0.919   3.803
    1TCM     c1 1264   5.104   4.790   0.655
    1TCM    cl1 1265   5.137   4.636   0.738
    1TCM    cl2 1266   5.188   4.792   0.498
    1TCM     h1 1267   4.995   4.800   0.638
    1TCM    cl3 1268   5.162   4.925   0.755
    1TCM     c1 1269   0.712   3.380   0.355
    1TCM    cl1 1270   0.857   3.375   0.458
    1TCM    cl2 1271   0.757   3.339   0.188
    1TCM     h1 1272   0.637   3.306   0.392
    1TCM    cl3 1273   0.641   3.543   0.359
    1TCM     c1 1274   1.234   2.547   4.852
    1TCM    cl1 1275   1.056   2.543   4.856
    1TCM    cl2 1276   1.294   2.405   4.762
    1TCM     h1 1277   1.268   2.640   4.802
    1TCM    cl3 1278   1.297   2.542   5.018
    1TCM     c1 1279   1.611   4.117   0.109
    1TCM    cl1 1280   1.452   4.037   0.096
    1TCM    cl2 1281   1.730   4.030   0.010
    1TCM     h1 1282   1.602   4.222   0.074
    1TCM    cl3 1283   1.663   4.116   0.279
    1TCM     c1 1284   0.771   3.243   0.707
    1TCM    cl1 1285   0.892   3.172   0.816
    1TCM    cl2 1286   0.795   3.180   0.542
    1TCM     h1 1287   0.669   3.216   0.742
    1TCM    cl3 1288   0.788   3.420   0.706
    1TCM     c1 1289   4.233   1.611   2.595
    1TCM    cl1 1290   4.209   1.784   2.559
    1TCM    cl2 1291   4.167   1.574   2.756
    1TCM     h1 1292   4.181   1.550   2.518
    1TCM    cl3 1293   4.407   1.574   2.592
    1TCM     c1 1294   2.122   0.552   4.326
    1TCM    cl1 1295   2.126   0.389   4.254
    1TCM    cl2 1296   2.127   0.673   4.196
    1TCM     h1 1297   2.029   0.564   4.384
    1TCM    cl3 1298   2.263   0.573   4.432
    1TCM     c1 1299   0.406   0.154   2.716
    1TCM    cl1 1300   0.385   0.049   2.858
    1TCM    cl2 1301   0.533   0.274   2.749
    1TCM     h1 1302   0.435   0.092   2.629
    1TCM    cl3 1303   0.253   0.238   2.681
    1TCM     c1 1304   1.846   4.610   4.380
    1TCM    cl1 1305   1.899   4.484   4.266
    1TCM    cl2 1306   1.985   4.663   4.478
    1TCM     h1 1307   1.806   4.697   4.324
    1TCM    cl3 1308   1.720   4.545   4.487
    1TCM     c1 1309   4.275   4.580   1.488
    1TCM    cl1 1310   4.157   4.456   1.441
    1TCM    cl2 1311   4.400   4.594   1.362
    1TCM     h1 1312   4.223   4.677   1.500
    1TCM    cl3 1313   4.351   4.534   1.642
    1TCM     c1 1314   1.127   2.619   0.559
    1TCM    cl1 1315   1.296   2.620   0.614
    1TCM    cl2 1316   1.100   2.478   0.453
    1TCM     h1 1317   1.060   2.612   0.647
    1TCM    cl3 1318   1.093   2.768   0.469
    1TCM     c1 1319   1.273   0.957   4.275
    1TCM    cl1 1320   1.370   0.949   4.424
    1TCM    cl2 1321   1.304   1.112   4.193
    1TCM     h1 1322   1.301   0.874   4.208
    1TCM    cl3 1323   1.100   0.945   4.316
    1TCM     c1 1324   1.871   1.522   0.869
    1TCM    cl1 1325   1.858   1.692   0.817
    1TCM    cl2 1326   1.875   1.515   1.047
    1TCM     h1 1327   1.784   1.465   0.832
    1TCM    cl3 1328   2.021   1.452   0.805
    1TCM     c1 1329   1.227   4.572   1.443
    1TCM    cl1 1330   1.236   4.403   1.388
    1TCM    cl2 1331   1.239   4.681   1.303
    1TCM     h1 1332   1.130   4.589   1.494
    1TCM    cl3 1333   1.360   4.605   1.555
    1TCM     c1 1334   5.258   2.830   2.590
    1TCM    cl1 1335   5.340   2.776   2.738
    1TCM    cl2 1336   5.322   2.740   2.451
    1TCM     h1 1337   5.149   2.812   2.599
    1TCM    cl3 1338   5.287   3.004   2.566
    1TCM     c1 1339   0.857   2.451   0.224
    1TCM    cl1 1340   0.822   2.402   0.056
    1TCM    cl2 1341   0.704   2.467   0.314
    1TCM     h1 1342   0.920   2.374   0.273
    1TCM    cl3 1343   0.942   2.607   0.224
    1TCM     c1 1344   3.661   4.807   3.371
    1TCM    cl1 1345   3.822   4.861   3.319
    1TCM    cl2 1346   3.678   4.666   3.478
    1TCM     h1 1347   3.611   4.889   3.426
    1TCM    cl3 1348   3.564   4.762   3.229
    1TCM     c1 1349   2.166   0.919   2.530
    1TCM    cl1 1350   2.112   0.778   2.623
    1TCM    cl2 1351   2.325   0.972   2.590
    1TCM     h1 1352   2.175   0.892   2.423
    1TCM    cl3 1353   2.049   1.051   2.549
    1TCM     c1 1354   0.717   4.622   4.518
    1TCM    cl1 1355   0.620   4.609   4.666
    1TCM    cl2 1356   0.609   4.639   4.378
    1TCM     h1 1357   0.784   4.710   4.525
    1TCM    cl3 1358   0.815   4.475   4.499
    1TCM     c1 1359   2.051   4.833   3.928
    1TCM    cl1 1360   2.096   4.951   4.053
    1TCM    cl2 1361   2.179   4.827   3.804
    1TCM     h1 1362   2.039   4.733   3.974
    1TCM    cl3 1363   1.898   4.883   3.852
    1TCM     c1 1364   1.126   0.250   1.269
    1TCM    cl1 1365   1.076   0.081   1.254
    1TCM    cl2 1366   1.089   0.309   1.433
    1TCM     h1 1367   1.235   0.258   1.251
    1TCM    cl3 1368   1.039   0.349   1.149
    1TCM     c1 1369   2.524   3.113   1.028
    1TCM    cl1 1370   2.483   3.127   1.201
    1TCM    cl2 1371   2.700   3.129   1.008
    1TCM     h1 1372   2.492   3.014   0.991
    1TCM    cl3 1373   2.442   3.241   0.936
    1TCM     c1 1374   1.024   3.619   1.100
    1TCM    cl1 1375   1.067   3.737   0.974
    1TCM    cl2 1376   0.926   3.489   1.029
    1TCM     h1 1377   1.116   3.576   1.144
    1TCM    cl3 1378   0.930   3.700   1.228
    1TCM     c1 1379   3.780   2.306   2.105
    1TCM    cl1 1380   3.927   2.328   2.008
    1TCM    cl2 1381   3.791   2.405   2.253
    1TCM     h1 1382   3.691   2.339   2.046
    1TCM    cl3 1383   3.762   2.135   2.149
    1TCM     c1 1384   2.738   2.463   1.234
    1TCM    cl1 1385   2.708   2.426   1.062
    1TCM    cl2 1386   2.875   2.575   1.247
    1TCM     h1 1387   2.648   2.510   1.278
    1TCM    cl3 1388   2.775   2.313   1.321
    1TCM     c1 1389   2.755   3.475   4.330
    1TCM    cl1 1390   2.788   3.624   4.239
    1TCM    cl2 1391   2.599   3.407   4.278
    1TCM     h1 1392   2.836   3.401   4.310
    1TCM    cl3 1393   2.750   3.511   4.504
    1TCM     c1 1394   0.735   3.015   3.980
    1TCM    cl1 1395   0.855   2.884   3.992
    1TCM    cl2 1396   0.594   2.974   4.081
    1TCM     h1 1397   0.781   3.109   4.016
    1TCM    cl3 1398   0.685   3.034   3.811
    1TCM     c1 1399   1.553   2.784   3.142
    1TCM    cl1 1400   1.607   2.928   3.052
    1TCM    cl2 1401   1.465   2.675   3.032
    1TCM     h1 1402   1.641   2.732   3.184
    1TCM    cl3 1403   1.445   2.835   3.274
    1TCM     c1 1404   3.777   4.797   3.815
    1TCM    cl1 1405   3.636   4.796   3.707
    1TCM    cl2 1406   3.727   4.749   3.979
    1TCM     h1 1407   3.853   4.726   3.777
    1TCM    cl3 1408   3.846   4.961   3.820
    1TCM     c1 1409   0.160   3.223   0.508
    1TCM    cl1 1410   0.238   3.235   0.667
    1TCM    cl2 1411   0.152   3.052   0.458
    1TCM     h1 1412   0.057   3.264   0.513
    1TCM    cl3 1413   0.255   3.314   0.388
    1TCM     c1 1414   1.454   2.279   5.067
    1TCM    cl1 1415   1.514   2.123   5.127
    1TCM    cl2 1416   1.553   2.411   5.133
    1TCM     h1 1417   1.459   2.281   4.956
    1TCM    cl3 1418   1.285   2.300   5.119
    1TCM     c1 1419   0.252   1.925   3.022
    1TCM    cl1 1420   0.277   1.767   2.944
    1TCM    cl2 1421   0.402   2.020   3.010
    1TCM     h1 1422   0.170   1.979   2.971
    1TCM    cl3 1423   0.210   1.901   3.193
    1TCM     c1 1424   3.700   0.222   4.945
    1TCM    cl1 1425   3.643   0.315   4.805
    1TCM    cl2 1426   3.567   0.122   5.008
    1TCM     h1 1427   3.785   0.157   4.915
    1TCM    cl3 1428   3.754   0.335   5.072
    1TCM     c1 1429   1.682   2.628   2.161
    1TCM    cl1 1430   1.650   2.607   2.334
    1TCM    cl2 1431   1.780   2.492   2.101
    1TCM     h1 1432   1.586   2.632   2.105
    1TCM    cl3 1433   1.771   2.780   2.135
    1TCM     c1 1434   4.414   0.316   3.986
    1TCM    cl1 1435   4.298   0.325   4.120
    1TCM    cl2 1436   4.331   0.353   3.833
    1TCM     h1 1437   4.495   0.389   4.003
    1TCM    cl3 1438   4.483   0.152   3.978
    1TCM     c1 1439   0.288   3.814   1.593
    1TCM    cl1 1440   0.439   3.888   1.536
    1TCM    cl2 1441   0.169   3.941   1.628
    1TCM     h1 1442   0.248   3.746   1.514
    1TCM    cl3 1443   0.320   3.720   1.740
    1TCM     c1 1444   0.254   1.608   0.903
    1TCM    cl1 1445   0.161   1.533   1.035
    1TCM    cl2 1446   0.370   1.724   0.971
    1TCM     h1 1447   0.309   1.529   0.847
    1TCM    cl3 1448   0.143   1.693   0.793
    1TCM     c1 1449   3.926   2.428   3.129
    1TCM    cl1 1450   4.015   2.579   3.156
    1TCM    cl2 1451   3.763   2.465   3.069
    1TCM     h1 1452   3.980   2.366   3.055
    1TCM    cl3 1453   3.914   2.338   3.283
    1TCM     c1 1454   0.287   4.838   2.858
    1TCM    cl1 1455   0.345   4.678   2.808
    1TCM    cl2 1456   0.149   4.819   2.968
    1TCM     h1 1457   0.368   4.893   2.909
    1TCM    cl3 1458   0.235   4.930   2.714
    1TCM     c1 1459   0.141   4.649   2.484
    1TCM    cl1 1460   0.086   4.684   2.649
    1TCM    cl2 1461   0.218   4.794   2.415
    1TCM     h1 1462   0.214   4.566   2.486
    1TCM    cl3 1463   0.002   4.603   2.384
    1TCM     c1 1464   0.536   2.584   2.418
    1TCM    cl1 1465   0.376   2.610   2.345
    1TCM    cl2 1466   0.660   2.667   2.322
    1TCM     h1 1467   0.536   2.624   2.522
    1TCM    cl3 1468   0.571   2.409   2.423
    1TCM     c1 1469   0.613   4.021   2.844
    1TCM    cl1 1470   0.453   4.095   2.869
    1TCM    cl2 1471   0.627   3.969   2.674
    1TCM     h1 1472   0.692   4.095   2.867
    1TCM    cl3 1473   0.631   3.880   2.951
    1TCM     c1 1474   2.316   0.836   4.317
    1TCM    cl1 1475   2.394   0.783   4.468
    1TCM    cl2 1476   2.144   0.867   4.346
    1TCM     h1 1477   2.365   0.929   4.281
    1TCM    cl3 1478   2.334   0.709   4.193
    1TCM     c1 1479   1.857   1.957   2.216
    1TCM    cl1 1480   1.690   1.897   2.211
    1TCM    cl2 1481   1.916   1.952   2.384
    1TCM     h1 1482   1.922   1.893   2.152
    1TCM    cl3 1483   1.862   2.125   2.156
    1TCM     c1 1484   0.911   3.200   2.325
    1TCM    cl1 1485   0.992   3.209   2.484
    1TCM    cl2 1486   0.966   3.335   2.224
    1TCM     h1 1487   0.937   3.104   2.276
    1TCM    cl3 1488   0.735   3.210   2.347
    1TCM     c1 1489   4.930   3.975   2.953
    1TCM    cl1 1490   4.834   4.016   2.809
    1TCM    cl2 1491   4.832   4.002   3.099
    1TCM     h1 1492   4.960   3.869   2.948
    1TCM    cl3 1493   5.075   4.078   2.959
    1TCM     c1 1494   4.242   1.033   4.551
    1TCM    cl1 1495   4.413   1.076   4.528
    1TCM    cl2 1496   4.183   0.944   4.409
    1TCM     h1 1497   4.231   0.970   4.642
    1TCM    cl3 1498   4.146   1.182   4.572
    1TCM     c1 1499   0.142   3.110   4.632
    1TCM    cl1 1500   0.306   3.049   4.599
    1TCM    cl2 1501   0.134   3.171   4.799
    1TCM     h1 1502   0.118   3.192   4.562
    1TCM    cl3 1503   0.025   2.978   4.612
    1TCM     c1 1504   1.055   1.827   0.321
    1TCM    cl1 1505   1.198   1.807   0.425
    1TCM    cl2 1506   1.055   1.990   0.250
    1TCM     h1 1507   1.058   1.752   0.239
    1TCM    cl3 1508   0.908   1.804   0.417
    1TCM     c1 1509   1.942   2.149   1.784
    1TCM    cl1 1510   1.840   2.072   1.908
    1TCM    cl2 1511   1.870   2.123   1.623
    1TCM     h1 1512   1.949   2.258   1.804
    1TCM    cl3 1513   2.105   2.078   1.788
    1TCM     c1 1514   2.602   4.480   3.903
    1TCM    cl1 1515   2.485   4.608   3.942
    1TCM    cl2 1516   2.722   4.543   3.787
    1TCM     h1 1517   2.654   4.448   3.995
    1TCM    cl3 1518   2.517   4.342   3.830
    1TCM     c1 1519   3.272   0.503   1.681
    1TCM    cl1 1520   3.249   0.629   1.804
    1TCM    cl2 1521   3.320   0.578   1.528
    1TCM     h1 1522   3.351   0.433   1.715
    1TCM    cl3 1523   3.120   0.413   1.659
    1TCM     c1 1524   2.466   4.825   4.859
    1TCM    cl1 1525   2.347   4.695   4.834
    1TCM    cl2 1526   2.545   4.863   4.704
    1TCM     h1 1527   2.414   4.915   4.897
    1TCM    cl3 1528   2.588   4.772   4.977
    1TCM     c1 1529   2.456   1.165   3.018
    1TCM    cl1 1530   2.595   1.267   2.974
    1TCM    cl2 1531   2.412   1.061   2.880
    1TCM     h1 1532   2.482   1.102   3.105
    1TCM    cl3 1533   2.317   1.269   3.060
    1TCM     c1 1534   0.836   1.773   4.994
    1TCM    cl1 1535   0.777   1.679   5.133
    1TCM    cl2 1536   0.996   1.840   5.032
    1TCM     h1 1537   0.843   1.707   4.905
    1TCM    cl3 1538   0.722   1.906   4.960
    1TCM     c1 1539   3.212   0.807   3.083
    1TCM    cl1 1540   3.161   0.875   2.927
    1TCM    cl2 1541   3.184   0.926   3.212
    1TCM     h1 1542   3.153   0.715   3.103
    1TCM    cl3 1543   3.385   0.766   3.076
    1TCM     c1 1544   3.714   0.756   1.684
    1TCM    cl1 1545   3.779   0.793   1.522
    1TCM    cl2 1546   3.624   0.897   1.745
    1TCM     h1 1547   3.646   0.669   1.677
    1TCM    cl3 1548   3.848   0.719   1.794
    1TCM     c1 1549   0.487   0.416   0.624
    1TCM    cl1 1550   0.629   0.517   0.590
    1TCM    cl2 1551   0.418   0.461   0.781
    1TCM     h1 1552   0.411   0.432   0.544
    1TCM    cl3 1553   0.535   0.245   0.627
    1TCM     c1 1554   0.858   3.837   3.728
    1TCM    cl1 1555   0.913   3.975   3.827
    1TCM    cl2 1556   0.828   3.697   3.833
    1TCM     h1 1557   0.765   3.865   3.675
    1TCM    cl3 1558   0.984   3.796   3.609
    1TCM     c1 1559   5.286   4.238   4.470
    1TCM    cl1 1560   5.333   4.291   4.633
    1TCM    cl2 1561   5.327   4.364   4.352
    1TCM     h1 1562   5.340   4.144   4.444
    1TCM    cl3 1563   5.111   4.208   4.466
    1TCM     c1 1564   3.757   1.769   0.930
    1TCM    cl1 1565   3.646   1.902   0.890
    1TCM    cl2 1566   3.788   1.769   1.105
    1TCM     h1 1567   3.711   1.673   0.901
    1TCM    cl3 1568   3.910   1.791   0.843
    1TCM     c1 1569   3.365   4.596   4.103
    1TCM    cl1 1570   3.299   4.492   4.231
    1TCM    cl2 1571   3.232   4.677   4.017
    1TCM     h1 1572   3.431   4.673   4.149
    1TCM    cl3 1573   3.459   4.498   3.988
    1TCM     c1 1574   1.697   4.740   3.217
    1TCM    cl1 1575   1.704   4.565   3.187
    1TCM    cl2 1576   1.844   4.817   3.153
    1TCM     h1 1577   1.608   4.783   3.167
    1TCM    cl3 1578   1.687   4.770   3.392
    1TCM     c1 1579   2.582   0.540   2.682
    1TCM    cl1 1580   2.500   0.652   2.793
    1TCM    cl2 1581   2.576   0.606   2.516
    1TCM     h1 1582   2.688   0.528   2.713
    1TCM    cl3 1583   2.500   0.382   2.685
    1TCM     c1 1584   2.586   1.485   4.548
    1TCM    cl1 1585   2.471   1.365   4.613
    1TCM    cl2 1586   2.562   1.501   4.373
    1TCM     h1 1587   2.568   1.582   4.597
    1TCM    cl3 1588   2.752   1.431   4.580
    1TCM     c1 1589   2.987   2.415   0.629
    1TCM    cl1 1590   2.930   2.569   0.560
    1TCM    cl2 1591   3.162   2.427   0.662
    1TCM     h1 1592   2.933   2.395   0.724
    1TCM    cl3 1593   2.958   2.284   0.513
    1TCM     c1 1594   1.654   0.518   4.973
    1TCM    cl1 1595   1.581   0.556   4.816
    1TCM    cl2 1596   1.525   0.482   5.091
    1TCM     h1 1597   1.721   0.430   4.963
    1TCM    cl3 1598   1.748   0.658   5.030
    1TCM     c1 1599   0.759   1.638   1.662
    1TCM    cl1 1600   0.675   1.723   1.793
    1TCM    cl2 1601   0.782   1.467   1.707
    1TCM     h1 1602   0.698   1.644   1.569
    1TCM    cl3 1603   0.918   1.713   1.635
    1TCM     c1 1604   4.995   3.184   0.320
    1TCM    cl1 1605   4.902   3.043   0.265
    1TCM    cl2 1606   4.892   3.286   0.423
    1TCM     h1 1607   5.083   3.150   0.378
    1TCM    cl3 1608   5.049   3.278   0.179
    1TCM     c1 1609   0.682   1.734   3.972
    1TCM    cl1 1610   0.760   1.611   4.073
    1TCM    cl2 1611   0.630   1.870   4.074
    1TCM     h1 1612   0.754   1.771   3.896
    1TCM    cl3 1613   0.541   1.663   3.890
    1TCM     c1 1614   0.960   0.800   0.452
    1TCM    cl1 1615   0.806   0.761   0.372
    1TCM    cl2 1616   1.048   0.649   0.488
    1TCM     h1 1617   1.021   0.864   0.386
    1TCM    cl3 1618   0.928   0.887   0.604
    1TCM     c1 1619   3.533   4.884   4.917
    1TCM    cl1 1620   3.605   4.821   5.067
    1TCM    cl2 1621   3.605   4.800   4.777
    1TCM     h1 1622   3.424   4.866   4.918
    1TCM    cl3 1623   3.565   5.058   4.904
    1TCM     c1 1624   2.896   4.374   3.478
    1TCM    cl1 1625   2.911   4.248   3.602
    1TCM    cl2 1626   2.737   4.361   3.399
    1TCM     h1 1627   2.906   4.474   3.524
    1TCM    cl3 1628   3.024   4.352   3.356
    1TCM     c1 1629   2.888   4.482   3.159
    1TCM    cl1 1630   2.850   4.308   3.167
    1TCM    cl2 1631   2.827   4.562   3.306
    1TCM     h1 1632   2.999   4.495   3.154
    1TCM    cl3 1633   2.812   4.554   3.016
    1TCM     c1 1634   3.399   1.481   2.742
    1TCM    cl1 1635   3.333   1.326   2.684
    1TCM    cl2 1636   3.553   1.452   2.826
    1TCM     h1 1637   3.415   1.549   2.656
    1TCM    cl3 1638   3.284   1.555   2.856
    1TCM     c1 1639   4.391   2.272   5.259
    1TCM    cl1 1640   4.404   2.114   5.340
    1TCM    cl2 1641   4.376   2.247   5.083
    1TCM     h1 1642   4.302   2.326   5.297
    1TCM    cl3 1643   4.537   2.368   5.293
    1TCM     c1 1644   3.168   2.191   0.797
    1TCM    cl1 1645   3.217   2.193   0.626
    1TCM    cl2 1646   3.232   2.336   0.879
    1TCM     h1 1647   3.057   2.191   0.805
    1TCM    cl3 1648   3.233   2.045   0.876
    1TCM     c1 1649   4.619   4.834   1.568
    1TCM    cl1 1650   4.664   4.667   1.528
    1TCM    cl2 1651   4.515   4.835   1.712
    1TCM     h1 1652   4.710   4.893   1.588
    1TCM    cl3 1653   4.531   4.906   1.431
    1TCM     c1 1654   4.645   0.722   3.254
    1TCM    cl1 1655   4.622   0.553   3.302
    1TCM    cl2 1656   4.588   0.744   3.087
    1TCM     h1 1657   4.587   0.788   3.322
    1TCM    cl3 1658   4.817   0.764   3.264
    1TCM     c1 1659   3.555   2.209   0.438
    1TCM    cl1 1660   3.672   2.343   0.427
    1TCM    cl2 1661   3.637   2.065   0.502
    1TCM     h1 1662   3.472   2.238   0.506
    1TCM    cl3 1663   3.490   2.174   0.276
    1TCM     c1 1664   1.771   0.137   2.728
    1TCM    cl1 1665   1.669   0.204   2.858
    1TCM    cl2 1666   1.920   0.233   2.714
    1TCM     h1 1667   1.797   0.032   2.752
    1TCM    cl3 1668   1.682   0.143   2.574
    1TCM     c1 1669   1.242   4.686   5.119
    1TCM    cl1 1670   1.155   4.559   5.030
    1TCM    cl2 1671   1.349   4.611   5.240
    1TCM     h1 1672   1.302   4.746   5.049
    1TCM    cl3 1673   1.125   4.792   5.202
    1TCM     c1 1674   5.128   0.290   4.511
    1TCM    cl1 1675   5.183   0.209   4.362
    1TCM    cl2 1676   5.162   0.186   4.651
    1TCM     h1 1677   5.182   0.386   4.522
    1TCM    cl3 1678   4.953   0.320   4.501
    1TCM     c1 1679   4.367   4.853   0.239
    1TCM    cl1 1680   4.198   4.907   0.255
    1TCM    cl2 1681   4.436   4.826   0.401
    1TCM     h1 1682   4.370   4.759   0.181
    1TCM    cl3 1683   4.461   4.978   0.155
    1TCM     c1 1684   0.594   2.562   3.949
    1TCM    cl1 1685   0.462   2.635   3.854
    1TCM    cl2 1686   0.542   2.540   4.117
    1TCM     h1 1687   0.621   2.464   3.905
    1TCM    cl3 1688   0.736   2.670   3.945
    1TCM     c1 1689   4.121   1.324   1.667
    1TCM    cl1 1690   4.188   1.325   1.503
    1TCM    cl2 1691   4.127   1.488   1.735
    1TCM     h1 1692   4.016   1.289   1.664
    1TCM    cl3 1693   4.217   1.214   1.769
    1TCM     c1 1694   1.400   4.861   0.377
    1TCM    cl1 1695   1.513   4.991   0.332
    1TCM    cl2 1696   1.391   4.849   0.554
    1TCM     h1 1697   1.299   4.885   0.337
    1TCM    cl3 1698   1.456   4.707   0.309
    1TCM     c1 1699   2.931   1.659   3.581
    1TCM    cl1 1700   3.007   1.782   3.477
    1TCM    cl2 1701   3.052   1.597   3.695
    1TCM     h1 1702   2.847   1.705   3.637
    1TCM    cl3 1703   2.870   1.526   3.481
    1TCM     c1 1704   1.836   2.129   1.029
    1TCM    cl1 1705   1.794   2.254   0.910
    1TCM    cl2 1706   1.742   2.155   1.178
    1TCM     h1 1707   1.813   2.029   0.987
    1TCM    cl3 1708   2.010   2.140   1.066
    1TCM     c1 1709   1.408   0.835   0.602
    1TCM    cl1 1710   1.278   0.905   0.702
    1TCM    cl2 1711   1.513   0.733   0.703
    1TCM     h1 1712   1.363   0.773   0.521
    1TCM    cl3 1713   1.504   0.966   0.529
    1TCM     c1 1714   1.196   1.983   1.115
    1TCM    cl1 1715   1.260   1.874   1.239
    1TCM    cl2 1716   1.045   1.916   1.049
    1TCM     h1 1717   1.175   2.082   1.160
    1TCM    cl3 1718   1.315   2.001   0.984
    1TCM     c1 1719   5.258   1.171   0.436
    1TCM    cl1 1720   5.144   1.266   0.337
    1TCM    cl2 1721   5.172   1.035   0.512
    1TCM     h1 1722   5.339   1.132   0.371
    1TCM    cl3 1723   5.327   1.275   0.562
    1TCM     c1 1724   1.859   2.627   0.933
    1TCM    cl1 1725   1.827   2.612   0.759
    1TCM    cl2 1726   1.814   2.475   1.015
    1TCM     h1 1727   1.967   2.647   0.949
    1TCM    cl3 1728   1.763   2.761   0.999
    1TCM     c1 1729   1.309   1.187   0.268
    1TCM    cl1 1730   1.280   1.049   0.376
    1TCM    cl2 1731   1.190   1.186   0.136
    1TCM     h1 1732   1.300   1.282   0.325
    1TCM    cl3 1733   1.473   1.175   0.199
    1TCM     c1 1734   3.053   0.240   0.864
    1TCM    cl1 1735   3.124   0.286   1.021
    1TCM    cl2 1736   2.927   0.118   0.891
    1TCM     h1 1737   3.008   0.329   0.816
    1TCM    cl3 1738   3.179   0.173   0.759
    1TCM     c1 1739   1.968   3.387   1.020
    1TCM    cl1 1740   1.797   3.389   0.974
    1TCM    cl2 1741   1.982   3.366   1.196
    1TCM     h1 1742   2.019   3.303   0.968
    1TCM    cl3 1743   2.045   3.540   0.972
    1TCM     c1 1744   2.560   4.189   2.028
    1TCM    cl1 1745   2.667   4.138   1.895
    1TCM    cl2 1746   2.657   4.211   2.175
    1TCM     h1 1747   2.511   4.285   2.001
    1TCM    cl3 1748   2.437   4.064   2.056
    1TCM     c1 1749   4.649   0.462   4.230
    1TCM    cl1 1750   4.702   0.333   4.120
    1TCM    cl2 1751   4.791   0.531   4.313
    1TCM     h1 1752   4.598   0.542   4.172
    1TCM    cl3 1753   4.537   0.395   4.350
    1TCM     c1 1754   2.357   0.679   3.651
    1TCM    cl1 1755   2.499   0.576   3.626
    1TCM    cl2 1756   2.245   0.599   3.763
    1TCM     h1 1757   2.389   0.776   3.694
    1TCM    cl3 1758   2.276   0.707   3.496
    1TCM     c1 1759   1.115   4.677   2.405
    1TCM    cl1 1760   1.025   4.755   2.274
    1TCM    cl2 1761   1.159   4.798   2.527
    1TCM     h1 1762   1.052   4.598   2.452
    1TCM    cl3 1763   1.262   4.602   2.339
    1TCM     c1 1764   5.134   0.232   0.359
    1TCM    cl1 1765   4.962   0.198   0.333
    1TCM    cl2 1766   5.208   0.285   0.206
    1TCM     h1 1767   5.145   0.312   0.435
    1TCM    cl3 1768   5.216   0.085   0.416
    1TCM     c1 1769   4.569   0.620   3.727
    1TCM    cl1 1770   4.494   0.579   3.571
    1TCM    cl2 1771   4.739   0.667   3.700
    1TCM     h1 1772   4.515   0.704   3.774
    1TCM    cl3 1773   4.564   0.478   3.834
    1TCM     c1 1774   3.609   5.100   4.453
    1TCM    cl1 1775   3.566   5.224   4.573
    1TCM    cl2 1776   3.786   5.080   4.449
    1TCM     h1 1777   3.562   5.003   4.480
    1TCM    cl3 1778   3.552   5.151   4.293
    1TCM     c1 1779   1.465   1.875   1.591
    1TCM    cl1 1780   1.532   1.852   1.428
    1TCM    cl2 1781   1.288   1.867   1.584
    1TCM     h1 1782   1.503   1.794   1.658
    1TCM    cl3 1783   1.515   2.033   1.654
    1TCM     c1 1784   3.261   1.032   2.264
    1TCM    cl1 1785   3.114   1.121   2.309
    1TCM    cl2 1786   3.326   1.099   2.112
    1TCM     h1 1787   3.337   1.043   2.344
    1TCM    cl3 1788   3.223   0.860   2.241
    1TCM     c1 1789   3.618   0.392   0.512
    1TCM    cl1 1790   3.558   0.496   0.381
    1TCM    cl2 1791   3.568   0.459   0.668
    1TCM     h1 1792   3.575   0.290   0.500
    1TCM    cl3 1793   3.795   0.384   0.505
    1TCM     c1 1794   0.678   1.373   1.992
    1TCM    cl1 1795   0.799   1.502   1.975
    1TCM    cl2 1796   0.706   1.248   1.867
    1TCM     h1 1797   0.686   1.327   2.092
    1TCM    cl3 1798   0.515   1.441   1.970
    1TCM     c1 1799   2.797   3.732   1.309
    1TCM    cl1 1800   2.668   3.650   1.217
    1TCM    cl2 1801   2.778   3.697   1.482
    1TCM     h1 1802   2.896   3.695   1.275
    1TCM    cl3 1803   2.787   3.908   1.282
    1TCM     c1 1804   2.479   2.891   4.466
    1TCM    cl1 1805   2.636   2.848   4.536
    1TCM    cl2 1806   2.371   2.749   4.470
    1TCM     h1 1807   2.434   2.973   4.525
    1TCM    cl3 1808   2.501   2.943   4.298
    1TCM     c1 1809   0.545   2.323   0.885
    1TCM    cl1 1810   0.693   2.348   0.789
    1TCM    cl2 1811   0.587   2.243   1.038
    1TCM     h1 1812   0.498   2.421   0.906
    1TCM    cl3 1813   0.432   2.221   0.793
    1TCM     c1 1814   2.578   0.471   1.644
    1TCM    cl1 1815   2.746   0.421   1.613
    1TCM    cl2 1816   2.491   0.486   1.490
    1TCM     h1 1817   2.529   0.394   1.708
    1TCM    cl3 1818   2.578   0.627   1.729
    1TCM     c1 1819   2.446   3.642   0.175
    1TCM    cl1 1820   2.616   3.593   0.187
    1TCM    cl2 1821   2.365   3.616   0.331
    1TCM     h1 1822   2.440   3.749   0.147
    1TCM    cl3 1823   2.365   3.544   0.049
    1TCM     c1 1824   0.176   3.443   4.965
    1TCM    cl1 1825   0.134   3.395   4.799
    1TCM    cl2 1826   0.119   3.319   5.079
    1TCM     h1 1827   0.286   3.453   4.974
    1TCM    cl3 1828   0.099   3.599   5.004
    1TCM     c1 1829   3.835   1.915   1.856
    1TCM    cl1 1830   3.954   1.848   1.742
    1TCM    cl2 1831   3.915   2.034   1.962
    1TCM     h1 1832   3.754   1.965   1.799
    1TCM    cl3 1833   3.767   1.784   1.954
    1TCM     c1 1834   1.911   2.854   3.052
    1TCM    cl1 1835   2.062   2.856   3.145
    1TCM    cl2 1836   1.795   2.968   3.124
    1TCM     h1 1837   1.931   2.883   2.947
    1TCM    cl3 1838   1.841   2.690   3.055
    1TCM     c1 1839   4.538   2.816   0.719
    1TCM    cl1 1840   4.434   2.945   0.654
    1TCM    cl2 1841   4.615   2.729   0.585
    1TCM     h1 1842   4.616   2.861   0.784
    1TCM    cl3 1843   4.439   2.703   0.814
    1TCM     c1 1844   5.105   4.274   1.755
    1TCM    cl1 1845   5.255   4.249   1.664
    1TCM    cl2 1846   5.144   4.325   1.921
    1TCM     h1 1847   5.044   4.353   1.706
    1TCM    cl3 1848   5.012   4.122   1.760
    1TCM     c1 1849   3.148   1.231   3.946
    1TCM    cl1 1850   3.165   1.177   4.115
    1TCM    cl2 1851   3.299   1.310   3.894
    1TCM     h1 1852   3.128   1.143   3.881
    1TCM    cl3 1853   3.014   1.347   3.933
    1TCM     c1 1854   0.889   3.833   2.462
    1TCM    cl1 1855   0.780   3.719   2.380
    1TCM    cl2 1856   0.922   3.775   2.627
    1TCM     h1 1857   0.984   3.840   2.406
    1TCM    cl3 1858   0.812   3.993   2.470
    1TCM     c1 1859   2.980   4.184   2.253
    1TCM    cl1 1860   2.852   4.222   2.371
    1TCM    cl2 1861   2.949   4.272   2.102
    1TCM     h1 1862   3.078   4.214   2.295
    1TCM    cl3 1863   2.980   4.009   2.221
    1TCM     c1 1864   1.292   2.953   2.411
    1TCM    cl1 1865   1.288   3.036   2.254
    1TCM    cl2 1866   1.455   2.885   2.438
    1TCM     h1 1867   1.269   3.025   2.492
    1TCM    cl3 1868   1.173   2.821   2.412
    1TCM     c1 1869   4.605   0.164   5.155
    1TCM    cl1 1870   4.727   0.278   5.216
    1TCM    cl2 1871   4.463   0.168   5.262
    1TCM     h1 1872   4.575   0.194   5.052
    1TCM    cl3 1873   4.673   0.000   5.153
    1TCM     c1 1874   4.155   4.919   2.319
    1TCM    cl1 1875   4.184   5.071   2.232
    1TCM    cl2 1876   4.238   4.924   2.476
    1TCM     h1 1877   4.046   4.906   2.335
    1TCM    cl3 1878   4.218   4.783   2.224
    1TCM     c1 1879   1.415   5.045   3.121
    1TCM    cl1 1880   1.336   4.893   3.165
    1TCM    cl2 1881   1.396   5.075   2.947
    1TCM     h1 1882   1.369   5.129   3.178
    1TCM    cl3 1883   1.589   5.035   3.160
    1TCM     c1 1884   3.398   5.007   3.778
    1TCM    cl1 1885   3.427   5.148   3.882
    1TCM    cl2 1886   3.489   4.867   3.841
    1TCM     h1 1887   3.290   4.983   3.777
    1TCM    cl3 1888   3.453   5.043   3.613
    1TCM     c1 1889   3.317   2.217   4.976
    1TCM    cl1 1890   3.269   2.191   5.145
    1TCM    cl2 1891   3.463   2.122   4.941
    1TCM     h1 1892   3.235   2.185   4.909
    1TCM    cl3 1893   3.352   2.389   4.950
    1TCM     c1 1894   4.948   4.276   2.532
    1TCM    cl1 1895   5.120   4.293   2.490
    1TCM    cl2 1896   4.919   4.347   2.693
    1TCM     h1 1897   4.886   4.329   2.457
    1TCM    cl3 1898   4.904   4.104   2.534
    1TCM     c1 1899   5.041   3.113   2.424
    1TCM    cl1 1900   5.012   3.229   2.293
    1TCM    cl2 1901   4.951   2.963   2.393
    1TCM     h1 1902   5.150   3.090   2.430
    1TCM    cl3 1903   4.987   3.184   2.579
    1TCM     c1 1904   1.247   2.246   0.760
    1TCM    cl1 1905   1.354   2.384   0.729
    1TCM    cl2 1906   1.079   2.292   0.725
    1TCM     h1 1907   1.276   2.161   0.694
    1TCM    cl3 1908   1.261   2.197   0.930
    1TCM     c1 1909   1.121   1.977   4.078
    1TCM    cl1 1910   1.121   1.810   4.141
    1TCM    cl2 1911   1.068   1.976   3.908
    1TCM     h1 1912   1.052   2.039   4.138
    1TCM    cl3 1913   1.286   2.043   4.088
    1TCM     c1 1914   4.107   3.457   1.293
    1TCM    cl1 1915   4.242   3.342   1.279
    1TCM    cl2 1916   4.126   3.586   1.173
    1TCM     h1 1917   4.011   3.403   1.276
    1TCM    cl3 1918   4.106   3.527   1.457
    1TCM     c1 1919   0.267   5.158   2.129
    1TCM    cl1 1920   0.295   5.333   2.118
    1TCM    cl2 1921   0.139   5.112   2.014
    1TCM     h1 1922   0.361   5.104   2.103
    1TCM    cl3 1923   0.217   5.116   2.294
    1TCM     c1 1924   1.333   2.543   1.742
    1TCM    cl1 1925   1.384   2.387   1.673
    1TCM    cl2 1926   1.381   2.550   1.913
    1TCM     h1 1927   1.382   2.626   1.687
    1TCM    cl3 1928   1.156   2.559   1.729
    1TCM     c1 1929   0.914   2.317   4.117
    1TCM    cl1 1930   0.933   2.207   3.979
    1TCM    cl2 1931   0.974   2.239   4.265
    1TCM     h1 1932   0.972   2.410   4.098
    1TCM    cl3 1933   0.742   2.358   4.137
    1TCM     c1 1934   1.099   0.899   5.192
    1TCM    cl1 1935   1.219   1.018   5.136
    1TCM    cl2 1936   1.176   0.738   5.199
    1TCM     h1 1937   1.064   0.927   5.293
    1TCM    cl3 1938   0.962   0.895   5.079
    1TCM     c1 1939   3.682   2.967   0.980
    1TCM    cl1 1940   3.529   3.055   1.002
    1TCM    cl2 1941   3.781   2.983   1.126
    1TCM     h1 1942   3.661   2.859   0.962
    1TCM    cl3 1943   3.769   3.034   0.840
    1TCM     c1 1944   3.528   5.135   2.678
    1TCM    cl1 1945   3.705   5.124   2.659
    1TCM    cl2 1946   3.450   5.112   2.520
    1TCM     h1 1947   3.494   5.056   2.748
    1TCM    cl3 1948   3.486   5.294   2.743
    1TCM     c1 1949   4.587   3.192   5.228
    1TCM    cl1 1950   4.465   3.280   5.323
    1TCM    cl2 1951   4.582   3.249   5.059
    1TCM     h1 1952   4.687   3.210   5.270
    1TCM    cl3 1953   4.550   3.018   5.232
    1TCM     c1 1954   3.119   1.392   2.677
    1TCM    cl1 1955   2.942   1.390   2.684
    1TCM    cl2 1956   3.174   1.299   2.536
    1TCM     h1 1957   3.155   1.497   2.669
    1TCM    cl3 1958   3.185   1.318   2.825
    1TCM     c1 1959   2.300   4.525   3.599
    1TCM    cl1 1960   2.225   4.640   3.486
    1TCM    cl2 1961   2.202   4.515   3.747
    1TCM     h1 1962   2.306   4.425   3.552
    1TCM    cl3 1963   2.464   4.581   3.640
    1TCM     c1 1964   3.545   2.261   0.920
    1TCM    cl1 1965   3.529   2.432   0.875
    1TCM    cl2 1966   3.569   2.248   1.096
    1TCM     h1 1967   3.452   2.207   0.892
    1TCM    cl3 1968   3.684   2.190   0.835
    1TCM     c1 1969   2.357   2.191   2.736
    1TCM    cl1 1970   2.457   2.317   2.660
    1TCM    cl2 1971   2.434   2.032   2.710
    1TCM     h1 1972   2.349   2.211   2.845
    1TCM    cl3 1973   2.195   2.191   2.663
    1TCM     c1 1974   2.369   2.657   4.087
    1TCM    cl1 1975   2.349   2.794   4.199
    1TCM    cl2 1976   2.317   2.706   3.924
    1TCM     h1 1977   2.476   2.627   4.084
    1TCM    cl3 1978   2.270   2.521   4.142
    1TCM     c1 1979   5.018   1.898   1.666
    1TCM    cl1 1980   5.009   2.076   1.656
    1TCM    cl2 1981   4.861   1.828   1.622
    1TCM     h1 1982   5.096   1.861   1.597
    1TCM    cl3 1983   5.060   1.850   1.832
    1TCM     c1 1984   1.665   1.364   3.587
    1TCM    cl1 1985   1.537   1.394   3.467
    1TCM    cl2 1986   1.630   1.213   3.674
    1TCM     h1 1987   1.763   1.355   3.535
    1TCM    cl3 1988   1.671   1.499   3.703
    1TCM     c1 1989   3.441   4.286   1.952
    1TCM    cl1 1990   3.557   4.413   1.907
    1TCM    cl2 1991   3.529   4.137   1.993
    1TCM     h1 1992   3.382   4.319   2.039
    1TCM    cl3 1993   3.332   4.254   1.815
    1TCM     c1 1994   2.071   3.580   0.481
    1TCM    cl1 1995   2.046   3.510   0.642
    1TCM    cl2 1996   1.948   3.704   0.450
    1TCM     h1 1997   2.172   3.626   0.476
    1TCM    cl3 1998   2.058   3.452   0.358
    1TCM     c1 1999   4.625   2.125   3.260
    1TCM    cl1 2000   4.763   2.118   3.148
    1TCM    cl2 2001   4.614   2.287   3.332
    1TCM     h1 2002   4.531   2.102   3.204
    1TCM    cl3 2003   4.647   2.004   3.389
    1TCM     c1 2004   2.423   3.938   1.401
    1TCM    cl1 2005   2.287   3.918   1.288
    1TCM    cl2 2006   2.378   3.870   1.559
    1TCM     h1 2007   2.512   3.886   1.362
    1TCM    cl3 2008   2.459   4.111   1.420
    1TCM     c1 2009   1.050   4.873   4.743
    1TCM    cl1 2010   1.150   4.750   4.823
    1TCM    cl2 2011   1.041   4.838   4.568
    1TCM     h1 2012   0.947   4.871   4.786
    1TCM    cl3 2013   1.122   5.034   4.767
    1TCM     c1 2014   3.012   3.047   3.775
    1TCM    cl1 2015   3.164   3.099   3.699
    1TCM    cl2 2016   2.880   3.154   3.722
    1TCM     h1 2017   2.990   2.942   3.744
    1TCM    cl3 2018   3.027   3.055   3.952
    1TCM     c1 2019   3.795   3.983   1.183
    1TCM    cl1 2020   3.646   3.953   1.276
    1TCM    cl2 2021   3.781   3.906   1.023
    1TCM     h1 2022   3.810   4.092   1.170
    1TCM    cl3 2023   3.934   3.914   1.269
    1TCM     c1 2024   2.545   1.477   4.080
    1TCM    cl1 2025   2.527   1.561   3.924
    1TCM    cl2 2026   2.454   1.565   4.205
    1TCM     h1 2027   2.506   1.374   4.071
    1TCM    cl3 2028   2.717   1.472   4.125
    1TCM     c1 2029   2.090   3.597   4.913
    1TCM    cl1 2030   2.089   3.754   4.998
    1TCM    cl2 2031   2.138   3.622   4.744
    1TCM     h1 2032   2.163   3.529   4.963
    1TCM    cl3 2033   1.928   3.526   4.919
    1TCM     c1 2034   4.804   3.597   2.724
    1TCM    cl1 2035   4.743   3.532   2.878
    1TCM    cl2 2036   4.725   3.752   2.691
    1TCM     h1 2037   4.914   3.612   2.732
    1TCM    cl3 2038   4.769   3.482   2.593
    1TCM     c1 2039   3.112   1.501   4.980
    1TCM    cl1 2040   2.997   1.516   4.845
    1TCM    cl2 2041   3.034   1.416   5.115
    1TCM     h1 2042   3.202   1.444   4.947
    1TCM    cl3 2043   3.162   1.663   5.034
    1TCM     c1 2044   0.622   0.576   4.120
    1TCM    cl1 2045   0.774   0.498   4.169
    1TCM    cl2 2046   0.621   0.599   3.944
    1TCM     h1 2047   0.536   0.512   4.149
    1TCM    cl3 2048   0.607   0.734   4.201
    1TCM     c1 2049   3.597   0.922   1.999
    1TCM    cl1 2050   3.470   0.836   1.909
    1TCM    cl2 2051   3.546   1.089   2.029
    1TCM     h1 2052   3.615   0.871   2.096
    1TCM    cl3 2053   3.747   0.922   1.904
    1TCM     c1 2054   2.836   0.118   2.518
    1TCM    cl1 2055   2.727   0.112   2.658
    1TCM    cl2 2056   2.778   0.005   2.392
    1TCM     h1 2057   2.839   0.221   2.477
    1TCM    cl3 2058   3.000   0.070   2.569
    1TCM     c1 2059   2.566   4.618   2.523
    1TCM    cl1 2060   2.525   4.732   2.393
    1TCM    cl2 2061   2.700   4.514   2.472
    1TCM     h1 2062   2.595   4.675   2.614
    1TCM    cl3 2063   2.423   4.518   2.560
    1TCM     c1 2064   0.867   1.034   2.206
    1TCM    cl1 2065   1.036   1.086   2.226
    1TCM    cl2 2066   0.844   0.970   2.041
    1TCM     h1 2067   0.844   0.954   2.279
    1TCM    cl3 2068   0.758   1.172   2.231
    1TCM     c1 2069   2.412   4.442   3.072
    1TCM    cl1 2070   2.393   4.502   3.239
    1TCM    cl2 2071   2.261   4.364   3.020
    1TCM     h1 2072   2.435   4.527   3.005
    1TCM    cl3 2073   2.545   4.325   3.066
    1TCM     c1 2074   3.959   1.583   4.996
    1TCM    cl1 2075   3.892   1.484   4.864
    1TCM    cl2 2076   3.856   1.568   5.139
    1TCM     h1 2077   4.062   1.548   5.020
    1TCM    cl3 2078   3.966   1.753   4.944
    1TCM     c1 2079   0.357   0.547   0.282
    1TCM    cl1 2080   0.190   0.568   0.337
    1TCM    cl2 2081   0.379   0.628   0.125
    1TCM     h1 2082   0.426   0.592   0.357
    1TCM    cl3 2083   0.393   0.374   0.266
    1TCM     c1 2084   3.933   3.831   5.168
    1TCM    cl1 2085   4.037   3.700   5.108
    1TCM    cl2 2086   3.884   3.796   5.335
    1TCM     h1 2087   3.990   3.927   5.166
    1TCM    cl3 2088   3.789   3.845   5.066
    1TCM     c1 2089   1.929   2.405   2.672
    1TCM    cl1 2090   1.954   2.291   2.806
    1TCM    cl2 2091   1.759   2.456   2.669
    1TCM     h1 2092   1.995   2.494   2.687
    1TCM    cl3 2093   1.970   2.326   2.518
    1TCM     c1 2094   2.141   4.128   1.575
    1TCM    cl1 2095   2.093   4.199   1.419
    1TCM    cl2 2096   2.136   3.951   1.564
    1TCM     h1 2097   2.244   4.161   1.600
    1TCM    cl3 2098   2.029   4.182   1.702
    1TCM     c1 2099   4.601   1.348   0.653
    1TCM    cl1 2100   4.492   1.423   0.533
    1TCM    cl2 2101   4.625   1.176   0.612
    1TCM     h1 2102   4.699   1.400   0.652
    1TCM    cl3 2103   4.528   1.360   0.814
    1TCM     c1 2104   2.586   4.596   0.630
    1TCM    cl1 2105   2.541   4.562   0.461
    1TCM    cl2 2106   2.517   4.753   0.678
    1TCM     h1 2107   2.545   4.516   0.695
    1TCM    cl3 2108   2.763   4.602   0.644
    1TCM     c1 2109   2.643   2.510   5.241
    1TCM    cl1 2110   2.753   2.619   5.328
    1TCM    cl2 2111   2.684   2.509   5.068
    1TCM     h1 2112   2.652   2.408   5.282
    1TCM    cl3 2113   2.476   2.567   5.261
    1TCM     c1 2114   1.561   3.322   2.500
    1TCM    cl1 2115   1.527   3.178   2.598
    1TCM    cl2 2116   1.495   3.298   2.336
    1TCM     h1 2117   1.514   3.411   2.546
    1TCM    cl3 2118   1.737   3.346   2.490
    1TCM     c1 2119   0.714   4.206   4.928
    1TCM    cl1 2120   0.764   4.096   4.798
    1TCM    cl2 2121   0.735   4.374   4.874
    1TCM     h1 2122   0.607   4.189   4.952
    1TCM    cl3 2123   0.813   4.177   5.072
    1TCM     c1 2124   0.301   2.368   1.794
    1TCM    cl1 2125   0.366   2.203   1.805
    1TCM    cl2 2126   0.386   2.473   1.911
    1TCM     h1 2127   0.317   2.407   1.691
    1TCM    cl3 2128   0.128   2.366   1.831
    1TCM     c1 2129   4.465   0.944   4.225
    1TCM    cl1 2130   4.559   0.821   4.138
    1TCM    cl2 2131   4.341   1.010   4.117
    1TCM     h1 2132   4.417   0.898   4.314
    1TCM    cl3 2133   4.573   1.075   4.278
    1TCM     c1 2134   4.001   1.111   0.443
    1TCM    cl1 2135   3.911   1.203   0.566
    1TCM    cl2 2136   4.043   1.219   0.308
    1TCM     h1 2137   4.094   1.070   0.488
    1TCM    cl3 2138   3.900   0.978   0.383
    1TCM     c1 2139   1.812   1.874   3.957
    1TCM    cl1 2140   1.929   1.758   4.025
    1TCM    cl2 2141   1.679   1.898   4.072
    1TCM     h1 2142   1.863   1.971   3.939
    1TCM    cl3 2143   1.748   1.811   3.804
    1TCM     c1 2144   0.329   1.847   2.019
    1TCM    cl1 2145   0.365   1.693   1.939
    1TCM    cl2 2146   0.330   1.824   2.195
    1TCM     h1 2147   0.406   1.922   1.991
    1TCM    cl3 2148   0.169   1.905   1.968
    1TCM     c1 2149   1.696   0.574   3.410
    1TCM    cl1 2150   1.848   0.532   3.493
    1TCM    cl2 2151   1.720   0.561   3.234
    1TCM     h1 2152   1.616   0.505   3.442
    1TCM    cl3 2153   1.651   0.741   3.452
    1TCM     c1 2154   2.209   4.197   1.118
    1TCM    cl1 2155   2.224   4.368   1.164
    1TCM    cl2 2156   2.097   4.115   1.230
    1TCM     h1 2157   2.170   4.190   1.015
    1TCM    cl3 2158   2.369   4.119   1.126
    1TCM     c1 2159   3.010   1.597   4.059
    1TCM    cl1 2160   3.090   1.650   4.209
    1TCM    cl2 2161   3.132   1.568   3.933
    1TCM     h1 2162   2.954   1.504   4.078
    1TCM    cl3 2163   2.898   1.724   4.004
    1TCM     c1 2164   2.148   3.877   4.226
    1TCM    cl1 2165   2.239   3.763   4.328
    1TCM    cl2 2166   2.198   3.857   4.057
    1TCM     h1 2167   2.040   3.857   4.235
    1TCM    cl3 2168   2.182   4.044   4.279
    1TCM     c1 2169   3.097   0.987   4.982
    1TCM    cl1 2170   3.051   0.833   5.056
    1TCM    cl2 2171   3.033   0.994   4.816
    1TCM     h1 2172   3.055   1.071   5.041
    1TCM    cl3 2173   3.274   1.001   4.978
    1TCM     c1 2174   1.683   2.380   4.460
    1TCM    cl1 2175   1.746   2.249   4.562
    1TCM    cl2 2176   1.665   2.321   4.293
    1TCM     h1 2177   1.584   2.412   4.498
    1TCM    cl3 2178   1.796   2.517   4.462
    1TCM     c1 2179   4.758   4.251   0.884
    1TCM    cl1 2180   4.723   4.106   0.789
    1TCM    cl2 2181   4.815   4.203   1.046
    1TCM     h1 2182   4.837   4.310   0.834
    1TCM    cl3 2183   4.611   4.349   0.900
    1TCM     c1 2184   2.027   2.785   4.469
    1TCM    cl1 2185   2.143   2.659   4.518
    1TCM    cl2 2186   2.046   2.819   4.296
    1TCM     h1 2187   1.924   2.750   4.489
    1TCM    cl3 2188   2.058   2.933   4.563
    1TCM     c1 2189   2.593   4.168   4.394
    1TCM    cl1 2190   2.769   4.192   4.404
    1TCM    cl2 2191   2.517   4.312   4.323
    1TCM     h1 2192   2.572   4.079   4.331
    1TCM    cl3 2193   2.527   4.141   4.557
    1TCM     c1 2194   4.411   5.262   2.523
    1TCM    cl1 2195   4.532   5.340   2.627
    1TCM    cl2 2196   4.249   5.317   2.569
    1TCM     h1 2197   4.431   5.288   2.417
    1TCM    cl3 2198   4.422   5.085   2.542
    1TCM     c1 2199   1.834   3.646   2.089
    1TCM    cl1 2200   1.724   3.529   2.014
    1TCM    cl2 2201   1.864   3.599   2.258
    1TCM     h1 2202   1.930   3.648   2.033
    1TCM    cl3 2203   1.760   3.808   2.085
    1TCM     c1 2204   3.464   0.785   1.008
    1TCM    cl1 2205   3.498   0.940   0.928
    1TCM    cl2 2206   3.374   0.814   1.159
    1TCM     h1 2207   3.404   0.721   0.941
    1TCM    cl3 2208   3.618   0.703   1.047
    1TCM     c1 2209   0.321   3.765   3.053
    1TCM    cl1 2210   0.450   3.734   2.934
    1TCM    cl2 2211   0.394   3.791   3.213
    1TCM     h1 2212   0.263   3.855   3.023
    1TCM    cl3 2213   0.212   3.624   3.059
    1TCM     c1 2214   2.843   2.792   4.919
    1TCM    cl1 2215   2.835   2.668   5.046
    1TCM    cl2 2216   2.782   2.724   4.767
    1TCM     h1 2217   2.781   2.879   4.949
    1TCM    cl3 2218   3.011   2.844   4.897
    1TCM     c1 2219   2.280   0.663   0.672
    1TCM    cl1 2220   2.120   0.608   0.618
    1TCM    cl2 2221   2.346   0.545   0.788
    1TCM     h1 2222   2.348   0.671   0.585
    1TCM    cl3 2223   2.265   0.821   0.751
    1TCM     c1 2224   2.967   0.298   2.229
    1TCM    cl1 2225   3.023   0.222   2.380
    1TCM    cl2 2226   2.794   0.264   2.206
    1TCM     h1 2227   2.984   0.407   2.234
    1TCM    cl3 2228   3.059   0.231   2.092
    1TCM     c1 2229   1.848   3.623   4.638
    1TCM    cl1 2230   1.822   3.684   4.802
    1TCM    cl2 2231   1.798   3.747   4.520
    1TCM     h1 2232   1.955   3.600   4.623
    1TCM    cl3 2233   1.751   3.476   4.613
    1TCM     c1 2234   0.764   2.824   0.723
    1TCM    cl1 2235   0.875   2.953   0.670
    1TCM    cl2 2236   0.857   2.676   0.756
    1TCM     h1 2237   0.711   2.856   0.815
    1TCM    cl3 2238   0.646   2.792   0.594
    1TCM     c1 2239   2.980   0.232   3.370
    1TCM    cl1 2240   2.913   0.212   3.207
    1TCM    cl2 2241   2.866   0.167   3.490
    1TCM     h1 2242   3.076   0.178   3.377
    1TCM    cl3 2243   3.007   0.405   3.402
    1TCM     c1 2244   2.016   3.030   1.058
    1TCM    cl1 2245   2.069   3.142   1.185
    1TCM    cl2 2246   1.840   3.043   1.037
    1TCM     h1 2247   2.067   3.056   0.962
    1TCM    cl3 2248   2.058   2.863   1.103
    1TCM     c1 2249   3.086   5.192   4.015
    1TCM    cl1 2250   3.182   5.340   3.989
    1TCM    cl2 2251   3.196   5.056   4.048
    1TCM     h1 2252   3.018   5.207   4.101
    1TCM    cl3 2253   2.990   5.157   3.869
    1TCM     c1 2254   2.979   3.299   0.096
    1TCM    cl1 2255   3.151   3.262   0.070
    1TCM    cl2 2256   2.964   3.464   0.161
    1TCM     h1 2257   2.924   3.291   0.000
    1TCM    cl3 2258   2.911   3.183   0.212
    1TCM     c1 2259   0.258   0.444   4.265
    1TCM    cl1 2260   0.229   0.542   4.410
    1TCM    cl2 2261   0.135   0.316   4.255
    1TCM     h1 2262   0.251   0.508   4.175
    1TCM    cl3 2263   0.419   0.370   4.274
    1TCM     c1 2264   3.103   2.817   4.139
    1TCM    cl1 2265   3.196   2.929   4.037
    1TCM    cl2 2266   3.099   2.878   4.306
    1TCM     h1 2267   3.000   2.808   4.101
    1TCM    cl3 2268   3.181   2.657   4.137
    1TCM     c1 2269   0.834   1.428   0.203
    1TCM    cl1 2270   0.997   1.377   0.251
    1TCM    cl2 2271   0.758   1.301   0.105
    1TCM     h1 2272   0.773   1.446   0.294
    1TCM    cl3 2273   0.845   1.578   0.108
    1TCM     c1 2274   4.624   3.009   1.934
    1TCM    cl1 2275   4.525   2.926   1.812
    1TCM    cl2 2276   4.706   3.148   1.860
    1TCM     h1 2277   4.558   3.044   2.016
    1TCM    cl3 2278   4.745   2.896   1.999
    1TCM     c1 2279   3.131   3.250   0.580
    1TCM    cl1 2280   3.103   3.074   0.570
    1TCM    cl2 2281   3.171   3.293   0.747
    1TCM     h1 2282   3.215   3.277   0.513
    1TCM    cl3 2283   2.984   3.336   0.530
    1TCM     c1 2284   2.556   4.876   1.586
    1TCM    cl1 2285   2.624   5.000   1.478
    1TCM    cl2 2286   2.574   4.929   1.755
    1TCM     h1 2287   2.449   4.862   1.562
    1TCM    cl3 2288   2.643   4.723   1.561
    1TCM     c1 2289   2.683   4.091   4.890
    1TCM    cl1 2290   2.513   4.085   4.943
    1TCM    cl2 2291   2.696   4.026   4.725
    1TCM     h1 2292   2.719   4.196   4.892
    1TCM    cl3 2293   2.783   3.993   5.000
    1TCM     c1 2294   1.924   1.560   3.128
    1TCM    cl1 2295   1.896   1.420   3.234
    1TCM    cl2 2296   2.099   1.589   3.113
    1TCM     h1 2297   1.881   1.540   3.028
    1TCM    cl3 2298   1.847   1.704   3.198
    1TCM     c1 2299   2.547   1.496   2.444
    1TCM    cl1 2300   2.654   1.633   2.405
    1TCM    cl2 2301   2.459   1.446   2.298
    1TCM     h1 2302   2.608   1.412   2.482
    1TCM    cl3 2303   2.431   1.546   2.570
    1TCM     c1 2304   4.906   2.362   0.632
    1TCM    cl1 2305   4.869   2.263   0.775
    1TCM    cl2 2306   4.947   2.527   0.684
    1TCM     h1 2307   4.993   2.318   0.578
    1TCM    cl3 2308   4.765   2.367   0.525
    1TCM     c1 2309   4.327   0.603   3.286
    1TCM    cl1 2310   4.380   0.447   3.218
    1TCM    cl2 2311   4.164   0.585   3.354
    1TCM     h1 2312   4.397   0.635   3.365
    1TCM    cl3 2313   4.323   0.725   3.157
    1TCM     c1 2314   4.851   2.306   0.148
    1TCM    cl1 2315   4.868   2.413   0.289
    1TCM    cl2 2316   4.886   2.398   0.000
    1TCM     h1 2317   4.923   2.222   0.157
    1TCM    cl3 2318   4.686   2.243   0.141
    1TCM     c1 2319   3.398   1.217   1.078
    1TCM    cl1 2320   3.425   1.059   1.156
    1TCM    cl2 2321   3.284   1.199   0.943
    1TCM     h1 2322   3.357   1.289   1.152
    1TCM    cl3 2323   3.553   1.280   1.016
    1TCM     c1 2324   2.833   4.332   4.693
    1TCM    cl1 2325   2.849   4.163   4.640
    1TCM    cl2 2326   2.840   4.440   4.552
    1TCM     h1 2327   2.735   4.345   4.745
    1TCM    cl3 2328   2.965   4.372   4.805
    1TCM     c1 2329   1.571   5.260   0.601
    1TCM    cl1 2330   1.470   5.340   0.478
    1TCM    cl2 2331   1.509   5.299   0.763
    1TCM     h1 2332   1.569   5.151   0.586
    1TCM    cl3 2333   1.738   5.319   0.587
    1TCM     c1 2334   1.406   3.310   4.499
    1TCM    cl1 2335   1.574   3.307   4.556
    1TCM    cl2 2336   1.356   3.145   4.453
    1TCM     h1 2337   1.340   3.347   4.580
    1TCM    cl3 2338   1.393   3.417   4.358
    1TCM     c1 2339   1.206   2.232   2.415
    1TCM    cl1 2340   1.319   2.130   2.507
    1TCM    cl2 2341   1.043   2.216   2.484
    1TCM     h1 2342   1.239   2.338   2.422
    1TCM    cl3 2343   1.204   2.181   2.245
    1TCM     c1 2344   1.370   1.362   0.658
    1TCM    cl1 2345   1.255   1.387   0.791
    1TCM    cl2 2346   1.346   1.201   0.587
    1TCM     h1 2347   1.353   1.440   0.580
    1TCM    cl3 2348   1.536   1.376   0.720
    1TCM     c1 2349   0.366   5.168   3.245
    1TCM    cl1 2350   0.257   5.301   3.199
    1TCM    cl2 2351   0.489   5.146   3.119
    1TCM     h1 2352   0.415   5.193   3.341
    1TCM    cl3 2353   0.272   5.018   3.264
    1TCM     c1 2354   2.816   3.964   0.332
    1TCM    cl1 2355   2.880   4.010   0.492
    1TCM    cl2 2356   2.881   4.073   0.208
    1TCM     h1 2357   2.846   3.860   0.309
    1TCM    cl3 2358   2.638   3.976   0.334
    1TCM     c1 2359   5.081   1.804   0.875
    1TCM    cl1 2360   5.125   1.973   0.910
    1TCM    cl2 2361   5.170   1.748   0.733
    1TCM     h1 2362   5.106   1.741   0.963
    1TCM    cl3 2363   4.906   1.794   0.844
    1TCM     c1 2364   3.205   4.880   4.143
    1TCM    cl1 2365   3.102   5.000   4.226
    1TCM    cl2 2366   3.372   4.941   4.135
    1TCM     h1 2367   3.203   4.785   4.199
    1TCM    cl3 2368   3.143   4.854   3.978
    1TCM     c1 2369   0.433   3.242   3.463
    1TCM    cl1 2370   0.440   3.071   3.412
    1TCM    cl2 2371   0.516   3.343   3.342
    1TCM     h1 2372   0.327   3.273   3.470
    1TCM    cl3 2373   0.512   3.261   3.621
    1TCM     c1 2374   2.849   0.515   1.945
    1TCM    cl1 2375   2.847   0.395   1.814
    1TCM    cl2 2376   2.823   0.677   1.878
    1TCM     h1 2377   2.768   0.491   2.017
    1TCM    cl3 2378   3.006   0.509   2.028
    1TCM     c1 2379   4.823   5.021   4.341
    1TCM    cl1 2380   4.926   4.963   4.474
    1TCM    cl2 2381   4.820   4.900   4.211
    1TCM     h1 2382   4.720   5.037   4.379
    1TCM    cl3 2383   4.888   5.174   4.279
    1TCM     c1 2384   4.056   0.947   2.052
    1TCM    cl1 2385   4.048   1.033   1.897
    1TCM    cl2 2386   3.919   0.834   2.065
    1TCM     h1 2387   4.152   0.890   2.058
    1TCM    cl3 2388   4.049   1.064   2.186
    1TCM     c1 2389   2.289   4.791   2.431
    1TCM    cl1 2390   2.254   4.640   2.519
    1TCM    cl2 2391   2.329   4.752   2.262
    1TCM     h1 2392   2.199   4.856   2.434
    1TCM    cl3 2393   2.426   4.874   2.507
    1TCM     c1 2394   2.287   2.627   0.862
    1TCM    cl1 2395   2.344   2.760   0.965
    1TCM    cl2 2396   2.190   2.514   0.960
    1TCM     h1 2397   2.225   2.667   0.780
    1TCM    cl3 2398   2.427   2.540   0.795
    1TCM     c1 2399   2.210   4.770   0.443
    1TCM    cl1 2400   2.199   4.732   0.617
    1TCM    cl2 2401   2.209   4.618   0.350
    1TCM     h1 2402   2.123   4.832   0.413
    1TCM    cl3 2403   2.361   4.858   0.411
    1TCM     c1 2404   3.707   1.044   2.304
    1TCM    cl1 2405   3.730   1.121   2.462
    1TCM    cl2 2406   3.667   1.168   2.183
    1TCM     h1 2407   3.801   0.992   2.274
    1TCM    cl3 2408   3.575   0.926   2.314
    1TCM     c1 2409   3.669   4.082   0.701
    1TCM    cl1 2410   3.658   3.916   0.766
    1TCM    cl2 2411   3.519   4.123   0.617
    1TCM     h1 2412   3.685   4.153   0.785
    1TCM    cl3 2413   3.806   4.092   0.588
    1TCM     c1 2414   1.665   4.390   2.050
    1TCM    cl1 2415   1.757   4.319   1.915
    1TCM    cl2 2416   1.779   4.456   2.170
    1TCM     h1 2417   1.600   4.471   2.012
    1TCM    cl3 2418   1.565   4.265   2.127
    1TCM     c1 2419   4.871   2.444   2.862
    1TCM    cl1 2420   5.018   2.371   2.793
    1TCM    cl2 2421   4.727   2.363   2.794
    1TCM     h1 2422   4.871   2.432   2.972
    1TCM    cl3 2423   4.865   2.617   2.820
    1TCM     c1 2424   1.574   1.212   2.158
    1TCM    cl1 2425   1.736   1.287   2.157
    1TCM    cl2 2426   1.577   1.066   2.057
    1TCM     h1 2427   1.547   1.185   2.262
    1TCM    cl3 2428   1.455   1.327   2.093
    1TCM     c1 2429   0.145   0.518   1.487
    1TCM    cl1 2430   0.134   0.646   1.365
    1TCM    cl2 2431   0.154   0.359   1.407
    1TCM     h1 2432   0.236   0.533   1.549
    1TCM    cl3 2433   0.001   0.523   1.592
    1TCM     c1 2434   1.088   4.362   0.331
    1TCM    cl1 2435   1.207   4.485   0.282
    1TCM    cl2 2436   0.929   4.438   0.351
    1TCM     h1 2437   1.082   4.283   0.252
    1TCM    cl3 2438   1.138   4.288   0.484
    1TCM     c1 2439   3.119   2.683   0.903
    1TCM    cl1 2440   2.982   2.766   0.827
    1TCM    cl2 2441   3.065   2.526   0.966
    1TCM     h1 2442   3.199   2.667   0.827
    1TCM    cl3 2443   3.183   2.782   1.036
    1TCM     c1 2444   0.600   1.979   2.525
    1TCM    cl1 2445   0.700   2.113   2.586
    1TCM    cl2 2446   0.438   2.039   2.484
    1TCM     h1 2447   0.648   1.936   2.434
    1TCM    cl3 2448   0.587   1.852   2.649
    1TCM     c1 2449   2.628   0.783   4.992
    1TCM    cl1 2450   2.681   0.707   4.840
    1TCM    cl2 2451   2.694   0.692   5.129
    1TCM     h1 2452   2.664   0.888   4.995
    1TCM    cl3 2453   2.450   0.781   5.000
    1TCM     c1 2454   0.393   4.302   4.197
    1TCM    cl1 2455   0.473   4.403   4.320
    1TCM    cl2 2456   0.287   4.183   4.277
    1TCM     h1 2457   0.333   4.367   4.130
    1TCM    cl3 2458   0.516   4.217   4.101
    1TCM     c1 2459   5.121   4.021   1.545
    1TCM    cl1 2460   4.983   3.918   1.590
    1TCM    cl2 2461   5.246   4.011   1.672
    1TCM     h1 2462   5.163   3.986   1.449
    1TCM    cl3 2463   5.067   4.189   1.529
    1TCM     c1 2464   2.593   2.329   0.434
    1TCM    cl1 2465   2.575   2.422   0.284
    1TCM    cl2 2466   2.609   2.440   0.572
    1TCM     h1 2467   2.505   2.264   0.448
    1TCM    cl3 2468   2.739   2.228   0.423
    1TCM     c1 2469   5.213   5.087   3.580
    1TCM    cl1 2470   5.330   5.209   3.635
    1TCM    cl2 2471   5.103   5.159   3.461
    1TCM     h1 2472   5.267   5.001   3.534
    1TCM    cl3 2473   5.119   5.029   3.720
    1TCM     c1 2474   3.449   2.576   1.373
    1TCM    cl1 2475   3.419   2.420   1.295
    1TCM    cl2 2476   3.575   2.557   1.498
    1TCM     h1 2477   3.483   2.649   1.298
    1TCM    cl3 2478   3.299   2.635   1.449
    1TCM     c1 2479   3.979   1.237   5.221
    1TCM    cl1 2480   4.065   1.370   5.301
    1TCM    cl2 2481   4.059   1.199   5.066
    1TCM     h1 2482   3.981   1.147   5.286
    1TCM    cl3 2483   3.810   1.284   5.191
    1TCM     c1 2484   1.167   2.067   4.522
    1TCM    cl1 2485   1.135   2.203   4.412
    1TCM    cl2 2486   1.204   2.129   4.685
    1TCM     h1 2487   1.078   2.001   4.527
    1TCM    cl3 2488   1.306   1.974   4.462
    1TCM     c1 2489   0.367   0.361   2.143
    1TCM    cl1 2490   0.489   0.485   2.109
    1TCM    cl2 2491   0.255   0.419   2.268
    1TCM     h1 2492   0.310   0.338   2.050
    1TCM    cl3 2493   0.447   0.213   2.201
    1TCM     c1 2494   3.806   0.437   1.086
    1TCM    cl1 2495   3.937   0.432   0.964
    1TCM    cl2 2496   3.872   0.494   1.241
    1TCM     h1 2497   3.727   0.507   1.051
    1TCM    cl3 2498   3.738   0.274   1.107
    1TCM     c1 2499   3.351   2.163   4.060
    1TCM    cl1 2500   3.419   2.022   4.145
    1TCM    cl2 2501   3.179   2.180   4.102
    1TCM     h1 2502   3.406   2.254   4.091
    1TCM    cl3 2503   3.368   2.141   3.885
    1TCM     c1 2504   1.877   2.541   1.366
    1TCM    cl1 2505   1.789   2.549   1.212
    1TCM    cl2 2506   1.809   2.412   1.467
    1TCM     h1 2507   1.984   2.520   1.346
    1TCM    cl3 2508   1.862   2.697   1.451
    1TCM     c1 2509   3.190   4.538   1.763
    1TCM    cl1 2510   3.113   4.385   1.811
    1TCM    cl2 2511   3.150   4.573   1.593
    1TCM     h1 2512   3.152   4.621   1.827
    1TCM    cl3 2513   3.366   4.525   1.781
    1TCM     c1 2514   0.516   1.288   4.255
    1TCM    cl1 2515   0.664   1.231   4.334
    1TCM    cl2 2516   0.456   1.162   4.144
    1TCM     h1 2517   0.439   1.309   4.331
    1TCM    cl3 2518   0.551   1.436   4.162
    1TCM     c1 2519   0.331   1.889   1.595
    1TCM    cl1 2520   0.378   1.742   1.507
    1TCM    cl2 2521   0.472   1.997   1.609
    1TCM     h1 2522   0.250   1.941   1.541
    1TCM    cl3 2523   0.274   1.845   1.758
    1TCM     c1 2524   0.107   2.930   1.348
    1TCM    cl1 2525   0.120   2.840   1.501
    1TCM    cl2 2526   0.176   2.832   1.216
    1TCM     h1 2527   0.000   2.951   1.327
    1TCM    cl3 2528   0.196   3.083   1.361
    1TCM     c1 2529   0.906   3.782   0.055
    1TCM    cl1 2530   0.746   3.716   0.015
    1TCM    cl2 2531   0.934   3.766   0.230
    1TCM     h1 2532   0.984   3.726   0.000
    1TCM    cl3 2533   0.912   3.954   0.010
    1TCM     c1 2534   3.517   1.385   1.504
    1TCM    cl1 2535   3.616   1.237   1.505
    1TCM    cl2 2536   3.544   1.476   1.654
    1TCM     h1 2537   3.544   1.448   1.417
    1TCM    cl3 2538   3.345   1.340   1.493
    1TCM     c1 2539   3.478   1.188   4.806
    1TCM    cl1 2540   3.655   1.192   4.786
    1TCM    cl2 2541   3.401   1.161   4.648
    1TCM     h1 2542   3.450   1.105   4.875
    1TCM    cl3 2543   3.422   1.343   4.873
    1TCM     c1 2544   0.707   3.999   4.299
    1TCM    cl1 2545   0.669   3.911   4.149
    1TCM    cl2 2546   0.596   3.947   4.428
    1TCM     h1 2547   0.811   3.978   4.330
    1TCM    cl3 2548   0.688   4.174   4.272
    1TCM     c1 2549   3.621   3.282   5.197
    1TCM    cl1 2550   3.618   3.127   5.284
    1TCM    cl2 2551   3.750   3.279   5.076
    1TCM     h1 2552   3.523   3.298   5.147
    1TCM    cl3 2553   3.651   3.414   5.313
    1TCM     c1 2554   1.031   2.701   1.511
    1TCM    cl1 2555   0.866   2.674   1.572
    1TCM    cl2 2556   1.131   2.770   1.640
    1TCM     h1 2557   1.074   2.604   1.478
    1TCM    cl3 2558   1.026   2.813   1.373
    1TCM     c1 2559   4.405   5.079   5.189
    1TCM    cl1 2560   4.237   5.129   5.162
    1TCM    cl2 2561   4.415   4.983   5.339
    1TCM     h1 2562   4.440   5.017   5.104
    1TCM    cl3 2563   4.509   5.223   5.205
    1TCM     c1 2564   4.377   1.130   0.312
    1TCM    cl1 2565   4.392   1.154   0.136
    1TCM    cl2 2566   4.491   1.236   0.397
    1TCM     h1 2567   4.273   1.153   0.344
    1TCM    cl3 2568   4.413   0.960   0.351
    1TCM     c1 2569   3.136   0.510   3.520
    1TCM    cl1 2570   3.131   0.629   3.388
    1TCM    cl2 2571   3.194   0.354   3.456
    1TCM     h1 2572   3.205   0.545   3.599
    1TCM    cl3 2573   2.973   0.489   3.588
    1TCM     c1 2574   4.315   1.125   4.860
    1TCM    cl1 2575   4.385   0.991   4.768
    1TCM    cl2 2576   4.179   1.195   4.768
    1TCM     h1 2577   4.278   1.088   4.958
    1TCM    cl3 2578   4.438   1.250   4.887
    1TCM     c1 2579   4.708   1.967   3.622
    1TCM    cl1 2580   4.724   1.848   3.491
    1TCM    cl2 2581   4.804   1.914   3.762
    1TCM     h1 2582   4.744   2.066   3.588
    1TCM    cl3 2583   4.537   1.980   3.669
    1TCM     c1 2584   0.071   4.914   3.780
    1TCM    cl1 2585   0.000   4.769   3.705
    1TCM    cl2 2586   0.249   4.905   3.769
    1TCM     h1 2587   0.035   5.004   3.727
    1TCM    cl3 2588   0.023   4.922   3.951
    1TCM     c1 2589   3.116   0.504   3.829
    1TCM    cl1 2590   3.220   0.645   3.796
    1TCM    cl2 2591   3.138   0.453   3.998
    1TCM     h1 2592   3.010   0.532   3.812
    1TCM    cl3 2593   3.161   0.371   3.720
    1TCM     c1 2594   4.283   3.759   1.427
    1TCM    cl1 2595   4.251   3.609   1.337
    1TCM    cl2 2596   4.310   3.721   1.599
    1TCM     h1 2597   4.373   3.808   1.385
    1TCM    cl3 2598   4.143   3.868   1.411
    1TCM     c1 2599   0.532   0.154   1.367
    1TCM    cl1 2600   0.662   0.127   1.485
    1TCM    cl2 2601   0.578   0.084   1.210
    1TCM     h1 2602   0.438   0.106   1.403
    1TCM    cl3 2603   0.504   0.329   1.348
    1TCM     c1 2604   2.023   4.077   3.686
    1TCM    cl1 2605   2.023   4.223   3.584
    1TCM    cl2 2606   1.876   4.076   3.786
    1TCM     h1 2607   2.025   3.987   3.621
    1TCM    cl3 2608   2.167   4.078   3.790
    1TCM     c1 2609   4.564   3.954   1.318
    1TCM    cl1 2610   4.407   4.025   1.365
    1TCM    cl2 2611   4.586   3.799   1.402
    1TCM     h1 2612   4.566   3.938   1.209
    1TCM    cl3 2613   4.695   4.065   1.364
    1TCM     c1 2614   3.183   4.352   4.608
    1TCM    cl1 2615   3.113   4.231   4.718
    1TCM    cl2 2616   3.135   4.314   4.441
    1TCM     h1 2617   3.146   4.453   4.635
    1TCM    cl3 2618   3.360   4.348   4.621
    1TCM     c1 2619   1.907   1.920   4.750
    1TCM    cl1 2620   1.973   2.046   4.857
    1TCM    cl2 2621   2.015   1.898   4.610
    1TCM     h1 2622   1.898   1.824   4.806
    1TCM    cl3 2623   1.746   1.970   4.693
    1TCM     c1 2624   1.287   3.656   1.785
    1TCM    cl1 2625   1.349   3.529   1.894
    1TCM    cl2 2626   1.288   3.595   1.618
    1TCM     h1 2627   1.184   3.683   1.815
    1TCM    cl3 2628   1.391   3.799   1.797
    1TCM     c1 2629   1.849   0.133   1.561
    1TCM    cl1 2630   1.676   0.165   1.586
    1TCM    cl2 2631   1.905   0.012   1.678
    1TCM     h1 2632   1.864   0.095   1.458
    1TCM    cl3 2633   1.941   0.283   1.582
    1TCM     c1 2634   3.824   4.468   3.780
    1TCM    cl1 2635   3.863   4.423   3.612
    1TCM    cl2 2636   3.761   4.325   3.866
    1TCM     h1 2637   3.915   4.504   3.830
    1TCM    cl3 2638   3.701   4.596   3.780
    1TCM     c1 2639   0.738   0.949   3.775
    1TCM    cl1 2640   0.730   0.771   3.777
    1TCM    cl2 2641   0.760   1.009   3.941
    1TCM     h1 2642   0.824   0.982   3.712
    1TCM    cl3 2643   0.587   1.015   3.708
    1TCM     c1 2644   1.685   4.466   0.711
    1TCM    cl1 2645   1.704   4.319   0.809
    1TCM    cl2 2646   1.638   4.421   0.545
    1TCM     h1 2647   1.606   4.530   0.755
    1TCM    cl3 2648   1.839   4.555   0.706
    1TCM     c1 2649   3.233   0.421   0.155
    1TCM    cl1 2650   3.241   0.335   0.000
    1TCM    cl2 2651   3.397   0.468   0.206
    1TCM     h1 2652   3.171   0.512   0.144
    1TCM    cl3 2653   3.161   0.315   0.278
    1TCM     c1 2654   3.805   0.924   3.272
    1TCM    cl1 2655   3.916   0.827   3.173
    1TCM    cl2 2656   3.868   0.936   3.437
    1TCM     h1 2657   3.796   1.026   3.228
    1TCM    cl3 2658   3.645   0.847   3.274
    1TCM     c1 2659   0.183   4.615   3.987
    1TCM    cl1 2660   0.178   4.768   4.078
    1TCM    cl2 2661   0.189   4.650   3.813
    1TCM     h1 2662   0.273   4.558   4.016
    1TCM    cl3 2663   0.038   4.519   4.023
    1TCM     c1 2664   4.393   1.648   5.238
    1TCM    cl1 2665   4.339   1.676   5.071
    1TCM    cl2 2666   4.253   1.609   5.340
    1TCM     h1 2667   4.465   1.563   5.240
    1TCM    cl3 2668   4.473   1.794   5.300
    1TCM     c1 2669   0.501   0.673   2.775
    1TCM    cl1 2670   0.412   0.817   2.830
    1TCM    cl2 2671   0.585   0.711   2.623
    1TCM     h1 2672   0.575   0.644   2.852
    1TCM    cl3 2673   0.387   0.539   2.748
    1TCM     c1 2674   0.426   2.143   2.112
    1TCM    cl1 2675   0.261   2.101   2.063
    1TCM    cl2 2676   0.540   2.098   1.982
    1TCM     h1 2677   0.433   2.253   2.130
    1TCM    cl3 2678   0.468   2.056   2.261
    1TCM     c1 2679   3.838   1.972   1.485
    1TCM    cl1 2680   3.748   2.073   1.370
    1TCM    cl2 2681   3.924   2.075   1.602
    1TCM     h1 2682   3.766   1.906   1.540
    1TCM    cl3 2683   3.955   1.871   1.397
    1TCM     c1 2684   2.674   0.855   4.483
    1TCM    cl1 2685   2.665   0.928   4.646
    1TCM    cl2 2686   2.532   0.905   4.389
    1TCM     h1 2687   2.766   0.890   4.432
    1TCM    cl3 2688   2.678   0.678   4.498
    1TCM     c1 2689   4.597   2.335   5.012
    1TCM    cl1 2690   4.661   2.195   5.102
    1TCM    cl2 2691   4.504   2.278   4.872
    1TCM     h1 2692   4.531   2.394   5.079
    1TCM    cl3 2693   4.732   2.437   4.957
    1TCM     c1 2694   3.817   0.769   2.855
    1TCM    cl1 2695   3.796   0.711   2.688
    1TCM    cl2 2696   3.830   0.946   2.855
    1TCM     h1 2697   3.729   0.738   2.916
    1TCM    cl3 2698   3.964   0.698   2.925
    1TCM     c1 2699   4.176   2.577   2.934
    1TCM    cl1 2700   4.032   2.682   2.926
    1TCM    cl2 2701   4.299   2.637   2.820
    1TCM     h1 2702   4.217   2.578   3.036
    1TCM    cl3 2703   4.130   2.411   2.889
    1TCM     c1 2704   3.865   1.601   1.481
    1TCM    cl1 2705   3.731   1.709   1.525
    1TCM    cl2 2706   3.883   1.597   1.304
    1TCM     h1 2707   3.959   1.638   1.526
    1TCM    cl3 2708   3.832   1.437   1.541
    1TCM     c1 2709   0.469   3.425   1.588
    1TCM    cl1 2710   0.366   3.341   1.707
    1TCM    cl2 2711   0.485   3.596   1.633
    1TCM     h1 2712   0.569   3.377   1.585
    1TCM    cl3 2713   0.394   3.413   1.427
    1TCM     c1 2714   2.441   3.782   4.641
    1TCM    cl1 2715   2.513   3.927   4.715
    1TCM    cl2 2716   2.457   3.791   4.464
    1TCM     h1 2717   2.493   3.691   4.679
    1TCM    cl3 2718   2.269   3.773   4.684
    1TCM     c1 2719   1.955   1.585   1.908
    1TCM    cl1 2720   2.002   1.438   1.819
    1TCM    cl2 2721   2.037   1.587   2.065
    1TCM     h1 2722   1.985   1.674   1.849
    1TCM    cl3 2723   1.779   1.586   1.932
    1TCM     c1 2724   4.503   2.584   0.370
    1TCM    cl1 2725   4.394   2.556   0.232
    1TCM    cl2 2726   4.663   2.514   0.335
    1TCM     h1 2727   4.513   2.693   0.388
    1TCM    cl3 2728   4.436   2.506   0.515
    1TCM     c1 2729   2.882   4.928   3.392
    1TCM    cl1 2730   2.882   5.082   3.303
    1TCM    cl2 2731   2.960   4.951   3.550
    1TCM     h1 2732   2.777   4.895   3.407
    1TCM    cl3 2733   2.970   4.805   3.299
    1TCM     c1 2734   5.029   3.909   5.263
    1TCM    cl1 2735   4.999   3.751   5.339
    1TCM    cl2 2736   5.200   3.953   5.284
    1TCM     h1 2737   5.006   3.902   5.155
    1TCM    cl3 2738   4.926   4.032   5.339
    1TCM     c1 2739   1.121   2.640   3.316
    1TCM    cl1 2740   1.101   2.735   3.166
    1TCM    cl2 2741   1.145   2.469   3.274
    1TCM     h1 2742   1.209   2.678   3.371
    1TCM    cl3 2743   0.976   2.657   3.416
    1TCM     c1 2744   2.852   2.824   1.383
    1TCM    cl1 2745   2.965   2.944   1.450
    1TCM    cl2 2746   2.874   2.814   1.207
    1TCM     h1 2747   2.872   2.725   1.429
    1TCM    cl3 2748   2.685   2.874   1.419
    1TCM     c1 2749   0.130   3.581   3.593
    1TCM    cl1 2750   0.253   3.661   3.694
    1TCM    cl2 2751   0.012   3.499   3.698
    1TCM     h1 2752   0.078   3.657   3.531
    1TCM    cl3 2753   0.208   3.461   3.488
    1TCM     c1 2754   2.286   4.885   3.377
    1TCM    cl1 2755   2.169   4.758   3.335
    1TCM    cl2 2756   2.435   4.810   3.439
    1TCM     h1 2757   2.310   4.945   3.286
    1TCM    cl3 2758   2.217   4.991   3.501
    1TCM     c1 2759   5.161   2.682   4.025
    1TCM    cl1 2760   5.161   2.509   4.067
    1TCM    cl2 2761   5.225   2.703   3.860
    1TCM     h1 2762   5.057   2.721   4.030
    1TCM    cl3 2763   5.263   2.771   4.140
    1TCM     c1 2764   2.133   2.126   3.557
    1TCM    cl1 2765   2.140   2.074   3.727
    1TCM    cl2 2766   2.234   2.271   3.535
    1TCM     h1 2767   2.170   2.045   3.492
    1TCM    cl3 2768   1.965   2.164   3.514
    1TCM     c1 2769   2.011   0.950   4.031
    1TCM    cl1 2770   1.904   1.086   4.072
    1TCM    cl2 2771   1.996   0.913   3.858
    1TCM     h1 2772   2.116   0.977   4.055
    1TCM    cl3 2773   1.964   0.807   4.127
    1TCM     c1 2774   0.903   0.337   0.849
    1TCM    cl1 2775   0.810   0.367   0.997
    1TCM    cl2 2776   1.028   0.214   0.882
    1TCM     h1 2777   0.836   0.300   0.770
    1TCM    cl3 2778   0.981   0.488   0.796
    1TCM     c1 2779   3.989   1.669   4.328
    1TCM    cl1 2780   4.001   1.810   4.436
    1TCM    cl2 2781   4.137   1.657   4.230
    1TCM     h1 2782   3.977   1.577   4.389
    1TCM    cl3 2783   3.848   1.688   4.221
    1TCM     c1 2784   3.212   5.184   3.387
    1TCM    cl1 2785   3.111   5.080   3.284
    1TCM    cl2 2786   3.239   5.105   3.544
    1TCM     h1 2787   3.310   5.202   3.338
    1TCM    cl3 2788   3.130   5.340   3.412
    1TCM     c1 2789   1.924   2.394   3.144
    1TCM    cl1 2790   2.023   2.537   3.184
    1TCM    cl2 2791   1.752   2.440   3.142
    1TCM     h1 2792   1.953   2.356   3.045
    1TCM    cl3 2793   1.950   2.268   3.267
    1TCM     c1 2794   1.465   0.674   5.247
    1TCM    cl1 2795   1.468   0.712   5.073
    1TCM    cl2 2796   1.464   0.826   5.340
    1TCM     h1 2797   1.373   0.615   5.270
    1TCM    cl3 2798   1.609   0.579   5.289
    1TCM     c1 2799   2.065   4.531   4.606
    1TCM    cl1 2800   2.138   4.530   4.444
    1TCM    cl2 2801   1.898   4.469   4.596
    1TCM     h1 2802   2.124   4.466   4.674
    1TCM    cl3 2803   2.063   4.697   4.670
    1TCM     c1 2804   0.765   3.761   5.054
    1TCM    cl1 2805   0.748   3.904   4.949
    1TCM    cl2 2806   0.758   3.811   5.224
    1TCM     h1 2807   0.682   3.690   5.033
    1TCM    cl3 2808   0.920   3.681   5.022
    1TCM     c1 2809   5.149   3.044   1.875
    1TCM    cl1 2810   5.035   3.154   1.957
    1TCM    cl2 2811   5.109   3.036   1.702
    1TCM     h1 2812   5.252   3.083   1.888
    1TCM    cl3 2813   5.137   2.882   1.947
    1TCM     c1 2814   3.139   0.767   4.108
    1TCM    cl1 2815   3.210   0.615   4.167
    1TCM    cl2 2816   3.053   0.848   4.240
    1TCM     h1 2817   3.220   0.833   4.070
    1TCM    cl3 2818   3.026   0.732   3.976
    1TCM     c1 2819   0.109   1.318   1.824
    1TCM    cl1 2820   0.045   1.187   1.722
    1TCM    cl2 2821   0.287   1.313   1.823
    1TCM     h1 2822   0.074   1.416   1.784
    1TCM    cl3 2823   0.050   1.298   1.990
    1TCM     c1 2824   1.565   0.108   1.253
    1TCM    cl1 2825   1.540   0.003   1.111
    1TCM    cl2 2826   1.709   0.209   1.227
    1TCM     h1 2827   1.476   0.173   1.267
    1TCM    cl3 2828   1.588   0.008   1.398
    1TCM     c1 2829   2.675   3.093   4.019
    1TCM    cl1 2830   2.569   3.099   4.162
    1TCM    cl2 2831   2.641   2.944   3.927
    1TCM     h1 2832   2.656   3.181   3.955
    1TCM    cl3 2833   2.845   3.093   4.071
    1TCM     c1 2834   5.108   3.349   1.235
    1TCM    cl1 2835   4.979   3.226   1.225
    1TCM    cl2 2836   5.248   3.294   1.141
    1TCM     h1 2837   5.070   3.444   1.193
    1TCM    cl3 2838   5.155   3.372   1.404
    1TCM     c1 2839   1.892   0.277   0.171
    1TCM    cl1 2840   1.853   0.106   0.143
    1TCM    cl2 2841   2.055   0.290   0.242
    1TCM     h1 2842   1.890   0.332   0.075
    1TCM    cl3 2843   1.773   0.348   0.283
    1TCM     c1 2844   1.144   1.892   2.960
    1TCM    cl1 2845   1.258   1.759   2.928
    1TCM    cl2 2846   1.227   2.021   3.050
    1TCM     h1 2847   1.106   1.933   2.864
    1TCM    cl3 2848   1.007   1.831   3.056
    1TCM     c1 2849   2.620   3.406   1.937
    1TCM    cl1 2850   2.545   3.532   1.837
    1TCM    cl2 2851   2.561   3.420   2.105
    1TCM     h1 2852   2.593   3.306   1.897
    1TCM    cl3 2853   2.797   3.425   1.935
    1TCM     c1 2854   1.507   0.607   2.925
    1TCM    cl1 2855   1.505   0.603   2.747
    1TCM    cl2 2856   1.466   0.446   2.988
    1TCM     h1 2857   1.609   0.635   2.960
    1TCM    cl3 2858   1.389   0.726   2.983
    1TCM     c1 2859   5.134   5.012   2.796
    1TCM    cl1 2860   5.047   4.890   2.893
    1TCM    cl2 2861   5.069   5.013   2.631
    1TCM     h1 2862   5.120   5.112   2.842
    1TCM    cl3 2863   5.307   4.971   2.792
    1TCM     c1 2864   2.534   4.085   3.327
    1TCM    cl1 2865   2.558   3.954   3.445
    1TCM    cl2 2866   2.392   4.182   3.374
    1TCM     h1 2867   2.624   4.150   3.326
    1TCM    cl3 2868   2.508   4.016   3.166
    1TCM     c1 2869   5.023   5.082   0.175
    1TCM    cl1 2870   4.889   5.131   0.067
    1TCM    cl2 2871   5.106   4.941   0.106
    1TCM     h1 2872   5.094   5.166   0.185
    1TCM    cl3 2873   4.957   5.040   0.335
    1TCM     c1 2874   1.545   4.049   5.175
    1TCM    cl1 2875   1.452   4.099   5.032
    1TCM    cl2 2876   1.454   3.925   5.264
    1TCM     h1 2877   1.642   4.008   5.143
    1TCM    cl3 2878   1.572   4.190   5.280
    1TCM     c1 2879   0.557   1.941   3.486
    1TCM    cl1 2880   0.596   2.016   3.642
    1TCM    cl2 2881   0.608   2.048   3.353
    1TCM     h1 2882   0.610   1.844   3.477
    1TCM    cl3 2883   0.382   1.913   3.476
    1TCM     c1 2884   4.653   0.449   4.785
    1TCM    cl1 2885   4.489   0.393   4.824
    1TCM    cl2 2886   4.763   0.405   4.917
    1TCM     h1 2887   4.687   0.401   4.691
    1TCM    cl3 2888   4.652   0.625   4.765
    1TCM     c1 2889   4.470   2.335   2.460
    1TCM    cl1 2890   4.306   2.399   2.428
    1TCM    cl2 2891   4.469   2.243   2.612
    1TCM     h1 2892   4.500   2.269   2.377
    1TCM    cl3 2893   4.584   2.471   2.474
    1TCM     c1 2894   3.510   4.725   1.629
    1TCM    cl1 2895   3.458   4.872   1.714
    1TCM    cl2 2896   3.368   4.628   1.585
    1TCM     h1 2897   3.566   4.753   1.537
    1TCM    cl3 2898   3.616   4.629   1.736
    1TCM     c1 2899   5.185   5.194   0.715
    1TCM    cl1 2900   5.225   5.106   0.864
    1TCM    cl2 2901   5.334   5.245   0.634
    1TCM     h1 2902   5.127   5.128   0.647
    1TCM    cl3 2903   5.087   5.337   0.756
    1TCM     c1 2904   3.994   5.157   0.255
    1TCM    cl1 2905   3.896   5.267   0.355
    1TCM    cl2 2906   3.970   5.196   0.083
    1TCM     h1 2907   4.101   5.170   0.281
    1TCM    cl3 2908   3.944   4.989   0.285
    1TCM     c1 2909   0.652   5.083   2.396
    1TCM    cl1 2910   0.545   5.190   2.489
    1TCM    cl2 2911   0.659   5.136   2.227
    1TCM     h1 2912   0.754   5.087   2.440
    1TCM    cl3 2913   0.591   4.916   2.404
    1TCM     c1 2914   2.874   5.145   4.379
    1TCM    cl1 2915   2.732   5.130   4.273
    1TCM    cl2 2916   2.824   5.126   4.548
    1TCM     h1 2917   2.948   5.066   4.353
    1TCM    cl3 2918   2.948   5.305   4.356
    1TCM     c1 2919   4.387   4.203   1.847
    1TCM    cl1 2920   4.469   4.072   1.935
    1TCM    cl2 2921   4.364   4.154   1.677
    1TCM     h1 2922   4.289   4.223   1.893
    1TCM    cl3 2923   4.487   4.350   1.852
    1TCM     c1 2924   3.238   3.292   5.212
    1TCM    cl1 2925   3.114   3.396   5.286
    1TCM    cl2 2926   3.312   3.377   5.074
    1TCM     h1 2927   3.316   3.269   5.287
    1TCM    cl3 2928   3.162   3.141   5.156
    1TCM     c1 2929   2.801   0.403   4.344
    1TCM    cl1 2930   2.752   0.317   4.197
    1TCM    cl2 2931   2.974   0.373   4.376
    1TCM     h1 2932   2.785   0.512   4.330
    1TCM    cl3 2933   2.705   0.346   4.482
    1TCM     c1 2934   3.300   3.048   1.855
    1TCM    cl1 2935   3.412   3.166   1.784
    1TCM    cl2 2936   3.305   3.061   2.032
    1TCM     h1 2937   3.197   3.069   1.819
    1TCM    cl3 2938   3.348   2.884   1.806
    1TCM     c1 2939   0.087   3.119   3.469
    1TCM    cl1 2940   0.230   3.050   3.550
    1TCM    cl2 2941   0.135   3.187   3.312
    1TCM     h1 2942   0.012   3.039   3.453
    1TCM    cl3 2943   0.017   3.247   3.570
    1TCM     c1 2944   1.518   3.865   3.094
    1TCM    cl1 2945   1.402   3.730   3.080
    1TCM    cl2 2946   1.576   3.875   3.262
    1TCM     h1 2947   1.603   3.847   3.026
    1TCM    cl3 2948   1.437   4.017   3.051
    1TCM     c1 2949   2.785   4.188   1.643
    1TCM    cl1 2950   2.651   4.272   1.724
    1TCM    cl2 2951   2.725   4.036   1.571
    1TCM     h1 2952   2.827   4.253   1.564
    1TCM    cl3 2953   2.912   4.150   1.762
    1TCM     c1 2954   5.146   1.665   2.949
    1TCM    cl1 2955   5.233   1.513   2.974
    1TCM    cl2 2956   4.987   1.656   3.028
    1TCM     h1 2957   5.204   1.749   2.993
    1TCM    cl3 2958   5.124   1.693   2.775
    1TCM     c1 2959   1.611   3.206   3.730
    1TCM    cl1 2960   1.741   3.214   3.851
    1TCM    cl2 2961   1.597   3.363   3.647
    1TCM     h1 2962   1.635   3.127   3.655
    1TCM    cl3 2963   1.457   3.167   3.809
    1TCM     c1 2964   2.954   4.878   2.461
    1TCM    cl1 2965   3.034   4.995   2.568
    1TCM    cl2 2966   3.070   4.820   2.339
    1TCM     h1 2967   2.918   4.792   2.522
    1TCM    cl3 2968   2.817   4.956   2.380
    1TCM     c1 2969   1.975   2.517   4.221
    1TCM    cl1 2970   1.880   2.367   4.211
    1TCM    cl2 2971   2.012   2.575   4.057
    1TCM     h1 2972   1.916   2.594   4.275
    1TCM    cl3 2973   2.126   2.486   4.309
    1TCM     c1 2974   1.962   3.450   4.311
    1TCM    cl1 2975   2.123   3.420   4.379
    1TCM    cl2 2976   1.939   3.349   4.166
    1TCM     h1 2977   1.885   3.423   4.386
    1TCM    cl3 2978   1.946   3.621   4.268
    1TCM     c1 2979   4.921   1.885   0.555
    1TCM    cl1 2980   5.029   1.992   0.646
    1TCM    cl2 2981   4.915   1.937   0.385
    1TCM     h1 2982   4.959   1.781   0.561
    1TCM    cl3 2983   4.757   1.892   0.625
    1TCM     c1 2984   2.043   3.272   2.399
    1TCM    cl1 2985   2.077   3.143   2.282
    1TCM    cl2 2986   1.963   3.203   2.542
    1TCM     h1 2987   2.139   3.320   2.430
    1TCM    cl3 2988   1.937   3.394   2.324
    1TCM     c1 2989   1.992   0.933   4.956
    1TCM    cl1 2990   2.122   0.995   5.060
    1TCM    cl2 2991   2.023   0.979   4.787
    1TCM     h1 2992   1.989   0.822   4.963
    1TCM    cl3 2993   1.836   1.000   5.008
    1TCM     c1 2994   0.326   5.077   4.036
    1TCM    cl1 2995   0.311   5.151   3.875
    1TCM    cl2 2996   0.463   5.152   4.122
    1TCM     h1 2997   0.233   5.094   4.093
    1TCM    cl3 2998   0.355   4.903   4.019
    1TCM     c1 2999   1.654   4.505   1.705
    1TCM    cl1 3000   1.512   4.402   1.736
    1TCM    cl2 3001   1.643   4.574   1.542
    1TCM     h1 3002   1.657   4.587   1.780
    1TCM    cl3 3003   1.802   4.407   1.718
    1TCM     c1 3004   4.870   1.027   4.197
    1TCM    cl1 3005   4.988   0.929   4.106
    1TCM    cl2 3006   4.931   1.193   4.213
    1TCM     h1 3007   4.773   1.027   4.143
    1TCM    cl3 3008   4.848   0.957   4.359
    1TCM     c1 3009   2.379   3.213   0.266
    1TCM    cl1 3010   2.478   3.224   0.119
    1TCM    cl2 3011   2.207   3.206   0.221
    1TCM     h1 3012   2.406   3.120   0.321
    1TCM    cl3 3013   2.408   3.355   0.368
    1TCM     c1 3014   2.630   4.350   1.396
    1TCM    cl1 3015   2.560   4.373   1.558
    1TCM    cl2 3016   2.500   4.339   1.276
    1TCM     h1 3017   2.696   4.436   1.372
    1TCM    cl3 3018   2.726   4.200   1.394
    1TCM     c1 3019   1.545   0.920   3.967
    1TCM    cl1 3020   1.593   1.012   3.822
    1TCM    cl2 3021   1.369   0.896   3.966
    1TCM     h1 3022   1.596   0.822   3.967
    1TCM    cl3 3023   1.591   1.011   4.113
    1TCM     c1 3024   1.586   1.102   2.878
    1TCM    cl1 3025   1.541   1.130   2.708
    1TCM    cl2 3026   1.580   1.255   2.968
    1TCM     h1 3027   1.515   1.030   2.924
    1TCM    cl3 3028   1.751   1.036   2.886
    1TCM     c1 3029   1.559   3.137   3.205
    1TCM    cl1 3030   1.525   3.213   3.363
    1TCM    cl2 3031   1.628   3.258   3.095
    1TCM     h1 3032   1.631   3.054   3.219
    1TCM    cl3 3033   1.408   3.073   3.137
    1TCM     c1 3034   3.732   4.590   3.062
    1TCM    cl1 3035   3.754   4.423   3.119
    1TCM    cl2 3036   3.768   4.703   3.195
    1TCM     h1 3037   3.801   4.610   2.978
    1TCM    cl3 3038   3.564   4.613   3.009
    1TCM     c1 3039   2.696   5.146   0.490
    1TCM    cl1 3040   2.796   5.210   0.358
    1TCM    cl2 3041   2.771   4.998   0.554
    1TCM     h1 3042   2.688   5.221   0.571
    1TCM    cl3 3043   2.533   5.108   0.428
    1TCM     c1 3044   1.666   3.790   4.097
    1TCM    cl1 3045   1.806   3.895   4.129
    1TCM    cl2 3046   1.530   3.889   4.039
    1TCM     h1 3047   1.693   3.716   4.020
    1TCM    cl3 3048   1.618   3.707   4.247
    1TCM     c1 3049   2.375   2.237   1.322
    1TCM    cl1 3050   2.433   2.293   1.480
    1TCM    cl2 3051   2.314   2.375   1.228
    1TCM     h1 3052   2.459   2.189   1.267
    1TCM    cl3 3053   2.244   2.118   1.346
    1TCM     c1 3054   3.091   0.101   3.753
    1TCM    cl1 3055   3.247   0.172   3.707
    1TCM    cl2 3056   2.974   0.231   3.785
    1TCM     h1 3057   3.054   0.037   3.671
    1TCM    cl3 3058   3.112   0.004   3.901
    1TCM     c1 3059   2.067   1.268   2.112
    1TCM    cl1 3060   2.013   1.409   2.207
    1TCM    cl2 3061   2.139   1.324   1.959
    1TCM     h1 3062   2.143   1.212   2.170
    1TCM    cl3 3063   1.928   1.163   2.077
    1TCM     c1 3064   2.286   2.872   0.433
    1TCM    cl1 3065   2.377   3.006   0.507
    1TCM    cl2 3066   2.366   2.718   0.472
    1TCM     h1 3067   2.182   2.871   0.473
    1TCM    cl3 3068   2.281   2.894   0.257
    1TCM     c1 3069   3.334   2.447   4.550
    1TCM    cl1 3070   3.198   2.558   4.524
    1TCM    cl2 3071   3.321   2.374   4.712
    1TCM     h1 3072   3.333   2.368   4.473
    1TCM    cl3 3073   3.487   2.538   4.539
    1TCM     c1 3074   0.797   0.365   2.000
    1TCM    cl1 3075   0.783   0.529   2.066
    1TCM    cl2 3076   0.843   0.252   2.130
    1TCM     h1 3077   0.700   0.334   1.956
    1TCM    cl3 3078   0.922   0.362   1.873
    1TCM     c1 3079   0.139   2.885   3.925
    1TCM    cl1 3080   0.078   2.796   4.065
    1TCM    cl2 3081   0.004   2.968   3.844
    1TCM     h1 3082   0.213   2.960   3.958
    1TCM    cl3 3083   0.215   2.772   3.811
    1TCM     c1 3084   4.287   4.912   0.803
    1TCM    cl1 3085   4.172   4.781   0.836
    1TCM    cl2 3086   4.203   5.046   0.722
    1TCM     h1 3087   4.330   4.949   0.899
    1TCM    cl3 3088   4.418   4.852   0.699
    1TCM     c1 3089   0.309   4.371   1.092
    1TCM    cl1 3090   0.341   4.513   0.989
    1TCM    cl2 3091   0.277   4.424   1.258
    1TCM     h1 3092   0.221   4.316   1.053
    1TCM    cl3 3093   0.450   4.263   1.090
    1TCM     c1 3094   2.023   2.343   3.827
    1TCM    cl1 3095   2.061   2.361   3.654
    1TCM    cl2 3096   2.129   2.448   3.923
    1TCM     h1 3097   1.917   2.371   3.845
    1TCM    cl3 3098   2.047   2.174   3.876
    1TCM     c1 3099   0.545   4.027   1.257
    1TCM    cl1 3100   0.598   3.863   1.303
    1TCM    cl2 3101   0.686   4.124   1.210
    1TCM     h1 3102   0.475   4.019   1.171
    1TCM    cl3 3103   0.463   4.104   1.395
    1TCM     c1 3104   1.394   3.821   0.400
    1TCM    cl1 3105   1.496   3.703   0.485
    1TCM    cl2 3106   1.407   3.795   0.224
    1TCM     h1 3107   1.288   3.808   0.431
    1TCM    cl3 3108   1.448   3.986   0.439
    1TCM     c1 3109   2.878   2.306   2.193
    1TCM    cl1 3110   2.832   2.185   2.315
    1TCM    cl2 3111   2.962   2.441   2.271
    1TCM     h1 3112   2.945   2.259   2.117
    1TCM    cl3 3113   2.731   2.366   2.112
    1TCM     c1 3114   1.841   2.787   2.482
    1TCM    cl1 3115   1.832   2.946   2.404
    1TCM    cl2 3116   1.694   2.759   2.577
    1TCM     h1 3117   1.850   2.708   2.404
    1TCM    cl3 3118   1.983   2.781   2.589
    1TCM     c1 3119   3.397   5.125   2.100
    1TCM    cl1 3120   3.544   5.118   2.200
    1TCM    cl2 3121   3.441   5.100   1.929
    1TCM     h1 3122   3.327   5.046   2.132
    1TCM    cl3 3123   3.320   5.285   2.118
    1TCM     c1 3124   1.002   2.568   4.402
    1TCM    cl1 3125   0.853   2.544   4.495
    1TCM    cl2 3126   0.962   2.600   4.232
    1TCM     h1 3127   1.058   2.655   4.443
    1TCM    cl3 3128   1.103   2.422   4.412
    1TCM     c1 3129   4.854   3.391   4.835
    1TCM    cl1 3130   4.949   3.401   4.985
    1TCM    cl2 3131   4.963   3.410   4.695
    1TCM     h1 3132   4.804   3.292   4.830
    1TCM    cl3 3133   4.732   3.520   4.833
    1TCM     c1 3134   4.615   1.673   3.958
    1TCM    cl1 3135   4.484   1.605   4.057
    1TCM    cl2 3136   4.681   1.546   3.852
    1TCM     h1 3137   4.576   1.755   3.896
    1TCM    cl3 3138   4.744   1.735   4.063
    1TCM     c1 3139   4.478   1.954   2.595
    1TCM    cl1 3140   4.619   2.019   2.683
    1TCM    cl2 3141   4.330   2.032   2.655
    1TCM     h1 3142   4.490   1.975   2.487
    1TCM    cl3 3143   4.468   1.779   2.622
    1TCM     c1 3144   1.462   2.813   5.176
    1TCM    cl1 3145   1.307   2.898   5.153
    1TCM    cl2 3146   1.523   2.847   5.340
    1TCM     h1 3147   1.446   2.704   5.164
    1TCM    cl3 3148   1.579   2.870   5.056
    1TCM     c1 3149   4.080   1.914   3.116
    1TCM    cl1 3150   4.208   1.984   3.219
    1TCM    cl2 3151   4.139   1.900   2.949
    1TCM     h1 3152   4.053   1.813   3.155
    1TCM    cl3 3153   3.937   2.019   3.120
    1TCM     c1 3154   2.773   4.819   1.000
    1TCM    cl1 3155   2.929   4.742   1.037
    1TCM    cl2 3156   2.718   4.766   0.839
    1TCM     h1 3157   2.698   4.789   1.076
    1TCM    cl3 3158   2.792   4.995   1.001
    1TCM     c1 3159   1.669   3.854   0.860
    1TCM    cl1 3160   1.602   3.976   0.969
    1TCM    cl2 3161   1.554   3.719   0.843
    1TCM     h1 3162   1.688   3.899   0.760
    1TCM    cl3 3163   1.822   3.792   0.927
    1TCM     c1 3164   5.061   3.144   5.202
    1TCM    cl1 3165   4.965   3.289   5.236
    1TCM    cl2 3166   4.999   3.065   5.055
    1TCM     h1 3167   5.167   3.173   5.186
    1TCM    cl3 3168   5.050   3.031   5.339
    1TCM     c1 3169   3.013   5.281   3.058
    1TCM    cl1 3170   2.862   5.301   3.150
    1TCM    cl2 3171   2.989   5.340   2.891
    1TCM     h1 3172   3.094   5.339   3.106
    1TCM    cl3 3173   3.057   5.109   3.054
    1TCM     c1 3174   5.089   3.970   3.647
    1TCM    cl1 3175   5.011   4.083   3.760
    1TCM    cl2 3176   5.110   4.049   3.489
    1TCM     h1 3177   5.189   3.941   3.687
    1TCM    cl3 3178   4.988   3.826   3.628
    1TCM     c1 3179   1.626   0.903   3.160
    1TCM    cl1 3180   1.641   1.080   3.168
    1TCM    cl2 3181   1.664   0.848   2.995
    1TCM     h1 3182   1.697   0.856   3.232
    1TCM    cl3 3183   1.460   0.855   3.202
    1TCM     c1 3184   3.239   2.871   4.786
    1TCM    cl1 3185   3.092   2.968   4.762
    1TCM    cl2 3186   3.339   2.946   4.912
    1TCM     h1 3187   3.211   2.768   4.817
    1TCM    cl3 3188   3.331   2.864   4.634
    1TCM     c1 3189   2.383   4.287   0.557
    1TCM    cl1 3190   2.408   4.233   0.389
    1TCM    cl2 3191   2.282   4.168   0.642
    1TCM     h1 3192   2.481   4.295   0.608
    1TCM    cl3 3193   2.302   4.445   0.557
    1TCM     c1 3194   3.228   1.599   0.266
    1TCM    cl1 3195   3.347   1.715   0.330
    1TCM    cl2 3196   3.095   1.580   0.382
    1TCM     h1 3197   3.189   1.636   0.169
    1TCM    cl3 3198   3.307   1.442   0.241
    1TCM     c1 3199   2.251   1.870   4.046
    1TCM    cl1 3200   2.164   1.990   3.949
    1TCM    cl2 3201   2.182   1.864   4.210
    1TCM     h1 3202   2.242   1.770   3.999
    1TCM    cl3 3203   2.423   1.915   4.057
    1TCM     c1 3204   1.294   0.983   2.684
    1TCM    cl1 3205   1.386   0.891   2.805
    1TCM    cl2 3206   1.147   0.894   2.641
    1TCM     h1 3207   1.267   1.082   2.726
    1TCM    cl3 3208   1.394   1.006   2.539
    1TCM     c1 3209   2.802   4.350   5.160
    1TCM    cl1 3210   2.631   4.344   5.209
    1TCM    cl2 3211   2.816   4.438   5.006
    1TCM     h1 3212   2.861   4.401   5.238
    1TCM    cl3 3213   2.863   4.184   5.139
    1TCM     c1 3214   2.378   4.577   1.557
    1TCM    cl1 3215   2.211   4.638   1.554
    1TCM    cl2 3216   2.413   4.495   1.403
    1TCM     h1 3217   2.448   4.662   1.571
    1TCM    cl3 3218   2.397   4.461   1.691
    1TCM     c1 3219   0.977   2.519   5.125
    1TCM    cl1 3220   0.942   2.669   5.036
    1TCM    cl2 3221   0.840   2.407   5.109
    1TCM     h1 3222   1.069   2.472   5.082
    1TCM    cl3 3223   1.004   2.556   5.297
    1TCM     c1 3224   1.709   1.180   1.827
    1TCM    cl1 3225   1.537   1.225   1.838
    1TCM    cl2 3226   1.760   1.180   1.657
    1TCM     h1 3227   1.769   1.253   1.884
    1TCM    cl3 3228   1.732   1.018   1.896
    1TCM     c1 3229   0.518   3.599   3.613
    1TCM    cl1 3230   0.539   3.770   3.658
    1TCM    cl2 3231   0.676   3.518   3.609
    1TCM     h1 3232   0.453   3.549   3.687
    1TCM    cl3 3233   0.442   3.590   3.452
    1TCM     c1 3234   2.298   0.104   1.407
    1TCM    cl1 3235   2.399   0.004   1.514
    1TCM    cl2 3236   2.294   0.032   1.245
    1TCM     h1 3237   2.195   0.109   1.448
    1TCM    cl3 3238   2.366   0.268   1.397
    1TCM     c1 3239   0.270   0.119   3.721
    1TCM    cl1 3240   0.356   0.261   3.658
    1TCM    cl2 3241   0.373   0.036   3.840
    1TCM     h1 3242   0.176   0.152   3.770
    1TCM    cl3 3243   0.231   0.009   3.588
    1TCM     c1 3244   3.237   4.044   1.534
    1TCM    cl1 3245   3.145   4.179   1.463
    1TCM    cl2 3246   3.240   4.061   1.711
    1TCM     h1 3247   3.188   3.948   1.507
    1TCM    cl3 3248   3.403   4.046   1.471
    1TCM     c1 3249   1.343   3.162   4.060
    1TCM    cl1 3250   1.349   2.987   4.031
    1TCM    cl2 3251   1.502   3.234   4.026
    1TCM     h1 3252   1.267   3.208   3.993
    1TCM    cl3 3253   1.299   3.193   4.229
    1TCM     c1 3254   0.909   3.654   0.418
    1TCM    cl1 3255   0.897   3.588   0.582
    1TCM    cl2 3256   1.076   3.706   0.387
    1TCM     h1 3257   0.880   3.576   0.344
    1TCM    cl3 3258   0.800   3.794   0.402
    1TCM     c1 3259   5.003   2.329   5.242
    1TCM    cl1 3260   5.149   2.360   5.339
    1TCM    cl2 3261   5.051   2.286   5.076
    1TCM     h1 3262   4.946   2.246   5.287
    1TCM    cl3 3263   4.902   2.475   5.239
    1TCM     c1 3264   1.038   5.181   2.504
    1TCM    cl1 3265   1.182   5.284   2.522
    1TCM    cl2 3266   0.939   5.239   2.369
    1TCM     h1 3267   1.071   5.076   2.484
    1TCM    cl3 3268   0.943   5.186   2.654
    1TCM     c1 3269   1.013   1.236   4.186
    1TCM    cl1 3270   0.884   1.172   4.082
    1TCM    cl2 3271   0.996   1.167   4.350
    1TCM     h1 3272   1.112   1.209   4.144
    1TCM    cl3 3273   0.999   1.413   4.195
    1TCM     c1 3274   1.226   1.820   5.182
    1TCM    cl1 3275   1.371   1.783   5.086
    1TCM    cl2 3276   1.274   1.885   5.340
    1TCM     h1 3277   1.164   1.895   5.128
    1TCM    cl3 3278   1.131   1.671   5.206
    1TCM     c1 3279   2.323   3.511   5.201
    1TCM    cl1 3280   2.398   3.520   5.040
    1TCM    cl2 3281   2.336   3.668   5.282
    1TCM     h1 3282   2.216   3.483   5.191
    1TCM    cl3 3283   2.408   3.388   5.298
    1TCM     c1 3284   1.310   0.611   0.963
    1TCM    cl1 3285   1.361   0.541   0.808
    1TCM    cl2 3286   1.346   0.496   1.094
    1TCM     h1 3287   1.365   0.705   0.981
    1TCM    cl3 3288   1.135   0.643   0.960
    1TCM     c1 3289   0.407   3.657   0.558
    1TCM    cl1 3290   0.505   3.730   0.429
    1TCM    cl2 3291   0.445   3.483   0.569
    1TCM     h1 3292   0.431   3.705   0.655
    1TCM    cl3 3293   0.235   3.678   0.521
    1TCM     c1 3294   3.350   1.268   3.523
    1TCM    cl1 3295   3.301   1.112   3.592
    1TCM    cl2 3296   3.206   1.363   3.483
    1TCM     h1 3297   3.411   1.323   3.598
    1TCM    cl3 3298   3.447   1.241   3.377
    1TCM     c1 3299   2.818   4.731   0.326
    1TCM    cl1 3300   2.812   4.767   0.500
    1TCM    cl2 3301   2.759   4.871   0.234
    1TCM     h1 3302   2.922   4.709   0.296
    1TCM    cl3 3303   2.715   4.590   0.292
    1TCM     c1 3304   2.966   1.091   3.232
    1TCM    cl1 3305   2.859   1.156   3.105
    1TCM    cl2 3306   2.910   1.148   3.391
    1TCM     h1 3307   2.963   0.980   3.229
    1TCM    cl3 3308   3.132   1.147   3.204
    1TCM     c1 3309   2.990   4.037   0.921
    1TCM    cl1 3310   2.984   4.107   0.757
    1TCM    cl2 3311   3.124   3.920   0.931
    1TCM     h1 3312   3.007   4.118   0.995
    1TCM    cl3 3313   2.836   3.955   0.956
    1TCM     c1 3314   4.443   4.326   1.153
    1TCM    cl1 3315   4.434   4.298   1.328
    1TCM    cl2 3316   4.470   4.172   1.069
    1TCM     h1 3317   4.348   4.372   1.118
    1TCM    cl3 3318   4.577   4.437   1.117
    1TCM     c1 3319   4.582   3.064   0.246
    1TCM    cl1 3320   4.436   3.058   0.348
    1TCM    cl2 3321   4.535   3.101   0.078
    1TCM     h1 3322   4.650   3.143   0.283
    1TCM    cl3 3323   4.664   2.906   0.251
    1TCM     c1 3324   2.778   1.094   2.025
    1TCM    cl1 3325   2.643   1.193   2.085
    1TCM    cl2 3326   2.812   0.964   2.142
    1TCM     h1 3327   2.751   1.050   1.927
    1TCM    cl3 3328   2.922   1.196   2.007
    1TCM     c1 3329   3.348   4.626   2.531
    1TCM    cl1 3330   3.336   4.467   2.610
    1TCM    cl2 3331   3.495   4.708   2.586
    1TCM     h1 3332   3.351   4.612   2.421
    1TCM    cl3 3333   3.206   4.724   2.574
    1TCM     c1 3334   3.373   4.024   4.289
    1TCM    cl1 3335   3.503   4.068   4.176
    1TCM    cl2 3336   3.363   4.146   4.418
    1TCM     h1 3337   3.276   4.020   4.234
    1TCM    cl3 3338   3.407   3.865   4.360
    1TCM     c1 3339   4.180   0.302   0.199
    1TCM    cl1 3340   4.265   0.377   0.336
    1TCM    cl2 3341   4.255   0.355   0.047
    1TCM     h1 3342   4.187   0.192   0.207
    1TCM    cl3 3343   4.009   0.352   0.201
    1TCM     c1 3344   1.877   3.332   3.554
    1TCM    cl1 3345   1.842   3.472   3.450
    1TCM    cl2 3346   2.050   3.293   3.544
    1TCM     h1 3347   1.850   3.357   3.659
    1TCM    cl3 3348   1.781   3.193   3.500
    1TCM     c1 3349   0.653   2.585   1.950
    1TCM    cl1 3350   0.584   2.738   2.008
    1TCM    cl2 3351   0.828   2.583   1.982
    1TCM     h1 3352   0.605   2.500   2.002
    1TCM    cl3 3353   0.625   2.570   1.775
    1TCM     c1 3354   5.253   4.345   3.023
    1TCM    cl1 3355   5.337   4.434   2.894
    1TCM    cl2 3356   5.340   4.369   3.177
    1TCM     h1 3357   5.150   4.383   3.033
    1TCM    cl3 3358   5.250   4.172   2.983
    1TCM     c1 3359   2.259   3.629   1.347
    1TCM    cl1 3360   2.149   3.760   1.394
    1TCM    cl2 3361   2.426   3.675   1.386
    1TCM     h1 3362   2.232   3.537   1.403
    1TCM    cl3 3363   2.245   3.599   1.173
    1TCM     c1 3364   5.101   1.370   2.422
    1TCM    cl1 3365   4.969   1.307   2.522
    1TCM    cl2 3366   5.248   1.274   2.451
    1TCM     h1 3367   5.073   1.364   2.315
    1TCM    cl3 3368   5.132   1.540   2.465
    1TCM     c1 3369   4.088   3.177   4.320
    1TCM    cl1 3370   4.130   3.095   4.168
    1TCM    cl2 3371   4.160   3.089   4.457
    1TCM     h1 3372   4.127   3.281   4.318
    1TCM    cl3 3373   3.911   3.181   4.339
    1TCM     c1 3374   1.563   3.631   3.463
    1TCM    cl1 3375   1.471   3.558   3.597
    1TCM    cl2 3376   1.537   3.807   3.463
    1TCM     h1 3377   1.671   3.609   3.475
    1TCM    cl3 3378   1.506   3.563   3.308
    1TCM     c1 3379   2.430   3.560   2.333
    1TCM    cl1 3380   2.288   3.615   2.426
    1TCM    cl2 3381   2.413   3.614   2.164
    1TCM     h1 3382   2.522   3.604   2.377
    1TCM    cl3 3383   2.439   3.383   2.338
    1TCM     c1 3384   4.821   0.831   2.885
    1TCM    cl1 3385   4.775   0.666   2.933
    1TCM    cl2 3386   4.721   0.883   2.748
    1TCM     h1 3387   4.805   0.900   2.971
    1TCM    cl3 3388   4.992   0.833   2.839
    1TCM     c1 3389   4.887   2.044   1.268
    1TCM    cl1 3390   4.760   2.014   1.147
    1TCM    cl2 3391   4.842   2.186   1.366
    1TCM     h1 3392   4.897   1.956   1.334
    1TCM    cl3 3393   5.041   2.075   1.186
    1TCM     c1 3394   3.213   4.089   0.366
    1TCM    cl1 3395   3.302   3.956   0.445
    1TCM    cl2 3396   3.242   4.084   0.191
    1TCM     h1 3397   3.104   4.077   0.386
    1TCM    cl3 3398   3.269   4.244   0.431
    1TCM     c1 3399   2.812   4.177   3.964
    1TCM    cl1 3400   2.900   4.065   3.858
    1TCM    cl2 3401   2.810   4.112   4.130
    1TCM     h1 3402   2.862   4.276   3.964
    1TCM    cl3 3403   2.645   4.196   3.906
    1TCM     c1 3404   2.084   4.603   2.220
    1TCM    cl1 3405   2.233   4.549   2.300
    1TCM    cl2 3406   1.942   4.543   2.309
    1TCM     h1 3407   2.081   4.714   2.218
    1TCM    cl3 3408   2.080   4.541   2.053
    1TCM     c1 3409   1.597   1.749   0.688
    1TCM    cl1 3410   1.499   1.741   0.836
    1TCM    cl2 3411   1.739   1.852   0.717
    1TCM     h1 3412   1.631   1.647   0.660
    1TCM    cl3 3413   1.500   1.818   0.556
    1TCM     c1 3414   0.279   2.831   4.378
    1TCM    cl1 3415   0.309   2.997   4.321
    1TCM    cl2 3416   0.316   2.716   4.248
    1TCM     h1 3417   0.343   2.810   4.466
    1TCM    cl3 3418   0.108   2.815   4.425
    1TCM     c1 3419   0.507   1.564   4.702
    1TCM    cl1 3420   0.571   1.713   4.776
    1TCM    cl2 3421   0.620   1.430   4.732
    1TCM     h1 3422   0.408   1.540   4.747
    1TCM    cl3 3423   0.488   1.588   4.527
    1TCM     c1 3424   5.031   2.948   0.643
    1TCM    cl1 3425   4.911   3.020   0.753
    1TCM    cl2 3426   5.084   2.791   0.708
    1TCM     h1 3427   4.985   2.933   0.543
    1TCM    cl3 3428   5.171   3.056   0.628
    1TCM     c1 3429   2.214   4.210   4.820
    1TCM    cl1 3430   2.226   4.033   4.810
    1TCM    cl2 3431   2.245   4.262   4.987
    1TCM     h1 3432   2.288   4.256   4.752
    1TCM    cl3 3433   2.050   4.261   4.772
    1TCM     c1 3434   3.017   3.682   3.632
    1TCM    cl1 3435   2.905   3.592   3.527
    1TCM    cl2 3436   3.163   3.724   3.540
    1TCM     h1 3437   2.968   3.775   3.668
    1TCM    cl3 3438   3.062   3.581   3.771
    1TCM     c1 3439   2.948   4.367   0.378
    1TCM    cl1 3440   2.951   4.246   0.508
    1TCM    cl2 3441   3.105   4.369   0.296
    1TCM     h1 3442   2.868   4.341   0.305
    1TCM    cl3 3443   2.914   4.527   0.447
    1TCM     c1 3444   3.450   4.478   0.463
    1TCM    cl1 3445   3.485   4.358   0.337
    1TCM    cl2 3446   3.513   4.420   0.620
    1TCM     h1 3447   3.498   4.574   0.437
    1TCM    cl3 3448   3.274   4.501   0.475
    1TCM     c1 3449   2.461   3.787   0.971
    1TCM    cl1 3450   2.601   3.848   0.880
    1TCM    cl2 3451   2.491   3.809   1.145
    1TCM     h1 3452   2.371   3.844   0.942
    1TCM    cl3 3453   2.438   3.615   0.937
    1TCM     c1 3454   4.032   4.198   3.845
    1TCM    cl1 3455   3.945   4.297   3.965
    1TCM    cl2 3456   4.130   4.304   3.741
    1TCM     h1 3457   4.098   4.126   3.898
    1TCM    cl3 3458   3.915   4.109   3.745
    1TCM     c1 3459   5.203   4.786   4.214
    1TCM    cl1 3460   5.042   4.757   4.144
    1TCM    cl2 3461   5.186   4.860   4.375
    1TCM     h1 3462   5.257   4.690   4.223
    1TCM    cl3 3463   5.295   4.896   4.108
    1TCM     c1 3464   4.199   0.365   3.536
    1TCM    cl1 3465   4.240   0.210   3.613
    1TCM    cl2 3466   4.040   0.419   3.593
    1TCM     h1 3467   4.276   0.441   3.562
    1TCM    cl3 3468   4.195   0.344   3.359
    1TCM     c1 3469   1.789   2.657   3.453
    1TCM    cl1 3470   1.952   2.661   3.382
    1TCM    cl2 3471   1.800   2.675   3.630
    1TCM     h1 3472   1.728   2.740   3.411
    1TCM    cl3 3473   1.712   2.501   3.414
    1TCM     c1 3474   5.016   4.628   2.628
    1TCM    cl1 3475   5.007   4.795   2.688
    1TCM    cl2 3476   5.001   4.515   2.764
    1TCM     h1 3477   4.934   4.610   2.555
    1TCM    cl3 3478   5.173   4.603   2.547
    1TCM     c1 3479   2.420   0.794   1.978
    1TCM    cl1 3480   2.393   0.787   1.802
    1TCM    cl2 3481   2.414   0.629   2.045
    1TCM     h1 3482   2.519   0.839   1.999
    1TCM    cl3 3483   2.293   0.893   2.054
    1TCM     c1 3484   0.276   2.362   3.074
    1TCM    cl1 3485   0.160   2.344   2.941
    1TCM    cl2 3486   0.318   2.202   3.138
    1TCM     h1 3487   0.368   2.412   3.036
    1TCM    cl3 3488   0.204   2.461   3.203
    1TCM     c1 3489   1.098   4.055   1.105
    1TCM    cl1 3490   1.101   4.056   0.927
    1TCM    cl2 3491   1.231   3.954   1.166
    1TCM     h1 3492   1.110   4.159   1.143
    1TCM    cl3 3493   0.943   3.990   1.162
    1TCM     c1 3494   2.645   3.013   0.691
    1TCM    cl1 3495   2.732   3.018   0.536
    1TCM    cl2 3496   2.533   3.151   0.701
    1TCM     h1 3497   2.588   2.918   0.698
    1TCM    cl3 3498   2.762   3.022   0.825
    1TCM     c1 3499   0.645   0.688   0.858
    1TCM    cl1 3500   0.808   0.648   0.799
    1TCM    cl2 3501   0.598   0.572   0.984
    1TCM     h1 3502   0.644   0.790   0.900
    1TCM    cl3 3503   0.529   0.678   0.723
    1TCM     c1 3504   5.063   1.899   3.142
    1TCM    cl1 3505   5.131   1.740   3.180
    1TCM    cl2 3506   5.112   1.947   2.978
    1TCM     h1 3507   4.952   1.894   3.147
    1TCM    cl3 3508   5.122   2.019   3.259
    1TCM     c1 3509   2.536   0.994   3.484
    1TCM    cl1 3510   2.399   0.929   3.391
    1TCM    cl2 3511   2.545   0.912   3.641
    1TCM     h1 3512   2.630   0.976   3.428
    1TCM    cl3 3513   2.513   1.168   3.508
    1TCM     c1 3514   5.060   1.031   2.256
    1TCM    cl1 3515   5.171   1.166   2.225
    1TCM    cl2 3516   5.148   0.877   2.244
    1TCM     h1 3517   5.017   1.041   2.358
    1TCM    cl3 3518   4.928   1.034   2.136
    1TCM     c1 3519   3.888   0.712   4.811
    1TCM    cl1 3520   4.019   0.818   4.753
    1TCM    cl2 3521   3.779   0.674   4.675
    1TCM     h1 3522   3.931   0.619   4.852
    1TCM    cl3 3523   3.796   0.796   4.938
    1TCM     c1 3524   5.108   0.879   5.065
    1TCM    cl1 3525   5.203   0.797   4.939
    1TCM    cl2 3526   5.186   0.855   5.223
    1TCM     h1 3527   5.103   0.988   5.042
    1TCM    cl3 3528   4.944   0.811   5.069
    1TCM     c1 3529   2.940   0.598   1.490
    1TCM    cl1 3530   2.851   0.703   1.378
    1TCM    cl2 3531   2.911   0.652   1.657
    1TCM     h1 3532   2.906   0.493   1.479
    1TCM    cl3 3533   3.114   0.608   1.455
    1TCM     c1 3534   2.078   1.358   3.858
    1TCM    cl1 3535   2.082   1.439   4.016
    1TCM    cl2 3536   1.919   1.283   3.834
    1TCM     h1 3537   2.097   1.432   3.778
    1TCM    cl3 3538   2.204   1.232   3.853
    1TCM     c1 3539   3.467   1.421   2.092
    1TCM    cl1 3540   3.564   1.483   1.957
    1TCM    cl2 3541   3.575   1.372   2.224
    1TCM     h1 3542   3.399   1.501   2.128
    1TCM    cl3 3543   3.371   1.281   2.038
   5.54000   5.54000   5.54000
