FOO
 3367
    1MOM     C1    1   4.076   4.458   2.294
    1MOM     O2    2   4.003   4.367   2.209
    1MOM     C3    3   4.068   4.254   2.164
    1MOM     C4    4   4.206   4.231   2.172
    1MOM     C5    5   4.261   4.113   2.122
    1MOM     C6    6   4.181   4.014   2.064
    1MOM     C7    7   4.248   3.895   2.007
    1MOM     C8    8   4.353   3.831   2.076
    1MOM     C9    9   4.427   3.726   2.018
    1MOM    C10   10   4.543   3.665   2.087
    1MOM    O11   11   4.561   3.695   2.205
    1MOM    C12   12   4.391   3.683   1.889
    1MOM    C13   13   4.287   3.744   1.820
    1MOM    C14   14   4.217   3.850   1.878
    1MOM    C15   15   4.041   4.036   2.057
    1MOM    C16   16   3.947   3.935   2.007
    1MOM    C17   17   3.885   3.950   1.882
    1MOM    C18   18   3.797   3.852   1.833
    1MOM    C19   19   3.745   3.862   1.691
    1MOM    C20   20   3.596   3.830   1.677
    1MOM    N21   21   3.822   3.764   1.615
    1MOM    C22   22   3.768   3.740   1.914
    1MOM    C23   23   3.827   3.727   2.040
    1MOM    C24   24   3.918   3.823   2.086
    1MOM    C25   25   3.988   4.156   2.105
    1MOM    H26   26   4.154   4.503   2.232
    1MOM    H27   27   4.114   4.399   2.377
    1MOM    H28   28   4.002   4.531   2.326
    1MOM    H29   29   4.273   4.305   2.215
    1MOM    H30   30   4.369   4.101   2.126
    1MOM    H31   31   4.379   3.865   2.176
    1MOM    H32   32   4.446   3.602   1.840
    1MOM    H33   33   4.263   3.712   1.720
    1MOM    H34   34   4.140   3.899   1.820
    1MOM    H35   35   3.909   4.037   1.822
    1MOM    H36   36   3.761   3.963   1.654
    1MOM    H37   37   3.584   3.723   1.695
    1MOM    H38   38   3.545   3.892   1.752
    1MOM    H39   39   3.570   3.858   1.575
    1MOM    H40   40   3.824   3.670   1.654
    1MOM    H41   41   3.700   3.663   1.880
    1MOM    H42   42   3.804   3.640   2.102
    1MOM    H43   43   3.965   3.811   2.183
    1MOM    H44   44   3.881   4.173   2.099
    2MOM    C45   45   4.764   3.974   1.150
    2MOM    O46   46   4.740   3.834   1.170
    2MOM    C47   47   4.625   3.796   1.235
    2MOM    C48   48   4.545   3.882   1.312
    2MOM    C49   49   4.431   3.834   1.376
    2MOM    C50   50   4.392   3.699   1.367
    2MOM    C51   51   4.271   3.655   1.441
    2MOM    C52   52   4.158   3.738   1.449
    2MOM    C53   53   4.043   3.702   1.522
    2MOM    C54   54   3.932   3.797   1.539
    2MOM    O55   55   3.943   3.911   1.497
    2MOM    C56   56   4.042   3.576   1.585
    2MOM    C57   57   4.152   3.492   1.578
    2MOM    C58   58   4.267   3.532   1.509
    2MOM    C59   59   4.473   3.612   1.290
    2MOM    C60   60   4.442   3.470   1.271
    2MOM    C61   61   4.518   3.371   1.336
    2MOM    C62   62   4.484   3.235   1.326
    2MOM    C63   63   4.564   3.133   1.404
    2MOM    C64   64   4.665   3.067   1.309
    2MOM    N65   65   4.482   3.028   1.463
    2MOM    C66   66   4.377   3.198   1.244
    2MOM    C67   67   4.301   3.295   1.179
    2MOM    C68   68   4.332   3.430   1.194
    2MOM    C69   69   4.588   3.662   1.226
    2MOM    H70   70   4.784   4.017   1.248
    2MOM    H71   71   4.675   4.015   1.102
    2MOM    H72   72   4.851   3.978   1.085
    2MOM    H73   73   4.569   3.987   1.323
    2MOM    H74   74   4.373   3.903   1.437
    2MOM    H75   75   4.160   3.834   1.397
    2MOM    H76   76   3.956   3.541   1.643
    2MOM    H77   77   4.151   3.396   1.627
    2MOM    H78   78   4.353   3.467   1.512
    2MOM    H79   79   4.602   3.402   1.397
    2MOM    H80   80   4.621   3.183   1.483
    2MOM    H81   81   4.606   3.015   1.233
    2MOM    H82   82   4.724   3.149   1.267
    2MOM    H83   83   4.725   3.000   1.370
    2MOM    H84   84   4.535   2.942   1.473
    2MOM    H85   85   4.352   3.093   1.231
    2MOM    H86   86   4.217   3.265   1.117
    2MOM    H87   87   4.270   3.506   1.145
    2MOM    H88   88   4.649   3.595   1.166
    3MOM    C89   89   3.993   3.480   2.300
    3MOM    O90   90   3.899   3.414   2.214
    3MOM    C91   91   3.949   3.358   2.098
    3MOM    C92   92   4.060   3.409   2.028
    3MOM    C93   93   4.106   3.344   1.914
    3MOM    C94   94   4.044   3.228   1.866
    3MOM    C95   95   4.094   3.167   1.741
    3MOM    C96   96   4.231   3.140   1.722
    3MOM    C97   97   4.280   3.090   1.600
    3MOM    C98   98   4.422   3.056   1.584
    3MOM    O99   99   4.486   3.017   1.681
    3MOM   C100  100   4.188   3.067   1.495
    3MOM   C101  101   4.053   3.094   1.513
    3MOM   C102  102   4.006   3.143   1.635
    3MOM   C103  103   3.933   3.176   1.936
    3MOM   C104  104   3.871   3.047   1.902
    3MOM   C105  105   3.741   3.039   1.849
    3MOM   C106  106   3.684   2.916   1.814
    3MOM   C107  107   3.546   2.911   1.751
    3MOM   C108  108   3.442   2.871   1.856
    3MOM   N109  109   3.537   2.817   1.640
    3MOM   C110  110   3.758   2.799   1.838
    3MOM   C111  111   3.887   2.805   1.890
    3MOM   C112  112   3.944   2.929   1.920
    3MOM   C113  113   3.886   3.244   2.049
    3MOM   H114  114   4.016   3.576   2.253
    3MOM   H115  115   4.079   3.414   2.310
    3MOM   H116  116   3.939   3.493   2.395
    3MOM   H117  117   4.111   3.498   2.062
    3MOM   H118  118   4.192   3.386   1.861
    3MOM   H119  119   4.299   3.156   1.804
    3MOM   H120  120   4.222   3.026   1.401
    3MOM   H121  121   3.983   3.076   1.433
    3MOM   H122  122   3.900   3.165   1.646
    3MOM   H123  123   3.685   3.131   1.834
    3MOM   H124  124   3.520   3.011   1.716
    3MOM   H125  125   3.467   2.769   1.888
    3MOM   H126  126   3.451   2.944   1.937
    3MOM   H127  127   3.345   2.876   1.806
    3MOM   H128  128   3.442   2.780   1.632
    3MOM   H129  129   3.714   2.702   1.814
    3MOM   H130  130   3.945   2.714   1.904
    3MOM   H131  131   4.046   2.934   1.959
    3MOM   H132  132   3.802   3.204   2.105
    4MOM   C133  133   4.062   3.340   0.853
    4MOM   O134  134   4.083   3.197   0.858
    4MOM   C135  135   4.026   3.126   0.961
    4MOM   C136  136   3.950   3.180   1.066
    4MOM   C137  137   3.899   3.098   1.166
    4MOM   C138  138   3.920   2.959   1.165
    4MOM   C139  139   3.874   2.879   1.281
    4MOM   C140  140   3.748   2.904   1.340
    4MOM   C141  141   3.706   2.834   1.455
    4MOM   C142  142   3.575   2.863   1.516
    4MOM   O143  143   3.488   2.922   1.454
    4MOM   C144  144   3.791   2.736   1.509
    4MOM   C145  145   3.916   2.711   1.452
    4MOM   C146  146   3.957   2.783   1.339
    4MOM   C147  147   3.991   2.903   1.056
    4MOM   C148  148   4.002   2.757   1.034
    4MOM   C149  149   4.126   2.692   1.028
    4MOM   C150  150   4.134   2.553   1.002
    4MOM   C151  151   4.268   2.482   1.003
    4MOM   C152  152   4.305   2.426   0.865
    4MOM   N153  153   4.264   2.372   1.099
    4MOM   C154  154   4.015   2.482   0.980
    4MOM   C155  155   3.891   2.546   0.987
    4MOM   C156  156   3.885   2.683   1.014
    4MOM   C157  157   4.044   2.988   0.958
    4MOM   H158  158   4.105   3.382   0.944
    4MOM   H159  159   3.955   3.355   0.845
    4MOM   H160  160   4.116   3.372   0.763
    4MOM   H161  161   3.931   3.287   1.072
    4MOM   H162  162   3.844   3.144   1.248
    4MOM   H163  163   3.682   2.978   1.297
    4MOM   H164  164   3.761   2.677   1.594
    4MOM   H165  165   3.982   2.636   1.495
    4MOM   H166  166   4.056   2.763   1.299
    4MOM   H167  167   4.217   2.749   1.045
    4MOM   H168  168   4.347   2.553   1.030
    4MOM   H169  169   4.226   2.356   0.837
    4MOM   H170  170   4.310   2.513   0.798
    4MOM   H171  171   4.402   2.378   0.877
    4MOM   H172  172   4.212   2.288   1.075
    4MOM   H173  173   4.018   2.375   0.959
    4MOM   H174  174   3.800   2.490   0.971
    4MOM   H175  175   3.788   2.732   1.019
    4MOM   H176  176   4.099   2.947   0.875
    5CAP   C177  177   4.735   3.526   2.084
    5CAP   O178  178   4.622   3.581   2.015
    5CAP   H179  179   4.798   3.610   2.113
    5CAP   H180  180   4.784   3.460   2.011
    5CAP   H181  181   4.695   3.471   2.170
    6CAP   C182  182   4.306   2.109   1.476
    6CAP   C183  183   4.332   2.256   1.439
    6CAP   C184  184   4.245   2.345   1.529
    6CAP   C185  185   4.482   2.285   1.462
    6CAP   O186  186   4.293   2.264   1.300
    6CAP   C187  187   4.310   2.378   1.228
    6CAP   O188  188   4.365   2.480   1.266
    6CAP   H189  189   4.329   2.098   1.582
    6CAP   H190  190   4.201   2.090   1.454
    6CAP   H191  191   4.373   2.049   1.413
    6CAP   H192  192   4.141   2.315   1.511
    6CAP   H193  193   4.263   2.448   1.500
    6CAP   H194  194   4.276   2.325   1.632
    6CAP   H195  195   4.535   2.231   1.383
    6CAP   H196  196   4.496   2.393   1.457
    6CAP   H197  197   4.506   2.246   1.562
    7TCM     c1  198   4.066   0.216   2.542
    7TCM    cl1  199   4.178   0.147   2.419
    7TCM    cl2  200   4.043   0.390   2.509
    7TCM     h1  201   3.970   0.165   2.536
    7TCM    cl3  202   4.138   0.194   2.705
    8TCM     c1  203   1.437   2.794   4.605
    8TCM    cl1  204   1.547   2.728   4.479
    8TCM    cl2  205   1.470   2.713   4.761
    8TCM     h1  206   1.453   2.901   4.615
    8TCM    cl3  207   1.266   2.764   4.557
    9TCM     c1  208   1.403   1.869   0.846
    9TCM    cl1  209   1.498   1.717   0.852
    9TCM    cl2  210   1.431   1.951   0.690
    9TCM     h1  211   1.296   1.846   0.857
    9TCM    cl3  212   1.453   1.977   0.981
   10TCM     c1  213   2.524   0.437   3.576
   10TCM    cl1  214   2.569   0.606   3.617
   10TCM    cl2  215   2.666   0.332   3.607
   10TCM     h1  216   2.441   0.404   3.638
   10TCM    cl3  217   2.479   0.428   3.403
   11TCM     c1  218   2.134   1.520   2.801
   11TCM    cl1  219   2.170   1.566   2.631
   11TCM    cl2  220   2.192   1.649   2.912
   11TCM     h1  221   2.026   1.507   2.814
   11TCM    cl3  222   2.217   1.366   2.840
   12TCM     c1  223   4.856   1.335   0.191
   12TCM    cl1  224   4.939   1.468   0.103
   12TCM    cl2  225   4.936   1.309   0.349
   12TCM     h1  226   4.751   1.361   0.207
   12TCM    cl3  227   4.866   1.185   0.094
   13TCM     c1  228   2.725   0.518   2.577
   13TCM    cl1  229   2.587   0.633   2.577
   13TCM    cl2  230   2.677   0.370   2.487
   13TCM     h1  231   2.811   0.564   2.528
   13TCM    cl3  232   2.768   0.474   2.745
   14TCM     c1  233   3.294   3.908   4.699
   14TCM    cl1  234   3.365   3.980   4.550
   14TCM    cl2  235   3.241   4.039   4.809
   14TCM     h1  236   3.208   3.846   4.671
   14TCM    cl3  237   3.418   3.807   4.781
   15TCM     c1  238   0.282   3.839   3.282
   15TCM    cl1  239   0.451   3.786   3.252
   15TCM    cl2  240   0.251   3.991   3.193
   15TCM     h1  241   0.213   3.761   3.248
   15TCM    cl3  242   0.260   3.867   3.457
   16TCM     c1  243   3.792   0.936   2.410
   16TCM    cl1  244   3.756   0.957   2.584
   16TCM    cl2  245   3.970   0.931   2.387
   16TCM     h1  246   3.748   0.842   2.375
   16TCM    cl3  247   3.725   1.074   2.317
   17TCM     c1  248   4.696   2.814   4.359
   17TCM    cl1  249   4.533   2.854   4.295
   17TCM    cl2  250   4.691   2.651   4.434
   17TCM     h1  251   4.769   2.814   4.277
   17TCM    cl3  252   4.743   2.935   4.483
   18TCM     c1  253   0.119   2.511   1.160
   18TCM    cl1  254   0.186   2.639   1.054
   18TCM    cl2  255   0.068   2.582   1.317
   18TCM     h1  256   0.033   2.464   1.111
   18TCM    cl3  257   0.245   2.387   1.191
   19TCM     c1  258   1.077   1.669   2.071
   19TCM    cl1  259   1.180   1.733   2.203
   19TCM    cl2  260   0.938   1.780   2.046
   19TCM     h1  261   1.136   1.662   1.979
   19TCM    cl3  262   1.015   1.507   2.116
   20TCM     c1  263   4.270   4.199   0.341
   20TCM    cl1  264   4.377   4.339   0.374
   20TCM    cl2  265   4.196   4.218   0.179
   20TCM     h1  266   4.328   4.107   0.345
   20TCM    cl3  267   4.139   4.194   0.464
   21TCM     c1  268   2.329   4.951   3.733
   21TCM    cl1  269   2.406   4.885   3.881
   21TCM    cl2  270   2.456   0.018   3.625
   21TCM     h1  271   2.274   4.872   3.682
   21TCM    cl3  272   2.217   0.083   3.779
   22TCM     c1  273   2.585   1.460   2.870
   22TCM    cl1  274   2.750   1.519   2.910
   22TCM    cl2  275   2.586   1.280   2.864
   22TCM     h1  276   2.515   1.493   2.946
   22TCM    cl3  277   2.536   1.526   2.710
   23TCM     c1  278   0.341   2.736   4.771
   23TCM    cl1  279   0.520   2.729   4.755
   23TCM    cl2  280   0.270   2.585   4.707
   23TCM     h1  281   0.314   2.749   4.876
   23TCM    cl3  282   0.280   2.876   4.676
   24TCM     c1  283   4.432   3.224   2.122
   24TCM    cl1  284   4.480   3.293   1.964
   24TCM    cl2  285   4.292   3.114   2.099
   24TCM     h1  286   4.515   3.168   2.165
   24TCM    cl3  287   4.385   3.357   2.233
   25TCM     c1  288   0.124   3.670   4.641
   25TCM    cl1  289   0.068   3.500   4.655
   25TCM    cl2  290   4.981   3.778   4.625
   25TCM     h1  291   0.180   3.697   4.731
   25TCM    cl3  292   0.228   3.688   4.497
   26TCM     c1  293   1.903   0.946   3.195
   26TCM    cl1  294   2.044   1.053   3.222
   26TCM    cl2  295   1.904   0.892   3.023
   26TCM     h1  296   1.909   0.859   3.261
   26TCM    cl3  297   1.753   1.038   3.228
   27TCM     c1  298   0.939   1.694   2.556
   27TCM    cl1  299   1.103   1.622   2.541
   27TCM    cl2  300   0.851   1.678   2.400
   27TCM     h1  301   0.884   1.641   2.634
   27TCM    cl3  302   0.953   1.867   2.599
   28TCM     c1  303   3.011   4.502   4.586
   28TCM    cl1  304   3.031   4.539   4.412
   28TCM    cl2  305   2.866   4.398   4.610
   28TCM     h1  306   3.100   4.450   4.624
   28TCM    cl3  307   2.987   4.655   4.677
   29TCM     c1  308   2.408   2.762   1.628
   29TCM    cl1  309   2.232   2.728   1.627
   29TCM    cl2  310   2.438   2.931   1.577
   29TCM     h1  311   2.448   2.747   1.728
   29TCM    cl3  312   2.491   2.651   1.513
   30TCM     c1  313   2.606   2.082   4.939
   30TCM    cl1  314   2.577   1.959   0.067
   30TCM    cl2  315   2.773   2.146   4.955
   30TCM     h1  316   2.593   2.036   4.841
   30TCM    cl3  317   2.489   2.216   4.959
   31TCM     c1  318   4.927   4.557   0.913
   31TCM    cl1  319   4.866   4.506   0.752
   31TCM    cl2  320   4.832   4.477   1.042
   31TCM     h1  321   0.033   4.529   0.923
   31TCM    cl3  322   4.911   4.735   0.931
   32TCM     c1  323   3.092   0.396   1.207
   32TCM    cl1  324   3.124   0.231   1.145
   32TCM    cl2  325   2.997   0.487   1.085
   32TCM     h1  326   3.035   0.390   1.301
   32TCM    cl3  327   3.248   0.480   1.237
   33TCM     c1  328   4.335   2.721   1.678
   33TCM    cl1  329   4.296   2.734   1.504
   33TCM    cl2  330   4.488   2.628   1.697
   33TCM     h1  331   4.347   2.821   1.721
   33TCM    cl3  332   4.202   2.635   1.763
   34TCM     c1  333   0.978   0.737   3.513
   34TCM    cl1  334   0.845   0.641   3.441
   34TCM    cl2  335   0.910   0.886   3.586
   34TCM     h1  336   1.029   0.678   3.590
   34TCM    cl3  337   1.096   0.781   3.384
   35TCM     c1  338   2.567   3.557   3.301
   35TCM    cl1  339   2.674   3.637   3.182
   35TCM    cl2  340   2.635   3.396   3.343
   35TCM     h1  341   2.561   3.618   3.392
   35TCM    cl3  342   2.404   3.536   3.231
   36TCM     c1  343   0.137   0.879   2.350
   36TCM    cl1  344   0.217   0.791   2.215
   36TCM    cl2  345   0.139   1.054   2.314
   36TCM     h1  346   0.034   0.844   2.361
   36TCM    cl3  347   0.228   0.849   2.501
   37TCM     c1  348   4.672   1.971   1.932
   37TCM    cl1  349   4.553   2.058   1.830
   37TCM    cl2  350   4.771   1.863   1.828
   37TCM     h1  351   4.737   2.042   1.983
   37TCM    cl3  352   4.585   1.873   2.054
   38TCM     c1  353   1.390   3.559   2.066
   38TCM    cl1  354   1.418   3.483   2.227
   38TCM    cl2  355   1.360   3.734   2.088
   38TCM     h1  356   1.477   3.544   2.003
   38TCM    cl3  357   1.247   3.483   1.990
   39TCM     c1  358   3.574   1.252   1.997
   39TCM    cl1  359   3.455   1.142   1.921
   39TCM    cl2  360   3.501   1.416   2.014
   39TCM     h1  361   3.602   1.214   2.096
   39TCM    cl3  362   3.719   1.263   1.893
   40TCM     c1  363   0.722   2.008   1.883
   40TCM    cl1  364   0.563   2.026   1.802
   40TCM    cl2  365   0.744   2.141   2.001
   40TCM     h1  366   0.725   1.912   1.935
   40TCM    cl3  367   0.853   2.015   1.762
   41TCM     c1  368   2.174   3.708   1.744
   41TCM    cl1  369   2.054   3.785   1.853
   41TCM    cl2  370   2.119   3.720   1.574
   41TCM     h1  371   2.271   3.759   1.755
   41TCM    cl3  372   2.192   3.535   1.787
   42TCM     c1  373   0.784   4.206   1.106
   42TCM    cl1  374   0.850   4.049   1.161
   42TCM    cl2  375   0.914   4.298   1.022
   42TCM     h1  376   0.701   4.190   1.037
   42TCM    cl3  377   0.727   4.300   1.248
   43TCM     c1  378   0.027   1.057   4.692
   43TCM    cl1  379   4.854   1.009   4.695
   43TCM    cl2  380   0.126   0.928   4.769
   43TCM     h1  381   0.060   1.072   4.589
   43TCM    cl3  382   0.048   1.210   4.784
   44TCM     c1  383   1.240   3.594   4.634
   44TCM    cl1  384   1.095   3.670   4.708
   44TCM    cl2  385   1.385   3.691   4.674
   44TCM     h1  386   1.251   3.492   4.671
   44TCM    cl3  387   1.220   3.591   4.456
   45TCM     c1  388   0.214   0.491   4.702
   45TCM    cl1  389   0.386   0.439   4.712
   45TCM    cl2  390   0.109   0.345   4.691
   45TCM     h1  391   0.188   0.547   4.792
   45TCM    cl3  392   0.190   0.594   4.558
   46TCM     c1  393   0.858   4.297   1.889
   46TCM    cl1  394   0.989   4.328   2.009
   46TCM    cl2  395   0.868   4.127   1.833
   46TCM     h1  396   0.761   4.315   1.936
   46TCM    cl3  397   0.878   4.408   1.750
   47TCM     c1  398   3.410   3.807   0.139
   47TCM    cl1  399   3.448   3.742   0.302
   47TCM    cl2  400   3.475   3.973   0.124
   47TCM     h1  401   3.455   3.743   0.062
   47TCM    cl3  402   3.232   3.811   0.118
   48TCM     c1  403   1.376   1.324   1.356
   48TCM    cl1  404   1.531   1.268   1.427
   48TCM    cl2  405   1.298   1.440   1.470
   48TCM     h1  406   1.395   1.374   1.261
   48TCM    cl3  407   1.268   1.184   1.332
   49TCM     c1  408   3.260   0.337   2.237
   49TCM    cl1  409   3.372   0.449   2.322
   49TCM    cl2  410   3.353   0.234   2.122
   49TCM     h1  411   3.210   0.274   2.311
   49TCM    cl3  412   3.138   0.432   2.147
   50TCM     c1  413   4.949   0.452   2.045
   50TCM    cl1  414   4.922   0.287   1.979
   50TCM    cl2  415   0.090   0.449   2.156
   50TCM     h1  416   4.968   0.521   1.963
   50TCM    cl3  417   4.803   0.503   2.135
   51TCM     c1  418   3.747   2.460   0.574
   51TCM    cl1  419   3.784   2.313   0.670
   51TCM    cl2  420   3.714   2.596   0.686
   51TCM     h1  421   3.833   2.485   0.510
   51TCM    cl3  422   3.603   2.432   0.471
   52TCM     c1  423   4.831   1.422   3.129
   52TCM    cl1  424   4.722   1.326   3.235
   52TCM    cl2  425   4.754   1.445   2.969
   52TCM     h1  426   4.851   1.519   3.175
   52TCM    cl3  427   4.985   1.332   3.109
   53TCM     c1  428   1.818   3.461   2.124
   53TCM    cl1  429   1.722   3.322   2.063
   53TCM    cl2  430   1.749   3.613   2.059
   53TCM     h1  431   1.815   3.462   2.233
   53TCM    cl3  432   1.988   3.444   2.068
   54TCM     c1  433   0.330   4.977   4.560
   54TCM    cl1  434   0.215   4.874   4.469
   54TCM    cl2  435   0.276   4.992   4.730
   54TCM     h1  436   0.430   4.932   4.556
   54TCM    cl3  437   0.335   0.140   4.485
   55TCM     c1  438   4.319   0.265   4.338
   55TCM    cl1  439   4.158   0.243   4.415
   55TCM    cl2  440   4.301   0.244   4.160
   55TCM     h1  441   4.356   0.366   4.359
   55TCM    cl3  442   4.434   0.143   4.401
   56TCM     c1  443   3.690   4.628   1.475
   56TCM    cl1  444   3.666   4.510   1.609
   56TCM    cl2  445   3.665   4.546   1.317
   56TCM     h1  446   3.619   4.710   1.486
   56TCM    cl3  447   3.858   4.692   1.483
   57TCM     c1  448   4.239   4.222   4.654
   57TCM    cl1  449   4.360   4.115   4.577
   57TCM    cl2  450   4.204   4.164   4.820
   57TCM     h1  451   4.277   4.324   4.658
   57TCM    cl3  452   4.087   4.219   4.559
   58TCM     c1  453   3.734   4.092   1.338
   58TCM    cl1  454   3.622   4.172   1.453
   58TCM    cl2  455   3.746   4.189   1.187
   58TCM     h1  456   3.833   4.083   1.383
   58TCM    cl3  457   3.670   3.929   1.298
   59TCM     c1  458   3.525   3.817   3.216
   59TCM    cl1  459   3.366   3.801   3.299
   59TCM    cl2  460   3.633   3.683   3.267
   59TCM     h1  461   3.510   3.813   3.108
   59TCM    cl3  462   3.601   3.973   3.261
   60TCM     c1  463   0.053   0.663   3.224
   60TCM    cl1  464   4.884   0.693   3.170
   60TCM    cl2  465   0.153   0.621   3.082
   60TCM     h1  466   0.092   0.753   3.272
   60TCM    cl3  467   0.055   0.527   3.341
   61TCM     c1  468   2.452   2.477   2.883
   61TCM    cl1  469   2.481   2.513   2.709
   61TCM    cl2  470   2.470   2.628   2.978
   61TCM     h1  471   2.351   2.437   2.895
   61TCM    cl3  472   2.572   2.356   2.940
   62TCM     c1  473   3.836   2.469   2.040
   62TCM    cl1  474   3.941   2.401   1.911
   62TCM    cl2  475   3.938   2.555   2.159
   62TCM     h1  476   3.765   2.540   1.995
   62TCM    cl3  477   3.746   2.337   2.120
   63TCM     c1  478   4.894   0.398   2.466
   63TCM    cl1  479   4.956   0.566   2.471
   63TCM    cl2  480   4.720   0.396   2.510
   63TCM     h1  481   4.906   0.357   2.366
   63TCM    cl3  482   4.985   0.297   2.584
   64TCM     c1  483   0.342   0.104   2.960
   64TCM    cl1  484   0.394   4.951   2.882
   64TCM    cl2  485   0.226   0.189   2.852
   64TCM     h1  486   0.293   0.082   3.055
   64TCM    cl3  487   0.485   0.209   2.987
   65TCM     c1  488   4.964   3.453   1.056
   65TCM    cl1  489   4.883   3.425   1.213
   65TCM    cl2  490   4.898   3.601   0.979
   65TCM     h1  491   0.071   3.465   1.071
   65TCM    cl3  492   4.935   3.311   0.949
   66TCM     c1  493   1.358   3.245   0.733
   66TCM    cl1  494   1.437   3.263   0.573
   66TCM    cl2  495   1.181   3.227   0.712
   66TCM     h1  496   1.398   3.156   0.783
   66TCM    cl3  497   1.392   3.390   0.833
   67TCM     c1  498   2.713   4.078   3.856
   67TCM    cl1  499   2.548   4.027   3.806
   67TCM    cl2  500   2.742   4.022   4.024
   67TCM     h1  501   2.787   4.033   3.789
   67TCM    cl3  502   2.724   4.256   3.849
   68TCM     c1  503   4.491   1.493   0.015
   68TCM    cl1  504   4.352   1.540   4.911
   68TCM    cl2  505   4.602   1.387   4.923
   68TCM     h1  506   4.544   1.583   0.047
   68TCM    cl3  507   4.431   1.405   0.159
   69TCM     c1  508   2.708   4.479   4.190
   69TCM    cl1  509   2.672   4.562   4.344
   69TCM    cl2  510   2.555   4.451   4.102
   69TCM     h1  511   2.776   4.540   4.130
   69TCM    cl3  512   2.786   4.321   4.227
   70TCM     c1  513   3.476   4.155   1.873
   70TCM    cl1  514   3.408   4.281   1.981
   70TCM    cl2  515   3.640   4.206   1.820
   70TCM     h1  516   3.483   4.060   1.927
   70TCM    cl3  517   3.369   4.136   1.731
   71TCM     c1  518   0.902   0.178   3.185
   71TCM    cl1  519   0.837   0.072   3.055
   71TCM    cl2  520   0.775   0.296   3.234
   71TCM     h1  521   0.930   0.117   3.271
   71TCM    cl3  522   1.045   0.268   3.124
   72TCM     c1  523   0.707   1.315   2.701
   72TCM    cl1  524   0.597   1.418   2.603
   72TCM    cl2  525   0.670   1.336   2.875
   72TCM     h1  526   0.693   1.210   2.673
   72TCM    cl3  527   0.877   1.363   2.670
   73TCM     c1  528   1.037   0.430   2.341
   73TCM    cl1  529   1.042   0.267   2.418
   73TCM    cl2  530   0.971   0.413   2.175
   73TCM     h1  531   0.973   0.497   2.399
   73TCM    cl3  532   1.203   0.496   2.334
   74TCM     c1  533   2.617   0.948   3.532
   74TCM    cl1  534   2.564   1.090   3.437
   74TCM    cl2  535   2.575   0.974   3.704
   74TCM     h1  536   2.567   0.858   3.495
   74TCM    cl3  537   2.795   0.927   3.519
   75TCM     c1  538   4.462   4.684   0.905
   75TCM    cl1  539   4.313   4.782   0.896
   75TCM    cl2  540   4.554   4.730   1.053
   75TCM     h1  541   4.436   4.578   0.910
   75TCM    cl3  542   4.564   4.713   0.760
   76TCM     c1  543   0.388   4.164   0.169
   76TCM    cl1  544   0.308   4.317   0.220
   76TCM    cl2  545   0.263   4.043   0.126
   76TCM     h1  546   0.452   4.184   0.083
   76TCM    cl3  547   0.487   4.101   0.306
   77TCM     c1  548   2.235   3.193   1.931
   77TCM    cl1  549   2.406   3.241   1.908
   77TCM    cl2  550   2.206   3.152   2.103
   77TCM     h1  551   2.169   3.275   1.901
   77TCM    cl3  552   2.201   3.048   1.831
   78TCM     c1  553   0.287   2.977   0.924
   78TCM    cl1  554   0.109   2.992   0.900
   78TCM    cl2  555   0.364   3.137   0.898
   78TCM     h1  556   0.307   2.942   1.026
   78TCM    cl3  557   0.353   2.860   0.806
   79TCM     c1  558   3.063   3.440   0.946
   79TCM    cl1  559   3.127   3.433   0.779
   79TCM    cl2  560   3.197   3.458   1.064
   79TCM     h1  561   2.995   3.525   0.955
   79TCM    cl3  562   2.974   3.288   0.982
   80TCM     c1  563   3.034   2.877   4.827
   80TCM    cl1  564   2.990   3.047   4.865
   80TCM    cl2  565   3.002   2.773   4.970
   80TCM     h1  566   2.974   2.842   4.743
   80TCM    cl3  567   3.208   2.868   4.786
   81TCM     c1  568   0.875   1.009   1.839
   81TCM    cl1  569   0.908   1.181   1.879
   81TCM    cl2  570   1.009   0.946   1.737
   81TCM     h1  571   0.868   0.951   1.931
   81TCM    cl3  572   0.721   0.998   1.749
   82TCM     c1  573   1.584   2.370   4.852
   82TCM    cl1  574   1.557   2.360   4.675
   82TCM    cl2  575   1.743   2.296   4.893
   82TCM     h1  576   1.584   2.475   4.883
   82TCM    cl3  577   1.454   2.282   4.938
   83TCM     c1  578   1.866   3.856   4.027
   83TCM    cl1  579   1.730   3.744   3.991
   83TCM    cl2  580   1.825   3.956   4.170
   83TCM     h1  581   1.956   3.798   4.047
   83TCM    cl3  582   1.893   3.963   3.886
   84TCM     c1  583   0.520   0.168   4.915
   84TCM    cl1  584   0.614   0.106   4.775
   84TCM    cl2  585   0.617   0.291   0.001
   84TCM     h1  586   0.427   0.213   4.879
   84TCM    cl3  587   0.483   0.032   0.026
   85TCM     c1  588   0.821   0.381   2.770
   85TCM    cl1  589   0.823   0.482   2.622
   85TCM    cl2  590   0.832   0.486   2.914
   85TCM     h1  591   0.727   0.324   2.774
   85TCM    cl3  592   0.960   0.268   2.767
   86TCM     c1  593   4.367   3.068   3.199
   86TCM    cl1  594   4.476   3.182   3.114
   86TCM    cl2  595   4.447   3.011   3.350
   86TCM     h1  596   4.273   3.117   3.224
   86TCM    cl3  597   4.336   2.926   3.093
   87TCM     c1  598   2.959   4.593   0.038
   87TCM    cl1  599   3.108   4.655   0.119
   87TCM    cl2  600   2.828   4.580   0.159
   87TCM     h1  601   2.929   4.662   4.959
   87TCM    cl3  602   2.993   4.432   4.968
   88TCM     c1  603   1.725   4.874   3.364
   88TCM    cl1  604   1.554   4.882   3.312
   88TCM    cl2  605   1.740   4.942   3.530
   88TCM     h1  606   1.760   4.771   3.364
   88TCM    cl3  607   1.825   4.971   3.252
   89TCM     c1  608   0.685   0.733   3.880
   89TCM    cl1  609   0.588   0.667   4.016
   89TCM    cl2  610   0.575   0.803   3.757
   89TCM     h1  611   0.753   0.810   3.918
   89TCM    cl3  612   0.780   0.600   3.805
   90TCM     c1  613   1.931   4.982   2.334
   90TCM    cl1  614   1.766   4.914   2.317
   90TCM    cl2  615   1.922   0.144   2.409
   90TCM     h1  616   1.992   4.916   2.396
   90TCM    cl3  617   2.006   4.997   2.171
   91TCM     c1  618   0.922   1.197   2.241
   91TCM    cl1  619   0.901   1.021   2.215
   91TCM    cl2  620   1.062   1.225   2.349
   91TCM     h1  621   0.940   1.246   2.145
   91TCM    cl3  622   0.773   1.265   2.315
   92TCM     c1  623   1.201   1.534   0.043
   92TCM    cl1  624   1.126   1.532   0.206
   92TCM    cl2  625   1.086   1.463   4.924
   92TCM     h1  626   1.225   1.636   0.014
   92TCM    cl3  627   1.351   1.436   0.046
   93TCM     c1  628   4.103   2.908   2.360
   93TCM    cl1  629   4.190   2.799   2.247
   93TCM    cl2  630   3.983   3.005   2.269
   93TCM     h1  631   4.051   2.848   2.436
   93TCM    cl3  632   4.219   3.019   2.439
   94TCM     c1  633   2.740   4.513   1.341
   94TCM    cl1  634   2.723   4.335   1.347
   94TCM    cl2  635   2.913   4.558   1.324
   94TCM     h1  636   2.684   4.552   1.255
   94TCM    cl3  637   2.676   4.585   1.492
   95TCM     c1  638   4.173   2.499   3.021
   95TCM    cl1  639   4.348   2.537   3.016
   95TCM    cl2  640   4.079   2.652   3.017
   95TCM     h1  641   4.146   2.437   2.935
   95TCM    cl3  642   4.136   2.410   3.172
   96TCM     c1  643   4.111   0.604   3.527
   96TCM    cl1  644   4.033   0.731   3.627
   96TCM    cl2  645   4.038   0.445   3.567
   96TCM     h1  646   4.096   0.625   3.421
   96TCM    cl3  647   4.286   0.599   3.563
   97TCM     c1  648   3.996   0.852   3.120
   97TCM    cl1  649   4.170   0.811   3.109
   97TCM    cl2  650   3.936   0.810   3.284
   97TCM     h1  651   3.982   0.959   3.102
   97TCM    cl3  652   3.904   0.757   2.999
   98TCM     c1  653   2.027   0.284   2.996
   98TCM    cl1  654   1.937   0.350   3.138
   98TCM    cl2  655   2.005   0.106   2.988
   98TCM     h1  656   1.990   0.330   2.904
   98TCM    cl3  657   2.201   0.321   3.016
   99TCM     c1  658   0.095   4.193   3.466
   99TCM    cl1  659   0.013   4.351   3.441
   99TCM    cl2  660   0.009   4.099   3.592
   99TCM     h1  661   0.096   4.137   3.372
   99TCM    cl3  662   0.264   4.223   3.520
  100TCM     c1  663   0.224   1.649   4.779
  100TCM    cl1  664   0.060   1.642   4.707
  100TCM    cl2  665   0.347   1.632   4.650
  100TCM     h1  666   0.238   1.746   4.829
  100TCM    cl3  667   0.243   1.517   4.898
  101TCM     c1  668   0.895   0.031   0.009
  101TCM    cl1  669   1.023   0.010   0.134
  101TCM    cl2  670   0.811   4.874   4.985
  101TCM     h1  671   0.824   0.107   0.042
  101TCM    cl3  672   0.971   0.083   4.855
  102TCM     c1  673   0.334   1.871   1.130
  102TCM    cl1  674   0.241   1.967   1.249
  102TCM    cl2  675   0.239   1.727   1.080
  102TCM     h1  676   0.356   1.932   1.042
  102TCM    cl3  677   0.489   1.817   1.203
  103TCM     c1  678   4.546   1.447   2.167
  103TCM    cl1  679   4.523   1.440   2.345
  103TCM    cl2  680   4.699   1.532   2.130
  103TCM     h1  681   4.550   1.345   2.127
  103TCM    cl3  682   4.408   1.535   2.092
  104TCM     c1  683   2.751   0.983   2.499
  104TCM    cl1  684   2.626   0.938   2.379
  104TCM    cl2  685   2.879   0.857   2.503
  104TCM     h1  686   2.795   1.079   2.471
  104TCM    cl3  687   2.677   0.996   2.661
  105TCM     c1  688   2.923   0.132   2.583
  105TCM    cl1  689   3.027   0.270   2.533
  105TCM    cl2  690   2.923   0.119   2.762
  105TCM     h1  691   2.821   0.148   2.548
  105TCM    cl3  692   2.988   4.981   2.510
  106TCM     c1  693   2.255   4.494   1.067
  106TCM    cl1  694   2.142   4.476   1.206
  106TCM    cl2  695   2.196   4.395   0.930
  106TCM     h1  696   2.259   4.599   1.037
  106TCM    cl3  697   2.419   4.439   1.115
  107TCM     c1  698   0.203   3.371   3.999
  107TCM    cl1  699   0.109   3.219   4.017
  107TCM    cl2  700   0.091   3.510   3.990
  107TCM     h1  701   0.270   3.383   4.085
  107TCM    cl3  702   0.300   3.362   3.849
  108TCM     c1  703   2.402   4.866   1.833
  108TCM    cl1  704   2.465   0.034   1.821
  108TCM    cl2  705   2.538   4.749   1.825
  108TCM     h1  706   2.348   4.854   1.928
  108TCM    cl3  707   2.291   4.835   1.696
  109TCM     c1  708   2.520   4.681   3.379
  109TCM    cl1  709   2.357   4.709   3.448
  109TCM    cl2  710   2.582   4.833   3.308
  109TCM     h1  711   2.588   4.647   3.458
  109TCM    cl3  712   2.510   4.556   3.250
  110TCM     c1  713   3.320   3.319   4.970
  110TCM    cl1  714   3.475   3.266   0.043
  110TCM    cl2  715   3.308   3.256   4.803
  110TCM     h1  716   3.236   3.282   0.029
  110TCM    cl3  717   3.315   3.498   4.966
  111TCM     c1  718   1.689   4.852   4.496
  111TCM    cl1  719   1.699   4.697   4.586
  111TCM    cl2  720   1.554   4.846   4.377
  111TCM     h1  721   1.671   4.934   4.567
  111TCM    cl3  722   1.843   4.882   4.410
  112TCM     c1  723   3.160   3.635   1.832
  112TCM    cl1  724   3.093   3.791   1.774
  112TCM    cl2  725   3.326   3.614   1.770
  112TCM     h1  726   3.161   3.635   1.941
  112TCM    cl3  727   3.058   3.500   1.773
  113TCM     c1  728   0.019   2.515   2.110
  113TCM    cl1  729   0.019   2.339   2.147
  113TCM    cl2  730   0.073   2.541   1.941
  113TCM     h1  731   4.918   2.555   2.123
  113TCM    cl3  732   0.131   2.599   2.221
  114TCM     c1  733   1.570   0.719   3.340
  114TCM    cl1  734   1.714   0.640   3.265
  114TCM    cl2  735   1.624   0.818   3.480
  114TCM     h1  736   1.520   0.782   3.267
  114TCM    cl3  737   1.457   0.593   3.398
  115TCM     c1  738   1.503   4.545   3.556
  115TCM    cl1  739   1.651   4.523   3.457
  115TCM    cl2  740   1.367   4.598   3.450
  115TCM     h1  741   1.477   4.451   3.605
  115TCM    cl3  742   1.534   4.672   3.680
  116TCM     c1  743   1.110   2.786   3.660
  116TCM    cl1  744   0.997   2.787   3.520
  116TCM    cl2  745   1.106   2.625   3.739
  116TCM     h1  746   1.211   2.806   3.625
  116TCM    cl3  747   1.061   2.911   3.778
  117TCM     c1  748   4.702   2.148   2.411
  117TCM    cl1  749   4.583   2.262   2.480
  117TCM    cl2  750   4.717   2.178   2.234
  117TCM     h1  751   4.799   2.163   2.459
  117TCM    cl3  752   4.646   1.980   2.439
  118TCM     c1  753   1.825   0.658   1.622
  118TCM    cl1  754   1.805   0.825   1.559
  118TCM    cl2  755   1.664   0.589   1.657
  118TCM     h1  756   1.876   0.597   1.547
  118TCM    cl3  757   1.922   0.663   1.773
  119TCM     c1  758   1.253   4.944   3.536
  119TCM    cl1  759   1.391   0.038   3.599
  119TCM    cl2  760   1.127   0.056   3.474
  119TCM     h1  761   1.286   4.878   3.455
  119TCM    cl3  762   1.183   4.845   3.669
  120TCM     c1  763   3.943   3.539   2.834
  120TCM    cl1  764   3.846   3.585   2.978
  120TCM    cl2  765   4.004   3.686   2.753
  120TCM     h1  766   4.027   3.476   2.866
  120TCM    cl3  767   3.839   3.447   2.721
  121TCM     c1  768   4.486   1.056   3.698
  121TCM    cl1  769   4.427   0.890   3.731
  121TCM    cl2  770   4.662   1.052   3.666
  121TCM     h1  771   4.433   1.097   3.611
  121TCM    cl3  772   4.455   1.160   3.841
  122TCM     c1  773   3.401   1.327   2.893
  122TCM    cl1  774   3.302   1.182   2.931
  122TCM    cl2  775   3.574   1.279   2.881
  122TCM     h1  776   3.369   1.369   2.798
  122TCM    cl3  777   3.380   1.448   3.024
  123TCM     c1  778   4.641   4.032   3.396
  123TCM    cl1  779   4.792   4.065   3.305
  123TCM    cl2  780   4.677   3.935   3.543
  123TCM     h1  781   4.596   4.127   3.426
  123TCM    cl3  782   4.528   3.942   3.290
  124TCM     c1  783   0.261   1.634   0.259
  124TCM    cl1  784   0.187   1.558   0.403
  124TCM    cl2  785   0.417   1.554   0.224
  124TCM     h1  786   0.194   1.625   0.173
  124TCM    cl3  787   0.290   1.808   0.294
  125TCM     c1  788   3.479   1.471   3.641
  125TCM    cl1  789   3.431   1.404   3.801
  125TCM    cl2  790   3.346   1.447   3.524
  125TCM     h1  791   3.500   1.578   3.651
  125TCM    cl3  792   3.626   1.386   3.583
  126TCM     c1  793   1.157   2.218   2.766
  126TCM    cl1  794   1.164   2.062   2.854
  126TCM    cl2  795   1.156   2.353   2.885
  126TCM     h1  796   1.244   2.227   2.701
  126TCM    cl3  797   1.007   2.225   2.668
  127TCM     c1  798   0.049   2.608   0.183
  127TCM    cl1  799   0.152   2.502   0.284
  127TCM    cl2  800   4.960   2.507   0.064
  127TCM     h1  801   4.977   2.661   0.246
  127TCM    cl3  802   0.152   2.727   0.096
  128TCM     c1  803   0.623   4.585   4.814
  128TCM    cl1  804   0.660   4.492   4.665
  128TCM    cl2  805   0.572   4.472   4.944
  128TCM     h1  806   0.712   4.640   4.845
  128TCM    cl3  807   0.490   4.701   4.780
  129TCM     c1  808   4.493   4.323   0.001
  129TCM    cl1  809   4.539   4.331   4.828
  129TCM    cl2  810   4.539   4.477   0.081
  129TCM     h1  811   4.386   4.308   0.009
  129TCM    cl3  812   4.579   4.187   0.080
  130TCM     c1  813   0.565   1.258   0.419
  130TCM    cl1  814   0.386   1.249   0.422
  130TCM    cl2  815   0.631   1.095   0.386
  130TCM     h1  816   0.597   1.328   0.341
  130TCM    cl3  817   0.622   1.316   0.579
  131TCM     c1  818   2.161   0.131   3.353
  131TCM    cl1  819   2.144   0.277   3.455
  131TCM    cl2  820   2.114   4.987   3.450
  131TCM     h1  821   2.095   0.139   3.266
  131TCM    cl3  822   2.331   0.113   3.299
  132TCM     c1  823   0.419   1.297   3.162
  132TCM    cl1  824   0.487   1.432   3.258
  132TCM    cl2  825   0.340   1.360   3.014
  132TCM     h1  826   0.500   1.228   3.133
  132TCM    cl3  827   0.299   1.210   3.262
  133TCM     c1  828   0.043   4.226   4.879
  133TCM    cl1  829   0.203   4.307   4.877
  133TCM    cl2  830   0.036   4.108   4.743
  133TCM     h1  831   0.029   4.174   4.974
  133TCM    cl3  832   4.913   4.347   4.857
  134TCM     c1  833   4.177   1.082   2.129
  134TCM    cl1  834   4.306   1.174   2.042
  134TCM    cl2  835   4.192   0.908   2.091
  134TCM     h1  836   4.189   1.097   2.237
  134TCM    cl3  837   4.016   1.141   2.077
  135TCM     c1  838   1.140   0.655   1.907
  135TCM    cl1  839   1.273   0.570   1.991
  135TCM    cl2  840   1.028   0.728   2.027
  135TCM     h1  841   1.181   0.733   1.843
  135TCM    cl3  842   1.050   0.537   1.806
  136TCM     c1  843   4.624   0.012   3.261
  136TCM    cl1  844   4.734   0.038   3.400
  136TCM    cl2  845   4.487   4.908   3.311
  136TCM     h1  846   4.586   0.108   3.225
  136TCM    cl3  847   4.716   4.930   3.130
  137TCM     c1  848   1.911   1.459   3.279
  137TCM    cl1  849   1.739   1.413   3.252
  137TCM    cl2  850   2.004   1.424   3.131
  137TCM     h1  851   1.917   1.565   3.303
  137TCM    cl3  852   1.978   1.363   3.415
  138TCM     c1  853   2.408   3.429   3.641
  138TCM    cl1  854   2.259   3.339   3.684
  138TCM    cl2  855   2.534   3.402   3.765
  138TCM     h1  856   2.445   3.394   3.544
  138TCM    cl3  857   2.373   3.605   3.631
  139TCM     c1  858   0.493   1.234   3.593
  139TCM    cl1  859   0.604   1.349   3.674
  139TCM    cl2  860   0.406   1.137   3.717
  139TCM     h1  861   0.421   1.289   3.532
  139TCM    cl3  862   0.589   1.123   3.489
  140TCM     c1  863   0.527   4.416   1.620
  140TCM    cl1  864   0.431   4.360   1.480
  140TCM    cl2  865   0.523   4.290   1.749
  140TCM     h1  866   0.631   4.433   1.589
  140TCM    cl3  867   0.457   4.568   1.684
  141TCM     c1  868   3.615   4.141   2.305
  141TCM    cl1  869   3.628   4.025   2.169
  141TCM    cl2  870   3.445   4.144   2.361
  141TCM     h1  871   3.681   4.111   2.387
  141TCM    cl3  872   3.661   4.305   2.248
  142TCM     c1  873   0.465   2.111   3.360
  142TCM    cl1  874   0.546   1.991   3.253
  142TCM    cl2  875   0.395   2.026   3.502
  142TCM     h1  876   0.538   2.185   3.394
  142TCM    cl3  877   0.334   2.193   3.269
  143TCM     c1  878   1.401   3.714   1.611
  143TCM    cl1  879   1.499   3.632   1.485
  143TCM    cl2  880   1.498   3.728   1.761
  143TCM     h1  881   1.371   3.813   1.576
  143TCM    cl3  882   1.254   3.616   1.644
  144TCM     c1  883   1.370   1.381   2.518
  144TCM    cl1  884   1.431   1.221   2.465
  144TCM    cl2  885   1.427   1.506   2.403
  144TCM     h1  886   1.261   1.380   2.521
  144TCM    cl3  887   1.436   1.416   2.681
  145TCM     c1  888   3.685   4.886   3.900
  145TCM    cl1  889   3.599   4.767   4.004
  145TCM    cl2  890   3.643   4.855   3.728
  145TCM     h1  891   3.655   4.987   3.927
  145TCM    cl3  892   3.862   4.866   3.922
  146TCM     c1  893   4.797   4.393   4.477
  146TCM    cl1  894   4.976   4.387   4.473
  146TCM    cl2  895   4.743   4.535   4.572
  146TCM     h1  896   4.758   4.401   4.375
  146TCM    cl3  897   4.735   4.242   4.552
  147TCM     c1  898   0.599   1.666   0.705
  147TCM    cl1  899   0.545   1.731   0.547
  147TCM    cl2  900   0.529   1.764   0.838
  147TCM     h1  901   0.566   1.562   0.715
  147TCM    cl3  902   0.778   1.673   0.714
  148TCM     c1  903   2.404   2.734   0.273
  148TCM    cl1  904   2.377   2.839   0.131
  148TCM    cl2  905   2.448   2.569   0.217
  148TCM     h1  906   2.484   2.775   0.335
  148TCM    cl3  907   2.253   2.724   0.370
  149TCM     c1  908   3.675   1.172   3.299
  149TCM    cl1  909   3.500   1.197   3.264
  149TCM    cl2  910   3.757   1.116   3.149
  149TCM     h1  911   3.719   1.267   3.332
  149TCM    cl3  912   3.693   1.049   3.427
  150TCM     c1  913   3.333   4.968   1.791
  150TCM    cl1  914   3.170   4.927   1.727
  150TCM    cl2  915   3.445   0.002   1.656
  150TCM     h1  916   3.325   0.056   1.856
  150TCM    cl3  917   3.394   4.829   1.887
  151TCM     c1  918   3.893   2.210   1.273
  151TCM    cl1  919   3.939   2.380   1.309
  151TCM    cl2  920   3.911   2.110   1.421
  151TCM     h1  921   3.789   2.207   1.239
  151TCM    cl3  922   4.001   2.145   1.145
  152TCM     c1  923   2.662   4.090   2.486
  152TCM    cl1  924   2.515   4.119   2.584
  152TCM    cl2  925   2.726   3.926   2.520
  152TCM     h1  926   2.636   4.098   2.380
  152TCM    cl3  927   2.788   4.212   2.526
  153TCM     c1  928   4.166   0.844   2.678
  153TCM    cl1  929   4.042   0.715   2.670
  153TCM    cl2  930   4.313   0.782   2.761
  153TCM     h1  931   4.193   0.876   2.577
  153TCM    cl3  932   4.100   0.984   2.769
  154TCM     c1  933   0.588   1.912   4.883
  154TCM    cl1  934   0.709   1.987   4.992
  154TCM    cl2  935   0.469   1.821   4.981
  154TCM     h1  936   0.537   1.989   4.825
  154TCM    cl3  937   0.670   1.798   4.771
  155TCM     c1  938   2.124   4.453   4.422
  155TCM    cl1  939   2.129   4.602   4.522
  155TCM    cl2  940   2.084   4.312   4.526
  155TCM     h1  941   2.048   4.464   4.344
  155TCM    cl3  942   2.284   4.427   4.346
  156TCM     c1  943   2.145   4.957   4.795
  156TCM    cl1  944   2.219   0.036   4.651
  156TCM    cl2  945   2.266   4.849   4.873
  156TCM     h1  946   2.113   0.034   4.866
  156TCM    cl3  947   2.003   4.860   4.744
  157TCM     c1  948   1.676   1.185   2.905
  157TCM    cl1  949   1.520   1.214   2.989
  157TCM    cl2  950   1.760   1.342   2.879
  157TCM     h1  951   1.739   1.120   2.965
  157TCM    cl3  952   1.644   1.109   2.746
  158TCM     c1  953   1.489   1.914   0.311
  158TCM    cl1  954   1.631   1.837   0.389
  158TCM    cl2  955   1.411   1.796   0.199
  158TCM     h1  956   1.417   1.945   0.387
  158TCM    cl3  957   1.544   2.057   0.217
  159TCM     c1  958   1.628   1.607   1.515
  159TCM    cl1  959   1.598   1.743   1.628
  159TCM    cl2  960   1.803   1.569   1.512
  159TCM     h1  961   1.572   1.519   1.548
  159TCM    cl3  962   1.574   1.653   1.350
  160TCM     c1  963   2.524   2.648   0.714
  160TCM    cl1  964   2.695   2.649   0.768
  160TCM    cl2  965   2.505   2.534   0.576
  160TCM     h1  966   2.459   2.616   0.796
  160TCM    cl3  967   2.479   2.813   0.662
  161TCM     c1  968   2.939   0.970   1.988
  161TCM    cl1  969   3.102   1.029   1.941
  161TCM    cl2  970   2.815   1.075   1.913
  161TCM     h1  971   2.926   0.867   1.954
  161TCM    cl3  972   2.922   0.977   2.166
  162TCM     c1  973   4.309   4.381   2.673
  162TCM    cl1  974   4.149   4.461   2.691
  162TCM    cl2  975   4.372   4.414   2.508
  162TCM     h1  976   4.378   4.420   2.748
  162TCM    cl3  977   4.289   4.204   2.694
  163TCM     c1  978   2.917   0.058   4.535
  163TCM    cl1  979   2.810   4.915   4.522
  163TCM    cl2  980   2.960   0.116   4.371
  163TCM     h1  981   2.866   0.138   4.590
  163TCM    cl3  982   3.068   0.012   4.621
  164TCM     c1  983   3.637   3.716   3.733
  164TCM    cl1  984   3.787   3.648   3.662
  164TCM    cl2  985   3.562   3.828   3.614
  164TCM     h1  986   3.568   3.636   3.756
  164TCM    cl3  987   3.678   3.806   3.882
  165TCM     c1  988   1.784   1.343   2.499
  165TCM    cl1  989   1.936   1.284   2.573
  165TCM    cl2  990   1.774   1.283   2.330
  165TCM     h1  991   1.698   1.305   2.556
  165TCM    cl3  992   1.782   1.522   2.500
  166TCM     c1  993   2.518   0.113   4.941
  166TCM    cl1  994   2.362   0.201   4.942
  166TCM    cl2  995   2.636   0.200   0.044
  166TCM     h1  996   2.503   0.012   4.980
  166TCM    cl3  997   2.582   0.104   4.773
  167TCM     c1  998   2.152   2.735   2.005
  167TCM    cl1  999   2.331   2.745   1.991
  167TCM    cl2 1000   2.104   2.776   2.174
  167TCM     h1 1001   2.106   2.806   1.936
  167TCM    cl3 1002   2.098   2.568   1.966
  168TCM     c1 1003   0.902   4.705   1.377
  168TCM    cl1 1004   0.883   4.881   1.347
  168TCM    cl2 1005   0.900   4.617   1.220
  168TCM     h1 1006   0.997   4.686   1.428
  168TCM    cl3 1007   0.766   4.646   1.477
  169TCM     c1 1008   3.940   2.409   4.443
  169TCM    cl1 1009   4.038   2.555   4.404
  169TCM    cl2 1010   4.006   2.333   4.592
  169TCM     h1 1011   3.836   2.438   4.459
  169TCM    cl3 1012   3.950   2.293   4.307
  170TCM     c1 1013   1.638   4.525   4.920
  170TCM    cl1 1014   1.495   4.623   4.969
  170TCM    cl2 1015   1.586   4.395   4.808
  170TCM     h1 1016   1.711   4.590   4.870
  170TCM    cl3 1017   1.711   4.452   0.066
  171TCM     c1 1018   3.348   3.338   0.494
  171TCM    cl1 1019   3.284   3.403   0.339
  171TCM    cl2 1020   3.462   3.457   0.565
  171TCM     h1 1021   3.266   3.320   0.563
  171TCM    cl3 1022   3.433   3.183   0.462
  172TCM     c1 1023   4.691   0.961   0.314
  172TCM    cl1 1024   4.575   0.828   0.345
  172TCM    cl2 1025   4.836   0.942   0.418
  172TCM     h1 1026   4.722   0.959   0.209
  172TCM    cl3 1027   4.612   1.119   0.349
  173TCM     c1 1028   3.863   1.555   2.041
  173TCM    cl1 1029   4.024   1.504   1.979
  173TCM    cl2 1030   3.863   1.732   2.068
  173TCM     h1 1031   3.786   1.529   1.968
  173TCM    cl3 1032   3.828   1.470   2.195
  174TCM     c1 1033   3.588   1.704   4.984
  174TCM    cl1 1034   3.657   1.797   4.847
  174TCM    cl2 1035   3.607   1.798   0.136
  174TCM     h1 1036   3.482   1.685   4.966
  174TCM    cl3 1037   3.674   1.547   4.999
  175TCM     c1 1038   4.010   3.063   4.850
  175TCM    cl1 1039   3.985   2.957   4.992
  175TCM    cl2 1040   3.993   3.234   4.900
  175TCM     h1 1041   4.110   3.046   4.808
  175TCM    cl3 1042   3.887   3.025   4.725
  176TCM     c1 1043   1.226   0.357   3.674
  176TCM    cl1 1044   1.169   0.413   3.514
  176TCM    cl2 1045   1.134   0.444   3.802
  176TCM     h1 1046   1.208   0.250   3.684
  176TCM    cl3 1047   1.401   0.391   3.692
  177TCM     c1 1048   3.498   0.046   1.229
  177TCM    cl1 1049   3.624   4.937   1.297
  177TCM    cl2 1050   3.509   0.206   1.309
  177TCM     h1 1051   3.514   0.057   1.122
  177TCM    cl3 1052   3.336   4.974   1.258
  178TCM     c1 1053   1.349   4.991   4.073
  178TCM    cl1 1054   1.222   4.936   4.189
  178TCM    cl2 1055   1.280   0.115   3.963
  178TCM     h1 1056   1.433   0.033   4.129
  178TCM    cl3 1057   1.405   4.851   3.976
  179TCM     c1 1058   2.007   0.849   4.051
  179TCM    cl1 1059   2.051   0.961   4.185
  179TCM    cl2 1060   1.990   0.682   4.116
  179TCM     h1 1061   1.913   0.881   4.006
  179TCM    cl3 1062   2.137   0.851   3.928
  180TCM     c1 1063   3.325   0.291   0.206
  180TCM    cl1 1064   3.277   0.435   0.110
  180TCM    cl2 1065   3.208   0.269   0.340
  180TCM     h1 1066   3.325   0.203   0.142
  180TCM    cl3 1067   3.489   0.316   0.274
  181TCM     c1 1068   1.473   1.931   2.554
  181TCM    cl1 1069   1.483   2.080   2.653
  181TCM    cl2 1070   1.314   1.928   2.471
  181TCM     h1 1071   1.553   1.931   2.480
  181TCM    cl3 1072   1.487   1.787   2.659
  182TCM     c1 1073   4.593   3.859   4.684
  182TCM    cl1 1074   4.696   3.951   4.798
  182TCM    cl2 1075   4.608   3.683   4.717
  182TCM     h1 1076   4.489   3.890   4.695
  182TCM    cl3 1077   4.647   3.891   4.515
  183TCM     c1 1078   0.455   0.828   2.780
  183TCM    cl1 1079   0.489   1.004   2.774
  183TCM    cl2 1080   0.509   0.761   2.938
  183TCM     h1 1081   0.347   0.811   2.768
  183TCM    cl3 1082   0.544   0.745   2.649
  184TCM     c1 1083   4.684   0.717   3.524
  184TCM    cl1 1084   4.679   0.543   3.477
  184TCM    cl2 1085   4.587   0.812   3.407
  184TCM     h1 1086   4.643   0.729   3.624
  184TCM    cl3 1087   4.854   0.775   3.521
  185TCM     c1 1088   4.837   4.553   0.321
  185TCM    cl1 1089   4.800   4.695   0.217
  185TCM    cl2 1090   4.876   4.411   0.218
  185TCM     h1 1091   4.922   4.576   0.385
  185TCM    cl3 1092   4.694   4.515   0.422
  186TCM     c1 1093   0.462   3.048   0.175
  186TCM    cl1 1094   0.567   3.193   0.186
  186TCM    cl2 1095   0.470   2.982   0.008
  186TCM     h1 1096   0.496   2.972   0.246
  186TCM    cl3 1097   0.292   3.093   0.211
  187TCM     c1 1098   1.034   2.477   4.648
  187TCM    cl1 1099   0.887   2.457   4.749
  187TCM    cl2 1100   1.029   2.360   4.512
  187TCM     h1 1101   1.038   2.578   4.608
  187TCM    cl3 1102   1.180   2.446   4.747
  188TCM     c1 1103   1.654   4.040   4.902
  188TCM    cl1 1104   1.621   4.104   0.067
  188TCM    cl2 1105   1.500   4.029   4.811
  188TCM     h1 1106   1.723   4.107   4.850
  188TCM    cl3 1107   1.727   3.878   4.917
  189TCM     c1 1108   0.595   3.216   0.611
  189TCM    cl1 1109   0.753   3.132   0.603
  189TCM    cl2 1110   0.469   3.109   0.539
  189TCM     h1 1111   0.570   3.238   0.715
  189TCM    cl3 1112   0.603   3.369   0.517
  190TCM     c1 1113   4.156   1.314   2.486
  190TCM    cl1 1114   3.987   1.267   2.524
  190TCM    cl2 1115   4.161   1.388   2.323
  190TCM     h1 1116   4.191   1.387   2.561
  190TCM    cl3 1117   4.261   1.169   2.489
  191TCM     c1 1118   2.048   0.392   4.342
  191TCM    cl1 1119   1.985   0.496   4.474
  191TCM    cl2 1120   2.029   0.219   4.388
  191TCM     h1 1121   1.991   0.411   4.250
  191TCM    cl3 1122   2.222   0.426   4.314
  192TCM     c1 1123   0.251   4.906   2.541
  192TCM    cl1 1124   0.256   4.826   2.381
  192TCM    cl2 1125   0.080   4.925   2.594
  192TCM     h1 1126   0.305   4.845   2.614
  192TCM    cl3 1127   0.327   0.067   2.529
  193TCM     c1 1128   1.851   4.611   4.116
  193TCM    cl1 1129   1.787   4.537   4.267
  193TCM    cl2 1130   2.016   4.676   4.147
  193TCM     h1 1131   1.856   4.535   4.038
  193TCM    cl3 1132   1.743   4.744   4.063
  194TCM     c1 1133   4.010   4.557   1.178
  194TCM    cl1 1134   4.142   4.670   1.223
  194TCM    cl2 1135   4.023   4.409   1.278
  194TCM     h1 1136   3.913   4.605   1.196
  194TCM    cl3 1137   4.025   4.513   1.005
  195TCM     c1 1138   0.788   2.399   0.409
  195TCM    cl1 1139   0.748   2.350   0.577
  195TCM    cl2 1140   0.890   2.272   0.333
  195TCM     h1 1141   0.697   2.412   0.351
  195TCM    cl3 1142   0.879   2.554   0.414
  196TCM     c1 1143   1.145   0.965   3.971
  196TCM    cl1 1144   1.080   1.063   4.107
  196TCM    cl2 1145   1.146   1.065   3.822
  196TCM     h1 1146   1.247   0.932   3.994
  196TCM    cl3 1147   1.040   0.822   3.946
  197TCM     c1 1148   1.418   1.275   0.557
  197TCM    cl1 1149   1.289   1.299   0.680
  197TCM    cl2 1150   1.347   1.284   0.392
  197TCM     h1 1151   1.494   1.352   0.568
  197TCM    cl3 1152   1.493   1.113   0.580
  198TCM     c1 1153   1.076   4.276   1.373
  198TCM    cl1 1154   1.229   4.200   1.317
  198TCM    cl2 1155   1.113   4.428   1.460
  198TCM     h1 1156   1.013   4.298   1.286
  198TCM    cl3 1157   0.991   4.163   1.483
  199TCM     c1 1158   4.729   2.627   2.382
  199TCM    cl1 1159   4.623   2.559   2.255
  199TCM    cl2 1160   4.818   2.768   2.316
  199TCM     h1 1161   4.669   2.658   2.468
  199TCM    cl3 1162   4.847   2.502   2.433
  200TCM     c1 1163   0.432   2.139   0.325
  200TCM    cl1 1164   0.592   2.062   0.346
  200TCM    cl2 1165   0.386   2.130   0.152
  200TCM     h1 1166   0.357   2.086   0.386
  200TCM    cl3 1167   0.440   2.311   0.376
  201TCM     c1 1168   3.575   4.363   3.262
  201TCM    cl1 1169   3.411   4.305   3.217
  201TCM    cl2 1170   3.575   4.542   3.268
  201TCM     h1 1171   3.602   4.323   3.360
  201TCM    cl3 1172   3.693   4.307   3.139
  202TCM     c1 1173   1.888   0.926   2.457
  202TCM    cl1 1174   1.960   0.783   2.374
  202TCM    cl2 1175   1.937   0.925   2.629
  202TCM     h1 1176   1.925   1.017   2.409
  202TCM    cl3 1177   1.709   0.920   2.445
  203TCM     c1 1178   0.319   4.351   4.375
  203TCM    cl1 1179   0.458   4.265   4.303
  203TCM    cl2 1180   0.309   4.517   4.308
  203TCM     h1 1181   0.227   4.297   4.352
  203TCM    cl3 1182   0.340   4.360   4.553
  204TCM     c1 1183   1.906   4.672   3.688
  204TCM    cl1 1184   1.888   4.514   3.771
  204TCM    cl2 1185   1.988   4.648   3.530
  204TCM     h1 1186   1.808   4.716   3.672
  204TCM    cl3 1187   2.005   4.783   3.789
  205TCM     c1 1188   0.910   4.879   0.974
  205TCM    cl1 1189   1.089   4.889   0.988
  205TCM    cl2 1190   0.867   4.748   0.858
  205TCM     h1 1191   0.868   4.856   1.072
  205TCM    cl3 1192   0.845   0.035   0.916
  206TCM     c1 1193   2.507   3.125   0.971
  206TCM    cl1 1194   2.634   3.174   0.853
  206TCM    cl2 1195   2.562   2.978   1.058
  206TCM     h1 1196   2.490   3.206   1.042
  206TCM    cl3 1197   2.356   3.088   0.882
  207TCM     c1 1198   0.934   3.500   0.766
  207TCM    cl1 1199   0.818   3.395   0.854
  207TCM    cl2 1200   1.041   3.583   0.884
  207TCM     h1 1201   0.994   3.439   0.698
  207TCM    cl3 1202   0.842   3.622   0.672
  208TCM     c1 1203   3.646   2.016   1.919
  208TCM    cl1 1204   3.749   2.096   1.796
  208TCM    cl2 1205   3.585   1.861   1.854
  208TCM     h1 1206   3.704   1.998   2.010
  208TCM    cl3 1207   3.505   2.122   1.957
  209TCM     c1 1208   2.560   2.331   0.979
  209TCM    cl1 1209   2.607   2.473   1.078
  209TCM    cl2 1210   2.686   2.302   0.854
  209TCM     h1 1211   2.551   2.243   1.043
  209TCM    cl3 1212   2.403   2.363   0.898
  210TCM     c1 1213   2.617   3.206   4.103
  210TCM    cl1 1214   2.468   3.146   4.023
  210TCM    cl2 1215   2.587   3.370   4.170
  210TCM     h1 1216   2.645   3.138   4.184
  210TCM    cl3 1217   2.751   3.214   3.984
  211TCM     c1 1218   0.902   2.712   4.263
  211TCM    cl1 1219   1.046   2.818   4.248
  211TCM    cl2 1220   0.852   2.705   4.435
  211TCM     h1 1221   0.820   2.752   4.202
  211TCM    cl3 1222   0.943   2.547   4.206
  212TCM     c1 1223   1.284   2.631   3.219
  212TCM    cl1 1224   1.338   2.672   3.385
  212TCM    cl2 1225   1.119   2.560   3.225
  212TCM     h1 1226   1.282   2.721   3.157
  212TCM    cl3 1227   1.398   2.512   3.147
  213TCM     c1 1228   3.755   4.503   3.779
  213TCM    cl1 1229   3.673   4.402   3.903
  213TCM    cl2 1230   3.679   4.475   3.619
  213TCM     h1 1231   3.747   4.608   3.806
  213TCM    cl3 1232   3.929   4.457   3.770
  214TCM     c1 1233   0.133   3.251   0.498
  214TCM    cl1 1234   0.102   3.084   0.557
  214TCM    cl2 1235   0.196   3.350   0.634
  214TCM     h1 1236   0.207   3.248   0.418
  214TCM    cl3 1237   4.980   3.323   0.437
  215TCM     c1 1238   1.051   2.049   0.085
  215TCM    cl1 1239   1.186   2.096   0.194
  215TCM    cl2 1240   1.080   1.883   0.023
  215TCM     h1 1241   0.957   2.052   0.141
  215TCM    cl3 1242   1.043   2.164   4.948
  216TCM     c1 1243   0.245   1.620   2.752
  216TCM    cl1 1244   0.246   1.516   2.605
  216TCM    cl2 1245   0.099   1.584   2.849
  216TCM     h1 1246   0.335   1.600   2.811
  216TCM    cl3 1247   0.242   1.792   2.702
  217TCM     c1 1248   3.436   0.117   4.805
  217TCM    cl1 1249   3.533   0.052   4.668
  217TCM    cl2 1250   3.438   0.296   4.803
  217TCM     h1 1251   3.333   0.081   4.797
  217TCM    cl3 1252   3.507   0.060   4.960
  218TCM     c1 1253   1.537   2.507   1.804
  218TCM    cl1 1254   1.490   2.670   1.863
  218TCM    cl2 1255   1.502   2.385   1.931
  218TCM     h1 1256   1.480   2.483   1.714
  218TCM    cl3 1257   1.712   2.507   1.766
  219TCM     c1 1258   3.939   0.279   4.092
  219TCM    cl1 1259   3.930   0.438   4.176
  219TCM    cl2 1260   4.015   0.302   3.931
  219TCM     h1 1261   3.999   0.210   4.151
  219TCM    cl3 1262   3.773   0.214   4.071
  220TCM     c1 1263   0.387   3.500   1.325
  220TCM    cl1 1264   0.332   3.492   1.154
  220TCM    cl2 1265   0.257   3.441   1.433
  220TCM     h1 1266   0.476   3.438   1.338
  220TCM    cl3 1267   0.426   3.670   1.366
  221TCM     c1 1268   0.178   1.343   0.694
  221TCM    cl1 1269   0.298   1.469   0.738
  221TCM    cl2 1270   0.020   1.384   0.770
  221TCM     h1 1271   0.166   1.339   0.586
  221TCM    cl3 1272   0.234   1.184   0.755
  222TCM     c1 1273   3.968   2.422   2.548
  222TCM    cl1 1274   3.806   2.411   2.473
  222TCM    cl2 1275   3.954   2.390   2.724
  222TCM     h1 1276   4.035   2.349   2.502
  222TCM    cl3 1277   4.034   2.588   2.524
  223TCM     c1 1278   0.016   4.719   2.889
  223TCM    cl1 1279   0.038   4.881   2.962
  223TCM    cl2 1280   4.945   4.607   3.010
  223TCM     h1 1281   4.949   4.727   2.803
  223TCM    cl3 1282   0.175   4.656   2.836
  224TCM     c1 1283   4.742   4.417   2.156
  224TCM    cl1 1284   4.774   4.331   2.001
  224TCM    cl2 1285   4.847   4.348   2.284
  224TCM     h1 1286   4.764   4.523   2.144
  224TCM    cl3 1287   4.570   4.395   2.201
  225TCM     c1 1288   0.423   2.302   2.093
  225TCM    cl1 1289   0.367   2.291   2.263
  225TCM    cl2 1290   0.423   2.473   2.040
  225TCM     h1 1291   0.524   2.261   2.085
  225TCM    cl3 1292   0.313   2.207   1.987
  226TCM     c1 1293   0.250   3.702   2.850
  226TCM    cl1 1294   0.319   3.595   2.723
  226TCM    cl2 1295   0.363   3.838   2.880
  226TCM     h1 1296   0.153   3.741   2.817
  226TCM    cl3 1297   0.229   3.608   3.002
  227TCM     c1 1298   2.231   0.455   3.926
  227TCM    cl1 1299   2.091   0.359   3.981
  227TCM    cl2 1300   2.204   0.505   3.756
  227TCM     h1 1301   2.242   0.544   3.989
  227TCM    cl3 1302   2.381   0.357   3.935
  228TCM     c1 1303   1.548   1.872   2.064
  228TCM    cl1 1304   1.587   1.784   2.215
  228TCM    cl2 1305   1.465   2.026   2.106
  228TCM     h1 1306   1.639   1.895   2.008
  228TCM    cl3 1307   1.439   1.772   1.962
  229TCM     c1 1308   0.960   3.232   2.095
  229TCM    cl1 1309   1.047   3.172   1.950
  229TCM    cl2 1310   0.878   3.387   2.055
  229TCM     h1 1311   0.885   3.159   2.126
  229TCM    cl3 1312   1.076   3.258   2.229
  230TCM     c1 1313   4.360   3.529   3.022
  230TCM    cl1 1314   4.478   3.612   3.129
  230TCM    cl2 1315   4.365   3.604   2.859
  230TCM     h1 1316   4.385   3.423   3.015
  230TCM    cl3 1317   4.195   3.549   3.089
  231TCM     c1 1318   3.992   0.749   4.511
  231TCM    cl1 1319   4.106   0.854   4.421
  231TCM    cl2 1320   4.069   0.590   4.544
  231TCM     h1 1321   3.965   0.797   4.606
  231TCM    cl3 1322   3.844   0.724   4.413
  232TCM     c1 1323   0.135   3.170   4.376
  232TCM    cl1 1324   0.072   3.144   4.542
  232TCM    cl2 1325   0.260   3.047   4.339
  232TCM     h1 1326   0.053   3.163   4.305
  232TCM    cl3 1327   0.210   3.333   4.365
  233TCM     c1 1328   0.752   1.684   0.241
  233TCM    cl1 1329   0.799   1.639   0.074
  233TCM    cl2 1330   0.850   1.824   0.295
  233TCM     h1 1331   0.646   1.711   0.243
  233TCM    cl3 1332   0.783   1.545   0.350
  234TCM     c1 1333   1.483   2.084   1.648
  234TCM    cl1 1334   1.630   2.085   1.751
  234TCM    cl2 1335   1.473   2.238   1.557
  234TCM     h1 1336   1.488   2.000   1.577
  234TCM    cl3 1337   1.338   2.066   1.752
  235TCM     c1 1338   2.417   4.445   3.770
  235TCM    cl1 1339   2.261   4.527   3.804
  235TCM    cl2 1340   2.539   4.567   3.722
  235TCM     h1 1341   2.451   4.393   3.860
  235TCM    cl3 1342   2.394   4.327   3.637
  236TCM     c1 1343   3.111   0.295   1.635
  236TCM    cl1 1344   3.217   0.315   1.778
  236TCM    cl2 1345   3.206   0.224   1.501
  236TCM     h1 1346   3.028   0.229   1.659
  236TCM    cl3 1347   3.049   0.455   1.583
  237TCM     c1 1348   2.576   4.664   4.659
  237TCM    cl1 1349   2.610   4.710   4.829
  237TCM    cl2 1350   2.476   4.790   4.580
  237TCM     h1 1351   2.671   4.655   4.605
  237TCM    cl3 1352   2.489   4.507   4.653
  238TCM     c1 1353   2.494   1.465   3.343
  238TCM    cl1 1354   2.346   1.368   3.314
  238TCM    cl2 1355   2.627   1.402   3.240
  238TCM     h1 1356   2.475   1.569   3.316
  238TCM    cl3 1357   2.542   1.455   3.516
  239TCM     c1 1358   0.742   1.435   4.763
  239TCM    cl1 1359   0.591   1.439   4.860
  239TCM    cl2 1360   0.706   1.489   4.596
  239TCM     h1 1361   0.817   1.502   4.808
  239TCM    cl3 1362   0.805   1.267   4.758
  240TCM     c1 1363   2.821   1.014   2.985
  240TCM    cl1 1364   2.797   1.027   3.162
  240TCM    cl2 1365   2.884   0.851   2.943
  240TCM     h1 1366   2.726   1.031   2.934
  240TCM    cl3 1367   2.940   1.138   2.934
  241TCM     c1 1368   3.555   0.693   1.469
  241TCM    cl1 1369   3.509   0.533   1.537
  241TCM    cl2 1370   3.555   0.684   1.290
  241TCM     h1 1371   3.482   0.768   1.502
  241TCM    cl3 1372   3.718   0.740   1.527
  242TCM     c1 1373   0.314   0.138   0.330
  242TCM    cl1 1374   0.381   0.017   0.445
  242TCM    cl2 1375   0.429   0.274   0.314
  242TCM     h1 1376   0.298   0.091   0.233
  242TCM    cl3 1377   0.158   0.201   0.393
  243TCM     c1 1378   0.488   3.687   3.718
  243TCM    cl1 1379   0.589   3.597   3.835
  243TCM    cl2 1380   0.334   3.735   3.797
  243TCM     h1 1381   0.541   3.777   3.685
  243TCM    cl3 1382   0.452   3.582   3.577
  244TCM     c1 1383   4.946   4.011   4.348
  244TCM    cl1 1384   4.877   4.134   4.236
  244TCM    cl2 1385   0.118   4.049   4.382
  244TCM     h1 1386   4.889   4.011   4.442
  244TCM    cl3 1387   4.934   3.850   4.271
  245TCM     c1 1388   3.496   1.905   0.485
  245TCM    cl1 1389   3.557   1.845   0.643
  245TCM    cl2 1390   3.564   2.068   0.453
  245TCM     h1 1391   3.526   1.836   0.406
  245TCM    cl3 1392   3.317   1.915   0.490
  246TCM     c1 1393   3.404   4.224   3.719
  246TCM    cl1 1394   3.478   4.176   3.562
  246TCM    cl2 1395   3.441   4.099   3.842
  246TCM     h1 1396   3.445   4.320   3.750
  246TCM    cl3 1397   3.227   4.237   3.699
  247TCM     c1 1398   1.884   4.709   3.026
  247TCM    cl1 1399   1.901   4.597   3.166
  247TCM    cl2 1400   1.710   4.736   2.994
  247TCM     h1 1401   1.932   4.804   3.050
  247TCM    cl3 1402   1.961   4.637   2.881
  248TCM     c1 1403   2.278   0.208   2.291
  248TCM    cl1 1404   2.391   0.180   2.155
  248TCM    cl2 1405   2.326   0.356   2.380
  248TCM     h1 1406   2.176   0.221   2.252
  248TCM    cl3 1407   2.282   0.068   2.403
  249TCM     c1 1408   3.220   1.908   4.219
  249TCM    cl1 1409   3.186   2.022   4.353
  249TCM    cl2 1410   3.305   1.995   4.088
  249TCM     h1 1411   3.283   1.826   4.256
  249TCM    cl3 1412   3.066   1.841   4.156
  250TCM     c1 1413   2.831   2.530   0.339
  250TCM    cl1 1414   2.854   2.439   0.492
  250TCM    cl2 1415   2.990   2.553   0.260
  250TCM     h1 1416   2.765   2.473   0.272
  250TCM    cl3 1417   2.757   2.689   0.374
  251TCM     c1 1418   1.292   4.950   4.748
  251TCM    cl1 1419   1.380   0.083   4.666
  251TCM    cl2 1420   1.322   4.957   4.925
  251TCM     h1 1421   1.185   4.960   4.729
  251TCM    cl3 1422   1.350   4.793   4.684
  252TCM     c1 1423   0.721   1.544   1.606
  252TCM    cl1 1424   0.683   1.606   1.442
  252TCM    cl2 1425   0.723   1.680   1.722
  252TCM     h1 1426   0.645   1.471   1.636
  252TCM    cl3 1427   0.883   1.465   1.605
  253TCM     c1 1428   4.760   2.993   0.265
  253TCM    cl1 1429   4.722   3.007   0.440
  253TCM    cl2 1430   4.938   2.986   0.243
  253TCM     h1 1431   4.715   2.902   0.225
  253TCM    cl3 1432   4.694   3.135   0.177
  254TCM     c1 1433   0.368   1.575   3.816
  254TCM    cl1 1434   0.305   1.570   3.648
  254TCM    cl2 1435   0.286   1.449   3.914
  254TCM     h1 1436   0.475   1.556   3.815
  254TCM    cl3 1437   0.336   1.736   3.888
  255TCM     c1 1438   0.702   0.616   0.280
  255TCM    cl1 1439   0.742   0.454   0.346
  255TCM    cl2 1440   0.710   0.738   0.412
  255TCM     h1 1441   0.774   0.643   0.202
  255TCM    cl3 1442   0.537   0.614   0.211
  256TCM     c1 1443   3.401   4.672   4.837
  256TCM    cl1 1444   3.276   4.801   4.839
  256TCM    cl2 1445   3.323   4.516   4.793
  256TCM     h1 1446   3.477   4.697   4.763
  256TCM    cl3 1447   3.475   4.658   4.999
  257TCM     c1 1448   2.894   3.736   3.468
  257TCM    cl1 1449   2.767   3.680   3.581
  257TCM    cl2 1450   2.977   3.593   3.396
  257TCM     h1 1451   2.849   3.796   3.388
  257TCM    cl3 1452   3.014   3.836   3.556
  258TCM     c1 1453   2.724   4.226   3.056
  258TCM    cl1 1454   2.821   4.114   3.156
  258TCM    cl2 1455   2.736   4.175   2.884
  258TCM     h1 1456   2.620   4.224   3.088
  258TCM    cl3 1457   2.789   4.392   3.073
  259TCM     c1 1458   3.291   0.922   2.574
  259TCM    cl1 1459   3.394   1.067   2.594
  259TCM    cl2 1460   3.175   0.913   2.710
  259TCM     h1 1461   3.236   0.928   2.480
  259TCM    cl3 1462   3.394   0.775   2.573
  260TCM     c1 1463   4.274   1.917   0.069
  260TCM    cl1 1464   4.136   1.993   0.156
  260TCM    cl2 1465   4.354   1.799   0.178
  260TCM     h1 1466   4.237   1.866   4.980
  260TCM    cl3 1467   4.392   2.043   0.021
  261TCM     c1 1468   2.917   2.103   0.666
  261TCM    cl1 1469   3.043   2.067   0.789
  261TCM    cl2 1470   2.779   1.992   0.688
  261TCM     h1 1471   2.884   2.207   0.677
  261TCM    cl3 1472   2.985   2.080   0.501
  262TCM     c1 1473   4.495   4.425   1.248
  262TCM    cl1 1474   4.374   4.409   1.116
  262TCM    cl2 1475   4.597   4.278   1.254
  262TCM     h1 1476   4.558   4.512   1.229
  262TCM    cl3 1477   4.410   4.446   1.404
  263TCM     c1 1478   4.530   0.573   3.124
  263TCM    cl1 1479   4.525   0.455   2.989
  263TCM    cl2 1480   4.385   0.552   3.228
  263TCM     h1 1481   4.620   0.557   3.183
  263TCM    cl3 1482   4.532   0.739   3.055
  264TCM     c1 1483   3.241   2.187   0.243
  264TCM    cl1 1484   3.342   2.075   0.146
  264TCM    cl2 1485   3.073   2.186   0.178
  264TCM     h1 1486   3.240   2.154   0.347
  264TCM    cl3 1487   3.308   2.353   0.232
  265TCM     c1 1488   1.692   0.072   2.747
  265TCM    cl1 1489   1.765   0.236   2.739
  265TCM    cl2 1490   1.815   4.950   2.702
  265TCM     h1 1491   1.658   0.053   2.849
  265TCM    cl3 1492   1.554   0.064   2.634
  266TCM     c1 1493   1.130   4.323   4.807
  266TCM    cl1 1494   0.967   4.386   4.848
  266TCM    cl2 1495   1.220   4.286   4.958
  266TCM     h1 1496   1.120   4.231   4.748
  266TCM    cl3 1497   1.220   4.445   4.713
  267TCM     c1 1498   4.859   0.082   4.546
  267TCM    cl1 1499   4.745   4.964   4.474
  267TCM    cl2 1500   4.936   0.008   4.690
  267TCM     h1 1501   4.936   0.109   4.473
  267TCM    cl3 1502   4.769   0.229   4.597
  268TCM     c1 1503   4.093   4.594   0.023
  268TCM    cl1 1504   4.199   4.528   4.894
  268TCM    cl2 1505   4.185   4.606   0.176
  268TCM     h1 1506   4.057   4.693   4.994
  268TCM    cl3 1507   3.953   4.484   0.046
  269TCM     c1 1508   0.288   2.370   3.833
  269TCM    cl1 1509   0.265   2.381   3.655
  269TCM    cl2 1510   0.147   2.441   3.917
  269TCM     h1 1511   0.298   2.264   3.861
  269TCM    cl3 1512   0.437   2.459   3.879
  270TCM     c1 1513   3.956   1.093   1.670
  270TCM    cl1 1514   4.025   1.257   1.690
  270TCM    cl2 1515   4.059   0.973   1.755
  270TCM     h1 1516   3.855   1.090   1.711
  270TCM    cl3 1517   3.951   1.051   1.495
  271TCM     c1 1518   1.012   4.629   0.184
  271TCM    cl1 1519   0.990   4.453   0.210
  271TCM    cl2 1520   1.129   4.655   0.050
  271TCM     h1 1521   0.916   4.673   0.157
  271TCM    cl3 1522   1.075   4.705   0.333
  272TCM     c1 1523   2.903   0.953   3.870
  272TCM    cl1 1524   2.939   1.054   4.015
  272TCM    cl2 1525   2.831   0.797   3.922
  272TCM     h1 1526   2.833   1.006   3.806
  272TCM    cl3 1527   3.055   0.921   3.779
  273TCM     c1 1528   4.207   3.275   3.555
  273TCM    cl1 1529   4.250   3.343   3.394
  273TCM    cl2 1530   4.354   3.266   3.656
  273TCM     h1 1531   4.133   3.339   3.603
  273TCM    cl3 1532   4.140   3.110   3.533
  274TCM     c1 1533   1.134   0.636   0.451
  274TCM    cl1 1534   1.233   0.496   0.399
  274TCM    cl2 1535   1.011   0.583   0.570
  274TCM     h1 1536   1.199   0.712   0.497
  274TCM    cl3 1537   1.052   0.706   0.308
  275TCM     c1 1538   0.828   1.943   1.125
  275TCM    cl1 1539   0.957   2.055   1.182
  275TCM    cl2 1540   0.901   1.786   1.080
  275TCM     h1 1541   0.755   1.928   1.205
  275TCM    cl3 1542   0.748   2.015   0.981
  276TCM     c1 1543   3.688   2.823   2.208
  276TCM    cl1 1544   3.734   2.782   2.377
  276TCM    cl2 1545   3.603   2.981   2.206
  276TCM     h1 1546   3.778   2.829   2.146
  276TCM    cl3 1547   3.580   2.694   2.146
  277TCM     c1 1548   3.082   3.247   2.671
  277TCM    cl1 1549   3.159   3.235   2.509
  277TCM    cl2 1550   3.009   3.410   2.689
  277TCM     h1 1551   3.004   3.171   2.680
  277TCM    cl3 1552   3.206   3.223   2.798
  278TCM     c1 1553   0.937   1.115   0.070
  278TCM    cl1 1554   0.844   1.257   0.128
  278TCM    cl2 1555   0.858   0.965   0.130
  278TCM     h1 1556   0.940   1.114   4.961
  278TCM    cl3 1557   1.104   1.124   0.135
  279TCM     c1 1558   2.971   4.995   0.926
  279TCM    cl1 1559   2.988   4.884   1.066
  279TCM    cl2 1560   2.838   0.110   0.958
  279TCM     h1 1561   3.065   0.050   0.911
  279TCM    cl3 1562   2.933   4.900   0.778
  280TCM     c1 1563   1.880   3.387   0.751
  280TCM    cl1 1564   1.947   3.481   0.889
  280TCM    cl2 1565   1.748   3.280   0.811
  280TCM     h1 1566   1.840   3.456   0.676
  280TCM    cl3 1567   2.010   3.288   0.679
  281TCM     c1 1568   2.630   3.518   1.840
  281TCM    cl1 1569   2.508   3.627   1.914
  281TCM    cl2 1570   2.736   3.450   1.969
  281TCM     h1 1571   2.580   3.437   1.787
  281TCM    cl3 1572   2.729   3.613   1.725
  282TCM     c1 1573   4.519   0.443   3.956
  282TCM    cl1 1574   4.534   0.545   3.809
  282TCM    cl2 1575   4.588   0.530   4.096
  282TCM     h1 1576   4.413   0.421   3.974
  282TCM    cl3 1577   4.608   0.289   3.929
  283TCM     c1 1578   4.263   2.795   4.591
  283TCM    cl1 1579   4.134   2.745   4.705
  283TCM    cl2 1580   4.423   2.754   4.661
  283TCM     h1 1581   4.250   2.744   4.495
  283TCM    cl3 1582   4.254   2.973   4.566
  284TCM     c1 1583   0.693   4.735   2.016
  284TCM    cl1 1584   0.736   4.785   1.850
  284TCM    cl2 1585   0.838   4.750   2.122
  284TCM     h1 1586   0.613   4.798   2.055
  284TCM    cl3 1587   0.640   4.563   2.015
  285TCM     c1 1588   4.895   0.043   0.078
  285TCM    cl1 1589   4.863   0.196   4.989
  285TCM    cl2 1590   4.845   0.063   0.249
  285TCM     h1 1591   4.839   4.961   0.033
  285TCM    cl3 1592   0.071   0.006   0.072
  286TCM     c1 1593   4.448   0.225   3.622
  286TCM    cl1 1594   4.308   0.269   3.725
  286TCM    cl2 1595   4.403   0.241   3.450
  286TCM     h1 1596   4.533   0.290   3.645
  286TCM    cl3 1597   4.493   0.055   3.658
  287TCM     c1 1598   3.239   4.834   4.341
  287TCM    cl1 1599   3.265   4.738   4.191
  287TCM    cl2 1600   3.308   4.998   4.319
  287TCM     h1 1601   3.132   4.842   4.361
  287TCM    cl3 1602   3.321   4.754   4.478
  288TCM     c1 1603   1.116   1.748   1.546
  288TCM    cl1 1604   0.973   1.833   1.478
  288TCM    cl2 1605   1.118   1.766   1.724
  288TCM     h1 1606   1.111   1.642   1.520
  288TCM    cl3 1607   1.265   1.820   1.477
  289TCM     c1 1608   3.043   1.251   2.613
  289TCM    cl1 1609   3.067   1.169   2.456
  289TCM    cl2 1610   2.873   1.310   2.623
  289TCM     h1 1611   3.062   1.181   2.695
  289TCM    cl3 1612   3.155   1.390   2.626
  290TCM     c1 1613   3.386   4.971   0.428
  290TCM    cl1 1614   3.238   4.941   0.524
  290TCM    cl2 1615   3.358   4.922   0.257
  290TCM     h1 1616   3.411   0.078   0.431
  290TCM    cl3 1617   3.522   4.876   0.495
  291TCM     c1 1618   0.394   1.159   2.095
  291TCM    cl1 1619   0.298   1.065   1.976
  291TCM    cl2 1620   0.313   1.316   2.125
  291TCM     h1 1621   0.401   1.103   2.189
  291TCM    cl3 1622   0.558   1.188   2.029
  292TCM     c1 1623   2.717   3.538   1.248
  292TCM    cl1 1624   2.737   3.444   1.400
  292TCM    cl2 1625   2.640   3.434   1.124
  292TCM     h1 1626   2.655   3.626   1.267
  292TCM    cl3 1627   2.879   3.590   1.190
  293TCM     c1 1628   2.195   2.403   4.464
  293TCM    cl1 1629   2.044   2.314   4.426
  293TCM    cl2 1630   2.216   2.410   4.642
  293TCM     h1 1631   2.280   2.352   4.418
  293TCM    cl3 1632   2.183   2.570   4.399
  294TCM     c1 1633   0.450   2.215   0.828
  294TCM    cl1 1634   0.493   2.103   0.694
  294TCM    cl2 1635   0.296   2.160   0.903
  294TCM     h1 1636   0.529   2.215   0.903
  294TCM    cl3 1637   0.428   2.381   0.762
  295TCM     c1 1638   2.302   0.300   1.633
  295TCM    cl1 1639   2.434   0.286   1.512
  295TCM    cl2 1640   2.182   0.170   1.605
  295TCM     h1 1641   2.343   0.291   1.734
  295TCM    cl3 1642   2.221   0.460   1.615
  296TCM     c1 1643   2.364   3.598   4.873
  296TCM    cl1 1644   2.542   3.579   4.884
  296TCM    cl2 1645   2.291   3.438   4.839
  296TCM     h1 1646   2.326   3.637   4.968
  296TCM    cl3 1647   2.325   3.712   4.740
  297TCM     c1 1648   0.032   3.242   4.910
  297TCM    cl1 1649   0.010   3.312   0.074
  297TCM    cl2 1650   4.953   3.082   4.901
  297TCM     h1 1651   4.988   3.309   4.835
  297TCM    cl3 1652   0.208   3.223   4.879
  298TCM     c1 1653   3.836   1.699   1.588
  298TCM    cl1 1654   3.950   1.801   1.681
  298TCM    cl2 1655   3.710   1.803   1.514
  298TCM     h1 1656   3.890   1.645   1.510
  298TCM    cl3 1657   3.759   1.581   1.699
  299TCM     c1 1658   2.087   2.460   2.617
  299TCM    cl1 1659   2.174   2.303   2.608
  299TCM    cl2 1660   2.156   2.574   2.497
  299TCM     h1 1661   1.981   2.444   2.595
  299TCM    cl3 1662   2.105   2.528   2.782
  300TCM     c1 1663   4.072   2.715   0.678
  300TCM    cl1 1664   4.237   2.782   0.699
  300TCM    cl2 1665   4.084   2.553   0.602
  300TCM     h1 1666   4.023   2.707   0.775
  300TCM    cl3 1667   3.977   2.824   0.572
  301TCM     c1 1668   4.638   4.023   1.721
  301TCM    cl1 1669   4.552   4.054   1.875
  301TCM    cl2 1670   4.566   4.124   1.591
  301TCM     h1 1671   4.744   4.048   1.733
  301TCM    cl3 1672   4.622   3.849   1.677
  302TCM     c1 1673   2.916   1.395   3.790
  302TCM    cl1 1674   3.074   1.311   3.769
  302TCM    cl2 1675   2.903   1.452   3.960
  302TCM     h1 1676   2.911   1.480   3.722
  302TCM    cl3 1677   2.783   1.280   3.755
  303TCM     c1 1678   0.966   3.798   2.096
  303TCM    cl1 1679   1.026   3.681   2.218
  303TCM    cl2 1680   0.995   3.734   1.931
  303TCM     h1 1681   0.858   3.813   2.110
  303TCM    cl3 1682   1.051   3.954   2.115
  304TCM     c1 1683   2.776   3.876   2.128
  304TCM    cl1 1684   2.786   3.890   1.950
  304TCM    cl2 1685   2.853   3.723   2.180
  304TCM     h1 1686   2.827   3.961   2.174
  304TCM    cl3 1687   2.604   3.876   2.178
  305TCM     c1 1688   1.402   2.973   2.058
  305TCM    cl1 1689   1.249   2.909   2.125
  305TCM    cl2 1690   1.540   2.910   2.155
  305TCM     h1 1691   1.413   2.943   1.954
  305TCM    cl3 1692   1.402   3.152   2.069
  306TCM     c1 1693   4.477   4.863   4.882
  306TCM    cl1 1694   4.497   4.708   4.794
  306TCM    cl2 1695   4.610   4.974   4.836
  306TCM     h1 1696   4.381   4.907   4.856
  306TCM    cl3 1697   4.485   4.834   0.059
  307TCM     c1 1698   3.850   4.852   2.278
  307TCM    cl1 1699   3.823   0.020   2.337
  307TCM    cl2 1700   3.804   4.736   2.406
  307TCM     h1 1701   3.789   4.835   2.189
  307TCM    cl3 1702   4.023   4.831   2.236
  308TCM     c1 1703   1.241   4.995   2.995
  308TCM    cl1 1704   1.407   4.939   2.954
  308TCM    cl2 1705   1.186   4.913   3.144
  308TCM     h1 1706   1.243   0.103   3.010
  308TCM    cl3 1707   1.130   4.955   2.860
  309TCM     c1 1708   3.267   4.648   3.630
  309TCM    cl1 1709   3.292   4.530   3.498
  309TCM    cl2 1710   3.311   4.812   3.573
  309TCM     h1 1711   3.162   4.648   3.661
  309TCM    cl3 1712   3.370   4.603   3.770
  310TCM     c1 1713   3.606   1.948   4.515
  310TCM    cl1 1714   3.468   2.029   4.597
  310TCM    cl2 1715   3.747   2.059   4.514
  310TCM     h1 1716   3.632   1.856   4.569
  310TCM    cl3 1717   3.560   1.909   4.346
  311TCM     c1 1718   4.532   4.072   2.423
  311TCM    cl1 1719   4.623   4.042   2.272
  311TCM    cl2 1720   4.631   4.171   2.534
  311TCM     h1 1721   4.438   4.124   2.400
  311TCM    cl3 1722   4.494   3.915   2.502
  312TCM     c1 1723   4.655   3.140   2.471
  312TCM    cl1 1724   4.740   3.234   2.344
  312TCM    cl2 1725   4.776   3.072   2.586
  312TCM     h1 1726   4.587   3.206   2.526
  312TCM    cl3 1727   4.564   3.007   2.394
  313TCM     c1 1728   1.003   2.114   0.701
  313TCM    cl1 1729   0.881   2.012   0.618
  313TCM    cl2 1730   1.127   2.168   0.583
  313TCM     h1 1731   0.955   2.201   0.745
  313TCM    cl3 1732   1.083   2.017   0.830
  314TCM     c1 1733   0.670   1.589   4.198
  314TCM    cl1 1734   0.671   1.603   4.019
  314TCM    cl2 1735   0.781   1.456   4.246
  314TCM     h1 1736   0.704   1.683   4.242
  314TCM    cl3 1737   0.504   1.553   4.254
  315TCM     c1 1738   3.515   3.328   0.956
  315TCM    cl1 1739   3.550   3.248   1.113
  315TCM    cl2 1740   3.399   3.228   0.863
  315TCM     h1 1741   3.472   3.427   0.974
  315TCM    cl3 1742   3.667   3.344   0.863
  316TCM     c1 1743   4.931   4.963   2.171
  316TCM    cl1 1744   4.898   4.811   2.259
  316TCM    cl2 1745   0.061   4.935   2.050
  316TCM     h1 1746   4.841   4.996   2.119
  316TCM    cl3 1747   4.983   0.091   2.286
  317TCM     c1 1748   1.058   2.286   1.688
  317TCM    cl1 1749   1.188   2.407   1.716
  317TCM    cl2 1750   1.079   2.212   1.525
  317TCM     h1 1751   1.064   2.208   1.764
  317TCM    cl3 1752   0.899   2.367   1.697
  318TCM     c1 1753   0.561   2.110   4.037
  318TCM    cl1 1754   0.529   2.084   3.863
  318TCM    cl2 1755   0.606   1.955   4.114
  318TCM     h1 1756   0.642   2.182   4.049
  318TCM    cl3 1757   0.412   2.174   4.116
  319TCM     c1 1758   0.625   0.800   4.897
  319TCM    cl1 1759   0.717   0.915   4.795
  319TCM    cl2 1760   0.706   0.641   4.896
  319TCM     h1 1761   0.619   0.838   4.999
  319TCM    cl3 1762   0.459   0.784   4.831
  320TCM     c1 1763   3.501   2.891   0.864
  320TCM    cl1 1764   3.666   2.962   0.866
  320TCM    cl2 1765   3.501   2.740   0.961
  320TCM     h1 1766   3.430   2.961   0.906
  320TCM    cl3 1767   3.455   2.854   0.694
  321TCM     c1 1768   3.416   4.548   2.926
  321TCM    cl1 1769   3.281   4.612   2.826
  321TCM    cl2 1770   3.550   4.667   2.928
  321TCM     h1 1771   3.381   4.531   3.029
  321TCM    cl3 1772   3.474   4.394   2.856
  322TCM     c1 1773   4.457   3.140   4.889
  322TCM    cl1 1774   4.352   3.248   4.791
  322TCM    cl2 1775   4.598   3.090   4.791
  322TCM     h1 1776   4.491   3.194   4.978
  322TCM    cl3 1777   4.364   2.995   4.937
  323TCM     c1 1778   4.379   2.772   2.719
  323TCM    cl1 1779   4.213   2.835   2.742
  323TCM    cl2 1780   4.496   2.902   2.756
  323TCM     h1 1781   4.396   2.687   2.786
  323TCM    cl3 1782   4.400   2.720   2.549
  324TCM     c1 1783   2.065   4.285   3.367
  324TCM    cl1 1784   2.195   4.405   3.337
  324TCM    cl2 1785   2.032   4.275   3.543
  324TCM     h1 1786   1.975   4.315   3.314
  324TCM    cl3 1787   2.119   4.124   3.308
  325TCM     c1 1788   3.419   2.268   0.727
  325TCM    cl1 1789   3.285   2.272   0.607
  325TCM    cl2 1790   3.402   2.125   0.833
  325TCM     h1 1791   3.514   2.263   0.675
  325TCM    cl3 1792   3.414   2.417   0.827
  326TCM     c1 1793   1.748   1.784   2.965
  326TCM    cl1 1794   1.715   1.952   2.914
  326TCM    cl2 1795   1.864   1.784   3.102
  326TCM     h1 1796   1.655   1.735   2.996
  326TCM    cl3 1797   1.821   1.693   2.828
  327TCM     c1 1798   2.617   2.834   3.257
  327TCM    cl1 1799   2.738   2.820   3.389
  327TCM    cl2 1800   2.611   3.004   3.200
  327TCM     h1 1801   2.645   2.768   3.175
  327TCM    cl3 1802   2.455   2.786   3.320
  328TCM     c1 1803   4.843   1.887   1.456
  328TCM    cl1 1804   4.723   2.015   1.492
  328TCM    cl2 1805   0.001   1.931   1.528
  328TCM     h1 1806   4.809   1.792   1.498
  328TCM    cl3 1807   4.863   1.870   1.278
  329TCM     c1 1808   1.405   1.129   3.350
  329TCM    cl1 1809   1.312   1.276   3.304
  329TCM    cl2 1810   1.371   0.998   3.232
  329TCM     h1 1811   1.512   1.152   3.350
  329TCM    cl3 1812   1.355   1.076   3.514
  330TCM     c1 1813   3.173   4.061   2.133
  330TCM    cl1 1814   3.070   4.116   1.996
  330TCM    cl2 1815   3.262   3.913   2.083
  330TCM     h1 1816   3.244   4.140   2.159
  330TCM    cl3 1817   3.069   4.025   2.275
  331TCM     c1 1818   1.795   3.625   0.234
  331TCM    cl1 1819   1.676   3.494   0.205
  331TCM    cl2 1820   1.901   3.579   0.372
  331TCM     h1 1821   1.856   3.640   0.145
  331TCM    cl3 1822   1.709   3.777   0.274
  332TCM     c1 1823   4.568   2.108   3.054
  332TCM    cl1 1824   4.442   2.175   3.163
  332TCM    cl2 1825   4.603   2.226   2.924
  332TCM     h1 1826   4.659   2.088   3.112
  332TCM    cl3 1827   4.510   1.954   2.981
  333TCM     c1 1828   2.278   3.631   1.252
  333TCM    cl1 1829   2.165   3.509   1.186
  333TCM    cl2 1830   2.376   3.699   1.118
  333TCM     h1 1831   2.222   3.711   1.301
  333TCM    cl3 1832   2.387   3.553   1.371
  334TCM     c1 1833   0.924   4.801   4.542
  334TCM    cl1 1834   1.017   4.952   4.511
  334TCM    cl2 1835   0.749   4.840   4.552
  334TCM     h1 1836   0.942   4.730   4.461
  334TCM    cl3 1837   0.977   4.730   4.698
  335TCM     c1 1838   3.370   3.046   3.453
  335TCM    cl1 1839   3.384   2.868   3.462
  335TCM    cl2 1840   3.301   3.092   3.293
  335TCM     h1 1841   3.305   3.082   3.533
  335TCM    cl3 1842   3.533   3.119   3.470
  336TCM     c1 1843   3.850   3.690   1.092
  336TCM    cl1 1844   3.891   3.721   0.920
  336TCM    cl2 1845   3.967   3.572   1.160
  336TCM     h1 1846   3.854   3.783   1.148
  336TCM    cl3 1847   3.684   3.621   1.100
  337TCM     c1 1848   2.289   1.173   3.795
  337TCM    cl1 1849   2.420   1.291   3.826
  337TCM    cl2 1850   2.245   1.176   3.621
  337TCM     h1 1851   2.322   1.073   3.823
  337TCM    cl3 1852   2.145   1.218   3.893
  338TCM     c1 1853   1.940   3.532   4.773
  338TCM    cl1 1854   1.993   3.632   4.913
  338TCM    cl2 1855   1.786   3.596   4.708
  338TCM     h1 1856   2.017   3.535   4.695
  338TCM    cl3 1857   1.916   3.363   4.827
  339TCM     c1 1858   4.149   3.912   3.151
  339TCM    cl1 1859   4.187   4.068   3.231
  339TCM    cl2 1860   4.183   3.925   2.976
  339TCM     h1 1861   4.210   3.832   3.194
  339TCM    cl3 1862   3.975   3.875   3.175
  340TCM     c1 1863   3.009   1.479   4.716
  340TCM    cl1 1864   3.098   1.512   4.869
  340TCM    cl2 1865   3.106   1.368   4.614
  340TCM     h1 1866   2.913   1.433   4.740
  340TCM    cl3 1867   2.982   1.633   4.629
  341TCM     c1 1868   0.266   0.581   3.843
  341TCM    cl1 1869   0.180   0.453   3.752
  341TCM    cl2 1870   0.240   0.558   4.019
  341TCM     h1 1871   0.373   0.576   3.822
  341TCM    cl3 1872   0.202   0.742   3.795
  342TCM     c1 1873   3.328   0.650   1.827
  342TCM    cl1 1874   3.411   0.804   1.787
  342TCM    cl2 1875   3.158   0.685   1.873
  342TCM     h1 1876   3.329   0.584   1.740
  342TCM    cl3 1877   3.413   0.571   1.963
  343TCM     c1 1878   2.602   4.832   2.337
  343TCM    cl1 1879   2.489   4.833   2.197
  343TCM    cl2 1880   2.636   0.001   2.388
  343TCM     h1 1881   2.557   4.778   2.420
  343TCM    cl3 1882   2.756   4.753   2.289
  344TCM     c1 1883   2.647   4.314   2.073
  344TCM    cl1 1884   2.509   4.220   2.138
  344TCM    cl2 1885   2.681   4.262   1.905
  344TCM     h1 1886   2.623   4.421   2.074
  344TCM    cl3 1887   2.791   4.283   2.174
  345TCM     c1 1888   0.583   0.781   2.243
  345TCM    cl1 1889   0.724   0.689   2.306
  345TCM    cl2 1890   0.616   0.831   2.074
  345TCM     h1 1891   0.494   0.718   2.246
  345TCM    cl3 1892   0.557   0.928   2.342
  346TCM     c1 1893   2.209   4.221   2.913
  346TCM    cl1 1894   2.366   4.264   2.988
  346TCM    cl2 1895   2.212   4.268   2.740
  346TCM     h1 1896   2.193   4.113   2.922
  346TCM    cl3 1897   2.077   4.309   2.996
  347TCM     c1 1898   4.047   1.911   4.667
  347TCM    cl1 1899   3.978   1.999   4.807
  347TCM    cl2 1900   3.945   1.769   4.628
  347TCM     h1 1901   4.051   1.978   4.580
  347TCM    cl3 1902   4.214   1.857   4.707
  348TCM     c1 1903   0.179   0.475   0.139
  348TCM    cl1 1904   0.216   0.624   0.048
  348TCM    cl2 1905   0.218   0.333   0.037
  348TCM     h1 1906   0.238   0.472   0.231
  348TCM    cl3 1907   0.004   0.473   0.181
  349TCM     c1 1908   3.774   3.476   0.100
  349TCM    cl1 1909   3.696   3.467   0.261
  349TCM    cl2 1910   3.939   3.545   0.116
  349TCM     h1 1911   3.780   3.375   0.056
  349TCM    cl3 1912   3.676   3.582   4.993
  350TCM     c1 1913   1.859   2.075   2.479
  350TCM    cl1 1914   1.822   2.191   2.611
  350TCM    cl2 1915   1.752   2.108   2.339
  350TCM     h1 1916   1.964   2.086   2.450
  350TCM    cl3 1917   1.830   1.907   2.537
  351TCM     c1 1918   1.778   3.749   1.290
  351TCM    cl1 1919   1.673   3.875   1.217
  351TCM    cl2 1920   1.948   3.803   1.283
  351TCM     h1 1921   1.749   3.733   1.394
  351TCM    cl3 1922   1.760   3.596   1.199
  352TCM     c1 1923   3.634   3.389   1.543
  352TCM    cl1 1924   3.737   3.479   1.427
  352TCM    cl2 1925   3.688   3.425   1.710
  352TCM     h1 1926   3.529   3.417   1.530
  352TCM    cl3 1927   3.654   3.213   1.512
  353TCM     c1 1928   2.405   4.402   0.583
  353TCM    cl1 1929   2.304   4.549   0.598
  353TCM    cl2 1930   2.507   4.384   0.730
  353TCM     h1 1931   2.342   4.314   0.571
  353TCM    cl3 1932   2.511   4.419   0.439
  354TCM     c1 1933   2.607   2.341   4.631
  354TCM    cl1 1934   2.566   2.464   4.508
  354TCM    cl2 1935   2.782   2.303   4.623
  354TCM     h1 1936   2.582   2.378   4.731
  354TCM    cl3 1937   2.513   2.191   4.598
  355TCM     c1 1938   1.373   3.184   2.433
  355TCM    cl1 1939   1.552   3.181   2.420
  355TCM    cl2 1940   1.324   3.304   2.557
  355TCM     h1 1941   1.330   3.212   2.336
  355TCM    cl3 1942   1.314   3.022   2.480
  356TCM     c1 1943   0.402   4.035   4.700
  356TCM    cl1 1944   0.467   3.968   4.547
  356TCM    cl2 1945   0.533   4.119   4.790
  356TCM     h1 1946   0.322   4.105   4.679
  356TCM    cl3 1947   0.340   3.901   4.801
  357TCM     c1 1948   4.783   2.328   1.759
  357TCM    cl1 1949   4.923   2.220   1.791
  357TCM    cl2 1950   4.838   2.474   1.671
  357TCM     h1 1951   4.709   2.275   1.699
  357TCM    cl3 1952   4.710   2.377   1.916
  358TCM     c1 1953   4.215   0.710   4.090
  358TCM    cl1 1954   4.347   0.831   4.081
  358TCM    cl2 1955   4.252   0.593   4.220
  358TCM     h1 1956   4.120   0.761   4.111
  358TCM    cl3 1957   4.202   0.623   3.934
  359TCM     c1 1958   3.576   0.791   0.192
  359TCM    cl1 1959   3.732   0.794   0.281
  359TCM    cl2 1960   3.580   0.659   0.071
  359TCM     h1 1961   3.494   0.774   0.263
  359TCM    cl3 1962   3.553   0.948   0.109
  360TCM     c1 1963   1.795   1.623   3.736
  360TCM    cl1 1964   1.909   1.759   3.762
  360TCM    cl2 1965   1.875   1.468   3.780
  360TCM     h1 1966   1.707   1.637   3.799
  360TCM    cl3 1967   1.747   1.618   3.564
  361TCM     c1 1968   0.149   1.888   2.030
  361TCM    cl1 1969   0.152   1.712   2.068
  361TCM    cl2 1970   0.001   1.962   2.099
  361TCM     h1 1971   0.237   1.936   2.074
  361TCM    cl3 1972   0.151   1.911   1.853
  362TCM     c1 1973   1.540   0.292   3.219
  362TCM    cl1 1974   1.609   0.215   3.073
  362TCM    cl2 1975   1.644   0.256   3.361
  362TCM     h1 1976   1.534   0.400   3.205
  362TCM    cl3 1977   1.376   0.226   3.249
  363TCM     c1 1978   1.972   3.902   0.794
  363TCM    cl1 1979   1.966   3.779   0.664
  363TCM    cl2 1980   2.077   4.038   0.742
  363TCM     h1 1981   1.871   3.939   0.814
  363TCM    cl3 1982   2.040   3.827   0.941
  364TCM     c1 1983   3.260   1.444   4.162
  364TCM    cl1 1984   3.368   1.586   4.139
  364TCM    cl2 1985   3.120   1.492   4.262
  364TCM     h1 1986   3.226   1.407   4.065
  364TCM    cl3 1987   3.351   1.315   4.247
  365TCM     c1 1988   2.090   3.483   4.020
  365TCM    cl1 1989   2.040   3.570   3.872
  365TCM    cl2 1990   2.044   3.579   4.165
  365TCM     h1 1991   2.042   3.385   4.024
  365TCM    cl3 1992   2.268   3.462   4.020
  366TCM     c1 1993   2.964   0.430   4.675
  366TCM    cl1 1994   3.124   0.373   4.618
  366TCM    cl2 1995   2.905   0.323   4.806
  366TCM     h1 1996   2.973   0.533   4.712
  366TCM    cl3 1997   2.846   0.426   4.539
  367TCM     c1 1998   3.132   3.252   2.128
  367TCM    cl1 1999   3.032   3.199   1.988
  367TCM    cl2 2000   3.143   3.431   2.129
  367TCM     h1 2001   3.086   3.217   2.221
  367TCM    cl3 2002   3.296   3.181   2.113
  368TCM     c1 2003   4.562   4.245   0.693
  368TCM    cl1 2004   4.706   4.192   0.601
  368TCM    cl2 2005   4.602   4.259   0.867
  368TCM     h1 2006   4.528   4.342   0.656
  368TCM    cl3 2007   4.431   4.124   0.674
  369TCM     c1 2008   1.944   2.737   4.634
  369TCM    cl1 2009   1.883   2.577   4.687
  369TCM    cl2 2010   2.104   2.768   4.710
  369TCM     h1 2011   1.955   2.738   4.525
  369TCM    cl3 2012   1.829   2.865   4.684
  370TCM     c1 2013   2.401   3.831   4.076
  370TCM    cl1 2014   2.343   3.777   4.237
  370TCM    cl2 2015   2.260   3.841   3.965
  370TCM     h1 2016   2.447   3.930   4.085
  370TCM    cl3 2017   2.521   3.715   4.012
  371TCM     c1 2018   4.294   4.848   2.584
  371TCM    cl1 2019   4.333   4.782   2.422
  371TCM    cl2 2020   4.384   4.757   2.709
  371TCM     h1 2021   4.322   4.954   2.589
  371TCM    cl3 2022   4.117   4.831   2.613
  372TCM     c1 2023   1.832   3.389   1.627
  372TCM    cl1 2024   1.919   3.413   1.472
  372TCM    cl2 2025   1.811   3.548   1.706
  372TCM     h1 2026   1.734   3.344   1.607
  372TCM    cl3 2027   1.928   3.281   1.733
  373TCM     c1 2028   3.360   0.325   0.780
  373TCM    cl1 2029   3.456   0.233   0.660
  373TCM    cl2 2030   3.427   0.297   0.945
  373TCM     h1 2031   3.365   0.431   0.757
  373TCM    cl3 2032   3.189   0.270   0.775
  374TCM     c1 2033   4.809   3.733   3.023
  374TCM    cl1 2034   4.705   3.868   2.969
  374TCM    cl2 2035   4.945   3.797   3.121
  374TCM     h1 2036   4.751   3.663   3.084
  374TCM    cl3 2037   4.874   3.647   2.879
  375TCM     c1 2038   2.622   2.646   4.899
  375TCM    cl1 2039   2.709   2.701   4.753
  375TCM    cl2 2040   2.714   2.512   4.976
  375TCM     h1 2041   2.612   2.729   4.970
  375TCM    cl3 2042   2.458   2.588   4.853
  376TCM     c1 2043   2.187   0.099   0.314
  376TCM    cl1 2044   2.155   4.985   0.450
  376TCM    cl2 2045   2.122   0.030   0.162
  376TCM     h1 2046   2.138   0.194   0.335
  376TCM    cl3 2047   2.364   0.124   0.299
  377TCM     c1 2048   2.896   0.067   2.125
  377TCM    cl1 2049   2.756   0.008   2.031
  377TCM    cl2 2050   2.852   0.220   2.208
  377TCM     h1 2051   2.926   4.992   2.199
  377TCM    cl3 2052   3.032   0.099   2.013
  378TCM     c1 2053   1.552   3.300   4.753
  378TCM    cl1 2054   1.422   3.352   4.865
  378TCM    cl2 2055   1.517   3.363   4.589
  378TCM     h1 2056   1.648   3.339   4.788
  378TCM    cl3 2057   1.558   3.121   4.747
  379TCM     c1 2058   0.438   2.668   0.439
  379TCM    cl1 2059   0.558   2.694   0.570
  379TCM    cl2 2060   0.525   2.666   0.282
  379TCM     h1 2061   0.386   2.574   0.454
  379TCM    cl3 2062   0.319   2.803   0.437
  380TCM     c1 2063   2.768   0.137   3.119
  380TCM    cl1 2064   2.620   0.085   3.031
  380TCM    cl2 2065   2.885   0.001   3.126
  380TCM     h1 2066   2.813   0.222   3.067
  380TCM    cl3 2067   2.725   0.184   3.287
  381TCM     c1 2068   2.017   2.999   1.037
  381TCM    cl1 2069   1.965   2.969   0.868
  381TCM    cl2 2070   1.887   2.948   1.150
  381TCM     h1 2071   2.108   2.942   1.057
  381TCM    cl3 2072   2.049   3.174   1.060
  382TCM     c1 2073   3.149   0.004   3.882
  382TCM    cl1 2074   3.070   0.082   4.023
  382TCM    cl2 2075   3.084   4.837   3.864
  382TCM     h1 2076   3.128   0.061   3.792
  382TCM    cl3 2077   3.326   4.996   3.910
  383TCM     c1 2078   2.592   3.080   4.995
  383TCM    cl1 2079   2.676   3.237   4.972
  383TCM    cl2 2080   2.706   2.963   0.070
  383TCM     h1 2081   2.506   3.094   0.060
  383TCM    cl3 2082   2.538   3.017   4.836
  384TCM     c1 2083   4.890   0.368   4.205
  384TCM    cl1 2084   4.949   0.347   4.038
  384TCM    cl2 2085   0.025   0.347   4.321
  384TCM     h1 2086   4.847   0.468   4.216
  384TCM    cl3 2087   4.765   0.243   4.239
  385TCM     c1 2088   2.412   2.537   3.725
  385TCM    cl1 2089   2.450   2.593   3.891
  385TCM    cl2 2090   2.388   2.359   3.725
  385TCM     h1 2091   2.320   2.586   3.690
  385TCM    cl3 2092   2.547   2.579   3.615
  386TCM     c1 2093   0.344   1.082   0.047
  386TCM    cl1 2094   0.244   1.221   0.099
  386TCM    cl2 2095   0.330   0.949   0.167
  386TCM     h1 2096   0.310   1.047   4.949
  386TCM    cl3 2097   0.516   1.132   0.036
  387TCM     c1 2098   4.636   2.875   1.944
  387TCM    cl1 2099   4.477   2.829   2.014
  387TCM    cl2 2100   4.745   2.732   1.951
  387TCM     h1 2101   4.623   2.907   1.841
  387TCM    cl3 2102   4.708   3.008   2.041
  388TCM     c1 2103   2.944   3.094   0.670
  388TCM    cl1 2104   2.881   3.220   0.559
  388TCM    cl2 2105   3.119   3.069   0.636
  388TCM     h1 2106   2.931   3.127   0.774
  388TCM    cl3 2107   2.854   2.942   0.643
  389TCM     c1 2108   2.344   4.464   1.579
  389TCM    cl1 2109   2.362   4.339   1.452
  389TCM    cl2 2110   2.380   4.394   1.740
  389TCM     h1 2111   2.413   4.547   1.559
  389TCM    cl3 2112   2.176   4.525   1.577
  390TCM     c1 2113   2.608   3.737   4.508
  390TCM    cl1 2114   2.678   3.803   4.356
  390TCM    cl2 2115   2.738   3.724   4.631
  390TCM     h1 2116   2.530   3.803   4.545
  390TCM    cl3 2117   2.540   3.574   4.477
  391TCM     c1 2118   3.995   3.998   2.525
  391TCM    cl1 2119   3.952   4.172   2.514
  391TCM    cl2 2120   4.143   3.966   2.429
  391TCM     h1 2121   4.013   3.971   2.630
  391TCM    cl3 2122   3.860   3.899   2.460
  392TCM     c1 2123   2.290   1.174   2.532
  392TCM    cl1 2124   2.448   1.243   2.484
  392TCM    cl2 2125   2.314   1.046   2.656
  392TCM     h1 2126   2.227   1.253   2.573
  392TCM    cl3 2127   2.209   1.102   2.388
  393TCM     c1 2128   0.050   2.070   0.464
  393TCM    cl1 2129   0.142   2.184   0.568
  393TCM    cl2 2130   0.042   2.136   0.297
  393TCM     h1 2131   0.100   1.973   0.463
  393TCM    cl3 2132   4.884   2.050   0.529
  394TCM     c1 2133   4.096   0.357   3.052
  394TCM    cl1 2134   4.033   0.440   3.199
  394TCM    cl2 2135   4.227   0.244   3.099
  394TCM     h1 2136   4.015   0.302   3.004
  394TCM    cl3 2137   4.160   0.480   2.939
  395TCM     c1 2138   4.728   2.240   0.149
  395TCM    cl1 2139   4.781   2.139   0.011
  395TCM    cl2 2140   4.646   2.137   0.271
  395TCM     h1 2141   4.814   2.289   0.194
  395TCM    cl3 2142   4.612   2.364   0.090
  396TCM     c1 2143   3.300   0.764   1.033
  396TCM    cl1 2144   3.143   0.830   1.088
  396TCM    cl2 2145   3.408   0.899   0.985
  396TCM     h1 2146   3.347   0.707   1.114
  396TCM    cl3 2147   3.274   0.656   0.891
  397TCM     c1 2148   2.493   4.154   4.467
  397TCM    cl1 2149   2.653   4.121   4.540
  397TCM    cl2 2150   2.369   4.048   4.542
  397TCM     h1 2151   2.466   4.259   4.482
  397TCM    cl3 2152   2.502   4.118   4.291
  398TCM     c1 2153   1.319   0.090   0.322
  398TCM    cl1 2154   1.388   4.930   0.281
  398TCM    cl2 2155   1.357   0.207   0.192
  398TCM     h1 2156   1.211   0.081   0.333
  398TCM    cl3 2157   1.390   0.148   0.476
  399TCM     c1 2158   1.242   3.117   4.405
  399TCM    cl1 2159   1.206   3.266   4.311
  399TCM    cl2 2160   1.218   3.149   4.580
  399TCM     h1 2161   1.176   3.036   4.372
  399TCM    cl3 2162   1.413   3.071   4.377
  400TCM     c1 2163   1.133   2.099   2.212
  400TCM    cl1 2164   1.110   2.126   2.036
  400TCM    cl2 2165   0.975   2.066   2.290
  400TCM     h1 2166   1.199   2.013   2.226
  400TCM    cl3 2167   1.208   2.244   2.286
  401TCM     c1 2168   0.977   1.067   0.485
  401TCM    cl1 2169   0.983   1.246   0.476
  401TCM    cl2 2170   0.890   1.017   0.633
  401TCM     h1 2171   0.926   1.027   0.397
  401TCM    cl3 2172   1.144   1.001   0.491
  402TCM     c1 2173   4.924   0.294   3.077
  402TCM    cl1 2174   4.788   0.329   3.188
  402TCM    cl2 2175   4.863   0.201   2.937
  402TCM     h1 2176   4.969   0.388   3.043
  402TCM    cl3 2177   0.047   0.197   3.165
  403TCM     c1 2178   2.627   3.675   0.286
  403TCM    cl1 2179   2.514   3.776   0.189
  403TCM    cl2 2180   2.627   3.507   0.226
  403TCM     h1 2181   2.728   3.717   0.280
  403TCM    cl3 2182   2.572   3.675   0.457
  404TCM     c1 2183   0.070   1.772   0.759
  404TCM    cl1 2184   0.215   1.832   0.671
  404TCM    cl2 2185   4.948   1.715   0.641
  404TCM     h1 2186   0.099   1.690   0.825
  404TCM    cl3 2187   0.001   1.907   0.856
  405TCM     c1 2188   4.746   2.415   0.612
  405TCM    cl1 2189   4.835   2.349   0.753
  405TCM    cl2 2190   4.592   2.324   0.592
  405TCM     h1 2191   4.723   2.521   0.629
  405TCM    cl3 2192   4.846   2.398   0.465
  406TCM     c1 2193   3.119   4.371   4.079
  406TCM    cl1 2194   3.030   4.505   4.000
  406TCM    cl2 2195   3.295   4.389   4.049
  406TCM     h1 2196   3.100   4.374   4.187
  406TCM    cl3 2197   3.062   4.215   4.011
  407TCM     c1 2198   0.170   3.157   3.428
  407TCM    cl1 2199   0.205   2.981   3.415
  407TCM    cl2 2200   0.135   3.222   3.264
  407TCM     h1 2201   0.084   3.172   3.493
  407TCM    cl3 2202   0.313   3.241   3.497
  408TCM     c1 2203   2.728   0.327   1.862
  408TCM    cl1 2204   2.777   0.209   1.736
  408TCM    cl2 2205   2.595   0.429   1.799
  408TCM     h1 2206   2.695   0.274   1.952
  408TCM    cl3 2207   2.869   0.431   1.902
  409TCM     c1 2208   4.586   4.913   4.137
  409TCM    cl1 2209   4.557   4.758   4.223
  409TCM    cl2 2210   4.449   4.946   4.026
  409TCM     h1 2211   4.596   4.994   4.209
  409TCM    cl3 2212   4.737   4.899   4.041
  410TCM     c1 2213   3.841   0.754   1.961
  410TCM    cl1 2214   3.748   0.907   1.949
  410TCM    cl2 2215   3.759   0.627   1.864
  410TCM     h1 2216   3.942   0.769   1.923
  410TCM    cl3 2217   3.847   0.702   2.132
  411TCM     c1 2218   2.191   4.513   2.200
  411TCM    cl1 2219   2.224   4.388   2.325
  411TCM    cl2 2220   2.334   4.531   2.093
  411TCM     h1 2221   2.105   4.483   2.141
  411TCM    cl3 2222   2.157   4.670   2.280
  412TCM     c1 2223   2.069   2.522   0.603
  412TCM    cl1 2224   2.147   2.644   0.707
  412TCM    cl2 2225   1.900   2.495   0.659
  412TCM     h1 2226   2.067   2.557   0.499
  412TCM    cl3 2227   2.161   2.368   0.612
  413TCM     c1 2228   2.037   4.362   0.226
  413TCM    cl1 2229   2.175   4.313   0.331
  413TCM    cl2 2230   2.040   4.265   0.075
  413TCM     h1 2231   1.943   4.344   0.279
  413TCM    cl3 2232   2.052   4.536   0.187
  414TCM     c1 2233   3.348   0.885   2.168
  414TCM    cl1 2234   3.503   0.810   2.216
  414TCM    cl2 2235   3.338   1.050   2.238
  414TCM     h1 2236   3.341   0.891   2.059
  414TCM    cl3 2237   3.212   0.786   2.232
  415TCM     c1 2238   3.301   3.832   0.905
  415TCM    cl1 2239   3.393   3.686   0.857
  415TCM    cl2 2240   3.370   3.897   1.057
  415TCM     h1 2241   3.307   3.907   0.826
  415TCM    cl3 2242   3.129   3.788   0.933
  416TCM     c1 2243   1.258   4.109   1.844
  416TCM    cl1 2244   1.259   4.261   1.747
  416TCM    cl2 2245   1.424   4.072   1.899
  416TCM     h1 2246   1.192   4.122   1.930
  416TCM    cl3 2247   1.198   3.975   1.741
  417TCM     c1 2248   4.767   2.605   2.834
  417TCM    cl1 2249   4.846   2.733   2.736
  417TCM    cl2 2250   4.640   2.527   2.735
  417TCM     h1 2251   4.841   2.530   2.864
  417TCM    cl3 2252   4.691   2.678   2.979
  418TCM     c1 2253   1.332   1.014   2.190
  418TCM    cl1 2254   1.322   0.841   2.235
  418TCM    cl2 2255   1.225   1.045   2.049
  418TCM     h1 2256   1.300   1.076   2.274
  418TCM    cl3 2257   1.501   1.055   2.146
  419TCM     c1 2258   0.920   4.084   0.083
  419TCM    cl1 2259   0.958   4.011   4.923
  419TCM    cl2 2260   0.906   3.954   0.205
  419TCM     h1 2261   0.999   4.154   0.112
  419TCM    cl3 2262   0.764   4.172   0.072
  420TCM     c1 2263   3.060   2.638   0.720
  420TCM    cl1 2264   3.174   2.626   0.582
  420TCM    cl2 2265   3.123   2.756   0.840
  420TCM     h1 2266   2.962   2.672   0.683
  420TCM    cl3 2267   3.041   2.478   0.798
  421TCM     c1 2268   0.481   1.934   2.428
  421TCM    cl1 2269   0.326   1.924   2.338
  421TCM    cl2 2270   0.467   2.059   2.557
  421TCM     h1 2271   0.503   1.837   2.473
  421TCM    cl3 2272   0.612   1.981   2.315
  422TCM     c1 2273   2.463   0.455   4.632
  422TCM    cl1 2274   2.563   0.470   4.780
  422TCM    cl2 2275   2.478   0.605   4.536
  422TCM     h1 2276   2.497   0.369   4.573
  422TCM    cl3 2277   2.291   0.430   4.678
  423TCM     c1 2278   0.177   4.156   3.920
  423TCM    cl1 2279   0.348   4.106   3.909
  423TCM    cl2 2280   0.156   4.267   4.060
  423TCM     h1 2281   0.147   4.207   3.828
  423TCM    cl3 2282   0.074   4.011   3.943
  424TCM     c1 2283   4.924   3.750   1.428
  424TCM    cl1 2284   4.937   3.625   1.556
  424TCM    cl2 2285   0.053   3.725   1.307
  424TCM     h1 2286   4.826   3.742   1.380
  424TCM    cl3 2287   4.942   3.913   1.500
  425TCM     c1 2288   2.489   2.156   0.370
  425TCM    cl1 2289   2.340   2.233   0.307
  425TCM    cl2 2290   2.492   2.171   0.549
  425TCM     h1 2291   2.489   2.050   0.343
  425TCM    cl3 2292   2.633   2.237   0.301
  426TCM     c1 2293   0.066   4.883   3.334
  426TCM    cl1 2294   0.230   4.877   3.260
  426TCM    cl2 2295   0.075   4.973   3.488
  426TCM     h1 2296   4.997   4.933   3.266
  426TCM    cl3 2297   0.008   4.716   3.365
  427TCM     c1 2298   3.387   2.446   1.797
  427TCM    cl1 2299   3.330   2.550   1.662
  427TCM    cl2 2300   3.314   2.502   1.951
  427TCM     h1 2301   3.357   2.343   1.778
  427TCM    cl3 2302   3.565   2.457   1.809
  428TCM     c1 2303   3.893   0.851   4.943
  428TCM    cl1 2304   3.913   1.015   0.012
  428TCM    cl2 2305   4.052   0.792   4.884
  428TCM     h1 2306   3.855   0.783   0.020
  428TCM    cl3 2307   3.777   0.857   4.805
  429TCM     c1 2308   0.909   2.013   4.552
  429TCM    cl1 2309   1.003   1.907   4.662
  429TCM    cl2 2310   0.794   2.112   4.648
  429TCM     h1 2311   0.977   2.078   4.497
  429TCM    cl3 2312   0.816   1.911   4.436
  430TCM     c1 2313   0.397   0.162   2.029
  430TCM    cl1 2314   0.284   0.234   1.909
  430TCM    cl2 2315   0.416   4.987   1.997
  430TCM     h1 2316   0.494   0.211   2.020
  430TCM    cl3 2317   0.332   0.188   2.194
  431TCM     c1 2318   3.491   4.858   0.867
  431TCM    cl1 2319   3.623   4.979   0.879
  431TCM    cl2 2320   3.333   4.941   0.884
  431TCM     h1 2321   3.497   4.808   0.770
  431TCM    cl3 2322   3.509   4.738   0.999
  432TCM     c1 2323   3.282   1.808   3.772
  432TCM    cl1 2324   3.283   1.809   3.592
  432TCM    cl2 2325   3.449   1.781   3.832
  432TCM     h1 2326   3.244   1.903   3.809
  432TCM    cl3 2327   3.176   1.674   3.828
  433TCM     c1 2328   3.723   2.855   3.297
  433TCM    cl1 2329   3.863   2.956   3.347
  433TCM    cl2 2330   3.782   2.693   3.247
  433TCM     h1 2331   3.654   2.845   3.380
  433TCM    cl3 2332   3.640   2.934   3.159
  434TCM     c1 2333   3.020   4.230   1.628
  434TCM    cl1 2334   2.938   4.386   1.662
  434TCM    cl2 2335   3.053   4.217   1.452
  434TCM     h1 2336   3.113   4.224   1.684
  434TCM    cl3 2337   2.913   4.094   1.675
  435TCM     c1 2338   0.227   1.094   4.054
  435TCM    cl1 2339   0.147   1.084   4.214
  435TCM    cl2 2340   0.101   1.084   3.925
  435TCM     h1 2341   0.280   1.189   4.045
  435TCM    cl3 2342   0.342   0.958   4.037
  436TCM     c1 2343   0.288   1.698   1.606
  436TCM    cl1 2344   0.395   1.834   1.559
  436TCM    cl2 2345   0.366   1.604   1.737
  436TCM     h1 2346   0.192   1.737   1.640
  436TCM    cl3 2347   0.262   1.592   1.463
  437TCM     c1 2348   4.628   2.643   1.200
  437TCM    cl1 2349   4.780   2.631   1.107
  437TCM    cl2 2350   4.520   2.763   1.122
  437TCM     h1 2351   4.579   2.545   1.202
  437TCM    cl3 2352   4.664   2.695   1.368
  438TCM     c1 2353   0.520   3.320   4.754
  438TCM    cl1 2354   0.475   3.199   4.630
  438TCM    cl2 2355   0.454   3.481   4.708
  438TCM     h1 2356   0.479   3.290   4.851
  438TCM    cl3 2357   0.699   3.330   4.766
  439TCM     c1 2358   3.204   0.945   1.437
  439TCM    cl1 2359   3.351   0.985   1.342
  439TCM    cl2 2360   3.206   1.040   1.589
  439TCM     h1 2361   3.114   0.971   1.379
  439TCM    cl3 2362   3.203   0.770   1.474
  440TCM     c1 2363   3.415   1.549   4.543
  440TCM    cl1 2364   3.317   1.696   4.510
  440TCM    cl2 2365   3.429   1.527   4.721
  440TCM     h1 2366   3.367   1.462   4.499
  440TCM    cl3 2367   3.579   1.571   4.474
  441TCM     c1 2368   0.437   3.750   4.206
  441TCM    cl1 2369   0.274   3.799   4.151
  441TCM    cl2 2370   0.561   3.840   4.112
  441TCM     h1 2371   0.448   3.773   4.313
  441TCM    cl3 2372   0.458   3.573   4.181
  442TCM     c1 2373   3.106   3.080   0.268
  442TCM    cl1 2374   3.231   3.025   0.152
  442TCM    cl2 2375   2.998   2.943   0.308
  442TCM     h1 2376   3.155   3.117   0.359
  442TCM    cl3 2377   3.010   3.213   0.194
  443TCM     c1 2378   0.604   2.213   1.371
  443TCM    cl1 2379   0.664   2.058   1.439
  443TCM    cl2 2380   0.538   2.185   1.207
  443TCM     h1 2381   0.526   2.254   1.436
  443TCM    cl3 2382   0.741   2.329   1.360
  444TCM     c1 2383   4.209   0.037   0.194
  444TCM    cl1 2384   4.114   4.973   0.332
  444TCM    cl2 2385   4.192   0.215   0.186
  444TCM     h1 2386   4.315   0.011   0.208
  444TCM    cl3 2387   4.148   4.965   0.041
  445TCM     c1 2388   4.345   1.016   4.998
  445TCM    cl1 2389   4.283   1.157   4.906
  445TCM    cl2 2390   4.288   1.026   0.168
  445TCM     h1 2391   4.307   0.924   4.953
  445TCM    cl3 2392   4.524   1.016   4.994
  446TCM     c1 2393   2.834   0.599   3.262
  446TCM    cl1 2394   2.683   0.695   3.246
  446TCM    cl2 2395   2.974   0.711   3.274
  446TCM     h1 2396   2.828   0.538   3.352
  446TCM    cl3 2397   2.854   0.494   3.118
  447TCM     c1 2398   3.950   1.283   4.755
  447TCM    cl1 2399   4.068   1.411   4.712
  447TCM    cl2 2400   3.994   1.131   4.669
  447TCM     h1 2401   3.953   1.266   4.863
  447TCM    cl3 2402   3.785   1.333   4.706
  448TCM     c1 2403   4.677   1.752   3.381
  448TCM    cl1 2404   4.581   1.675   3.250
  448TCM    cl2 2405   4.704   1.925   3.341
  448TCM     h1 2406   4.623   1.744   3.476
  448TCM    cl3 2407   4.835   1.669   3.396
  449TCM     c1 2408   4.695   4.738   3.653
  449TCM    cl1 2409   4.673   4.644   3.502
  449TCM    cl2 2410   4.868   4.739   3.699
  449TCM     h1 2411   4.661   4.841   3.637
  449TCM    cl3 2412   4.600   4.663   3.786
  450TCM     c1 2413   3.061   0.455   3.604
  450TCM    cl1 2414   2.945   0.590   3.623
  450TCM    cl2 2415   3.027   0.369   3.449
  450TCM     h1 2416   3.163   0.494   3.602
  450TCM    cl3 2417   3.042   0.340   3.740
  451TCM     c1 2418   3.258   3.743   1.367
  451TCM    cl1 2419   3.134   3.636   1.440
  451TCM    cl2 2420   3.416   3.657   1.368
  451TCM     h1 2421   3.229   3.767   1.265
  451TCM    cl3 2422   3.272   3.894   1.463
  452TCM     c1 2423   0.438   4.867   1.028
  452TCM    cl1 2424   0.580   4.806   1.118
  452TCM    cl2 2425   0.321   4.733   1.001
  452TCM     h1 2426   0.389   4.946   1.086
  452TCM    cl3 2427   0.491   4.933   0.870
  453TCM     c1 2428   2.059   3.824   3.568
  453TCM    cl1 2429   2.183   3.940   3.625
  453TCM    cl2 2430   2.116   3.741   3.419
  453TCM     h1 2431   2.040   3.749   3.646
  453TCM    cl3 2432   1.907   3.912   3.530
  454TCM     c1 2433   4.426   3.705   0.859
  454TCM    cl1 2434   4.282   3.726   0.964
  454TCM    cl2 2435   4.508   3.550   0.897
  454TCM     h1 2436   4.394   3.705   0.754
  454TCM    cl3 2437   4.539   3.842   0.885
  455TCM     c1 2438   2.981   4.036   4.372
  455TCM    cl1 2439   2.987   3.946   4.527
  455TCM    cl2 2440   3.041   3.929   4.240
  455TCM     h1 2441   2.878   4.066   4.350
  455TCM    cl3 2442   3.087   4.180   4.385
  456TCM     c1 2443   1.582   1.952   4.866
  456TCM    cl1 2444   1.406   1.917   4.856
  456TCM    cl2 2445   1.645   1.989   4.702
  456TCM     h1 2446   1.598   2.038   4.932
  456TCM    cl3 2447   1.668   1.809   4.932
  457TCM     c1 2448   1.395   3.284   1.650
  457TCM    cl1 2449   1.491   3.259   1.500
  457TCM    cl2 2450   1.502   3.355   1.775
  457TCM     h1 2451   1.312   3.351   1.630
  457TCM    cl3 2452   1.332   3.126   1.707
  458TCM     c1 2453   1.886   4.651   1.426
  458TCM    cl1 2454   1.776   4.584   1.551
  458TCM    cl2 2455   1.954   4.807   1.484
  458TCM     h1 2456   1.967   4.580   1.406
  458TCM    cl3 2457   1.794   4.679   1.274
  459TCM     c1 2458   3.853   4.037   3.536
  459TCM    cl1 2459   3.884   4.175   3.426
  459TCM    cl2 2460   3.817   4.100   3.700
  459TCM     h1 2461   3.769   3.978   3.499
  459TCM    cl3 2462   4.000   3.934   3.543
  460TCM     c1 2463   0.375   0.831   3.449
  460TCM    cl1 2464   0.417   0.859   3.277
  460TCM    cl2 2465   0.365   0.655   3.480
  460TCM     h1 2466   0.452   0.875   3.514
  460TCM    cl3 2467   0.216   0.908   3.482
  461TCM     c1 2468   1.368   4.242   0.294
  461TCM    cl1 2469   1.493   4.188   0.411
  461TCM    cl2 2470   1.374   4.421   0.278
  461TCM     h1 2471   1.386   4.196   0.197
  461TCM    cl3 2472   1.206   4.193   0.355
  462TCM     c1 2473   2.960   0.050   0.042
  462TCM    cl1 2474   2.966   4.980   0.206
  462TCM    cl2 2475   2.888   4.932   4.928
  462TCM     h1 2476   2.900   0.141   0.043
  462TCM    cl3 2477   3.127   0.091   4.989
  463TCM     c1 2478   3.466   0.876   3.050
  463TCM    cl1 2479   3.557   0.898   2.897
  463TCM    cl2 2480   3.571   0.797   3.171
  463TCM     h1 2481   3.433   0.974   3.087
  463TCM    cl3 2482   3.322   0.773   3.020
  464TCM     c1 2483   4.753   4.330   3.798
  464TCM    cl1 2484   4.692   4.305   3.632
  464TCM    cl2 2485   4.922   4.390   3.791
  464TCM     h1 2486   4.691   4.403   3.850
  464TCM    cl3 2487   4.750   4.174   3.886
  465TCM     c1 2488   4.050   1.579   0.133
  465TCM    cl1 2489   4.017   1.675   4.985
  465TCM    cl2 2490   4.028   1.405   0.097
  465TCM     h1 2491   4.152   1.597   0.166
  465TCM    cl3 2492   3.935   1.629   0.262
  466TCM     c1 2493   0.326   0.426   2.583
  466TCM    cl1 2494   0.481   0.378   2.657
  466TCM    cl2 2495   0.358   0.509   2.427
  466TCM     h1 2496   0.265   0.337   2.565
  466TCM    cl3 2497   0.240   0.536   2.695
  467TCM     c1 2498   0.513   1.605   2.103
  467TCM    cl1 2499   0.507   1.601   2.283
  467TCM    cl2 2500   0.664   1.529   2.046
  467TCM     h1 2501   0.427   1.551   2.063
  467TCM    cl3 2502   0.506   1.775   2.046
  468TCM     c1 2503   3.567   2.157   1.489
  468TCM    cl1 2504   3.536   2.094   1.324
  468TCM    cl2 2505   3.420   2.139   1.590
  468TCM     h1 2506   3.650   2.101   1.534
  468TCM    cl3 2507   3.612   2.330   1.479
  469TCM     c1 2508   2.490   0.800   4.102
  469TCM    cl1 2509   2.480   0.705   3.950
  469TCM    cl2 2510   2.354   0.751   4.209
  469TCM     h1 2511   2.585   0.781   4.152
  469TCM    cl3 2512   2.476   0.975   4.064
  470TCM     c1 2513   4.264   2.438   4.853
  470TCM    cl1 2514   4.332   2.561   4.965
  470TCM    cl2 2515   4.155   2.328   4.943
  470TCM     h1 2516   4.208   2.487   4.773
  470TCM    cl3 2517   4.398   2.343   4.780
  471TCM     c1 2518   3.703   0.571   2.750
  471TCM    cl1 2519   3.537   0.531   2.807
  471TCM    cl2 2520   3.706   0.580   2.571
  471TCM     h1 2521   3.733   0.668   2.792
  471TCM    cl3 2522   3.816   0.443   2.805
  472TCM     c1 2523   2.567   1.869   2.997
  472TCM    cl1 2524   2.560   2.016   3.099
  472TCM    cl2 2525   2.470   1.894   2.848
  472TCM     h1 2526   2.671   1.850   2.969
  472TCM    cl3 2527   2.502   1.730   3.088
  473TCM     c1 2528   3.555   1.240   1.507
  473TCM    cl1 2529   3.707   1.320   1.455
  473TCM    cl2 2530   3.465   1.348   1.619
  473TCM     h1 2531   3.493   1.219   1.419
  473TCM    cl3 2532   3.593   1.086   1.591
  474TCM     c1 2533   0.385   2.969   1.424
  474TCM    cl1 2534   0.467   2.882   1.558
  474TCM    cl2 2535   0.388   2.868   1.276
  474TCM     h1 2536   0.281   2.990   1.452
  474TCM    cl3 2537   0.471   3.124   1.393
  475TCM     c1 2538   2.280   3.344   4.400
  475TCM    cl1 2539   2.365   3.241   4.521
  475TCM    cl2 2540   2.174   3.460   4.486
  475TCM     h1 2541   2.353   3.398   4.340
  475TCM    cl3 2542   2.181   3.239   4.294
  476TCM     c1 2543   1.357   1.351   1.892
  476TCM    cl1 2544   1.361   1.402   2.064
  476TCM    cl2 2545   1.493   1.427   1.803
  476TCM     h1 2546   1.365   1.243   1.885
  476TCM    cl3 2547   1.202   1.405   1.818
  477TCM     c1 2548   4.228   2.269   0.427
  477TCM    cl1 2549   4.305   2.321   0.273
  477TCM    cl2 2550   4.296   2.110   0.476
  477TCM     h1 2551   4.249   2.343   0.504
  477TCM    cl3 2552   4.051   2.254   0.403
  478TCM     c1 2553   2.895   4.430   3.476
  478TCM    cl1 2554   2.723   4.381   3.476
  478TCM    cl2 2555   2.997   4.291   3.427
  478TCM     h1 2556   2.909   4.512   3.404
  478TCM    cl3 2557   2.942   4.484   3.640
  479TCM     c1 2558   4.768   3.576   0.059
  479TCM    cl1 2559   4.680   3.442   4.979
  479TCM    cl2 2560   4.652   3.705   0.105
  479TCM     h1 2561   4.818   3.539   0.149
  479TCM    cl3 2562   4.890   3.643   4.946
  480TCM     c1 2563   0.868   2.245   3.090
  480TCM    cl1 2564   0.730   2.308   3.185
  480TCM    cl2 2565   0.811   2.112   2.983
  480TCM     h1 2566   0.910   2.326   3.029
  480TCM    cl3 2567   0.994   2.183   3.201
  481TCM     c1 2568   2.328   2.684   1.186
  481TCM    cl1 2569   2.321   2.714   1.009
  481TCM    cl2 2570   2.273   2.517   1.221
  481TCM     h1 2571   2.431   2.698   1.222
  481TCM    cl3 2572   2.220   2.801   1.268
  482TCM     c1 2573   4.758   3.447   3.352
  482TCM    cl1 2574   4.797   3.408   3.181
  482TCM    cl2 2575   4.602   3.372   3.396
  482TCM     h1 2576   4.837   3.409   3.417
  482TCM    cl3 2577   4.745   3.625   3.370
  483TCM     c1 2578   2.334   4.791   3.016
  483TCM    cl1 2579   2.322   4.624   2.950
  483TCM    cl2 2580   2.201   4.817   3.134
  483TCM     h1 2581   2.430   4.805   3.065
  483TCM    cl3 2582   2.317   4.909   2.881
  484TCM     c1 2583   4.875   2.703   3.990
  484TCM    cl1 2584   4.941   2.859   4.051
  484TCM    cl2 2585   4.707   2.729   3.935
  484TCM     h1 2586   4.937   2.668   3.907
  484TCM    cl3 2587   4.876   2.582   4.122
  485TCM     c1 2588   2.254   1.849   3.380
  485TCM    cl1 2589   2.188   1.705   3.296
  485TCM    cl2 2590   2.245   1.991   3.271
  485TCM     h1 2591   2.196   1.868   3.471
  485TCM    cl3 2592   2.426   1.819   3.425
  486TCM     c1 2593   1.832   0.527   3.754
  486TCM    cl1 2594   1.732   0.467   3.890
  486TCM    cl2 2595   1.847   0.705   3.768
  486TCM     h1 2596   1.931   0.481   3.757
  486TCM    cl3 2597   1.752   0.488   3.599
  487TCM     c1 2598   0.767   4.913   0.399
  487TCM    cl1 2599   0.709   4.917   0.569
  487TCM    cl2 2600   0.715   0.063   0.315
  487TCM     h1 2601   0.876   4.907   0.398
  487TCM    cl3 2602   0.696   4.771   0.315
  488TCM     c1 2603   4.091   1.061   3.492
  488TCM    cl1 2604   4.039   1.185   3.373
  488TCM    cl2 2605   4.131   1.140   3.648
  488TCM     h1 2606   4.011   0.988   3.507
  488TCM    cl3 2607   4.237   0.977   3.429
  489TCM     c1 2608   3.111   4.705   3.180
  489TCM    cl1 2609   3.280   4.766   3.192
  489TCM    cl2 2610   3.025   4.738   3.334
  489TCM     h1 2611   3.060   4.756   3.098
  489TCM    cl3 2612   3.114   4.529   3.150
  490TCM     c1 2613   2.089   2.093   2.949
  490TCM    cl1 2614   2.075   1.989   2.803
  490TCM    cl2 2615   1.964   2.222   2.943
  490TCM     h1 2616   2.074   2.032   3.038
  490TCM    cl3 2617   2.251   2.169   2.953
  491TCM     c1 2618   1.135   0.470   0.027
  491TCM    cl1 2619   1.073   0.624   4.959
  491TCM    cl2 2620   1.207   0.371   4.895
  491TCM     h1 2621   1.210   0.490   0.103
  491TCM    cl3 2622   0.998   0.379   0.100
  492TCM     c1 2623   2.139   4.165   4.067
  492TCM    cl1 2624   2.039   4.313   4.073
  492TCM    cl2 2625   2.149   4.093   4.231
  492TCM     h1 2626   2.094   4.093   3.998
  492TCM    cl3 2627   2.304   4.206   4.009
  493TCM     c1 2628   0.689   3.707   0.013
  493TCM    cl1 2629   0.700   3.732   4.836
  493TCM    cl2 2630   0.623   3.544   0.048
  493TCM     h1 2631   0.788   3.717   0.058
  493TCM    cl3 2632   0.578   3.829   0.083
  494TCM     c1 2633   4.972   2.830   1.708
  494TCM    cl1 2634   4.822   2.894   1.632
  494TCM    cl2 2635   0.026   2.943   1.836
  494TCM     h1 2636   4.952   2.732   1.751
  494TCM    cl3 2637   0.100   2.816   1.584
  495TCM     c1 2638   3.177   0.976   3.405
  495TCM    cl1 2639   3.241   1.105   3.511
  495TCM    cl2 2640   3.287   0.835   3.411
  495TCM     h1 2641   3.077   0.947   3.438
  495TCM    cl3 2642   3.168   1.038   3.236
  496TCM     c1 2643   0.081   1.422   1.844
  496TCM    cl1 2644   4.982   1.354   1.978
  496TCM    cl2 2645   4.991   1.555   1.764
  496TCM     h1 2646   0.175   1.460   1.885
  496TCM    cl3 2647   0.116   1.293   1.725
  497TCM     c1 2648   1.346   4.633   1.211
  497TCM    cl1 2649   1.239   4.524   1.117
  497TCM    cl2 2650   1.442   4.536   1.328
  497TCM     h1 2651   1.414   4.685   1.143
  497TCM    cl3 2652   1.247   4.752   1.300
  498TCM     c1 2653   2.513   2.940   3.644
  498TCM    cl1 2654   2.648   2.938   3.761
  498TCM    cl2 2655   2.517   3.094   3.551
  498TCM     h1 2656   2.524   2.856   3.575
  498TCM    cl3 2657   2.356   2.926   3.730
  499TCM     c1 2658   0.017   3.107   1.268
  499TCM    cl1 2659   0.172   3.171   1.205
  499TCM    cl2 2660   0.003   3.152   1.441
  499TCM     h1 2661   4.935   3.151   1.212
  499TCM    cl3 2662   0.013   2.929   1.250
  500TCM     c1 2663   1.690   4.927   0.039
  500TCM    cl1 2664   1.675   4.946   4.861
  500TCM    cl2 2665   1.727   0.086   0.114
  500TCM     h1 2666   1.596   4.889   0.080
  500TCM    cl3 2667   1.822   4.812   0.074
  501TCM     c1 2668   0.667   1.767   2.888
  501TCM    cl1 2669   0.616   1.758   2.716
  501TCM    cl2 2670   0.826   1.686   2.906
  501TCM     h1 2671   0.675   1.871   2.919
  501TCM    cl3 2672   0.546   1.682   2.989
  502TCM     c1 2673   2.495   3.548   2.266
  502TCM    cl1 2674   2.486   3.371   2.239
  502TCM    cl2 2675   2.549   3.581   2.434
  502TCM     h1 2676   2.567   3.592   2.196
  502TCM    cl3 2677   2.333   3.620   2.240
  503TCM     c1 2678   1.302   0.395   2.682
  503TCM    cl1 2679   1.200   0.538   2.718
  503TCM    cl2 2680   1.334   0.305   2.834
  503TCM     h1 2681   1.251   0.330   2.611
  503TCM    cl3 2682   1.458   0.450   2.612
  504TCM     c1 2683   4.686   0.052   2.660
  504TCM    cl1 2684   4.731   4.898   2.741
  504TCM    cl2 2685   4.532   0.113   2.729
  504TCM     h1 2686   4.765   0.126   2.676
  504TCM    cl3 2687   4.665   0.023   2.484
  505TCM     c1 2688   2.379   3.826   2.981
  505TCM    cl1 2689   2.232   3.874   3.072
  505TCM    cl2 2690   2.517   3.928   3.033
  505TCM     h1 2691   2.402   3.721   3.000
  505TCM    cl3 2692   2.351   3.852   2.806
  506TCM     c1 2693   0.058   4.714   4.862
  506TCM    cl1 2694   4.879   4.708   4.873
  506TCM    cl2 2695   0.113   4.625   4.716
  506TCM     h1 2696   0.090   4.818   4.855
  506TCM    cl3 2697   0.130   4.640   0.009
  507TCM     c1 2698   1.273   3.799   0.005
  507TCM    cl1 2699   1.133   3.702   0.061
  507TCM    cl2 2700   1.425   3.707   0.031
  507TCM     h1 2701   1.262   3.821   4.898
  507TCM    cl3 2702   1.279   3.952   0.098
  508TCM     c1 2703   0.221   1.803   3.234
  508TCM    cl1 2704   0.252   1.868   3.070
  508TCM    cl2 2705   0.164   1.634   3.221
  508TCM     h1 2706   0.313   1.806   3.293
  508TCM    cl3 2707   0.095   1.903   3.314
  509TCM     c1 2708   4.436   0.273   4.753
  509TCM    cl1 2709   4.483   0.314   4.921
  509TCM    cl2 2710   4.393   0.424   4.665
  509TCM     h1 2711   4.519   0.224   4.703
  509TCM    cl3 2712   4.294   0.163   4.756
  510TCM     c1 2713   4.233   2.292   2.185
  510TCM    cl1 2714   4.076   2.221   2.235
  510TCM    cl2 2715   4.359   2.163   2.187
  510TCM     h1 2716   4.224   2.333   2.085
  510TCM    cl3 2717   4.279   2.421   2.301
  511TCM     c1 2718   3.261   4.538   1.527
  511TCM    cl1 2719   3.346   4.411   1.433
  511TCM    cl2 2720   3.333   4.697   1.489
  511TCM     h1 2721   3.155   4.538   1.501
  511TCM    cl3 2722   3.280   4.505   1.702
  512TCM     c1 2723   0.029   4.892   0.530
  512TCM    cl1 2724   0.135   4.865   0.673
  512TCM    cl2 2725   4.866   4.826   0.564
  512TCM     h1 2726   0.022   4.999   0.510
  512TCM    cl3 2727   0.098   4.807   0.388
  513TCM     c1 2728   3.737   4.852   0.178
  513TCM    cl1 2729   3.826   4.746   0.292
  513TCM    cl2 2730   3.803   4.832   0.013
  513TCM     h1 2731   3.631   4.826   0.179
  513TCM    cl3 2732   3.756   0.024   0.229
  514TCM     c1 2733   0.730   0.103   2.283
  514TCM    cl1 2734   0.670   0.258   2.350
  514TCM    cl2 2735   0.756   0.120   2.107
  514TCM     h1 2736   0.824   0.076   2.332
  514TCM    cl3 2737   0.609   4.974   2.312
  515TCM     c1 2738   2.771   4.862   4.086
  515TCM    cl1 2739   2.741   4.742   3.956
  515TCM    cl2 2740   2.903   4.802   4.191
  515TCM     h1 2741   2.799   4.958   4.043
  515TCM    cl3 2742   2.622   4.880   4.184
  516TCM     c1 2743   4.119   4.141   1.614
  516TCM    cl1 2744   4.205   4.148   1.457
  516TCM    cl2 2745   3.970   4.242   1.607
  516TCM     h1 2746   4.091   4.038   1.636
  516TCM    cl3 2747   4.226   4.203   1.744
  517TCM     c1 2748   2.928   3.576   4.911
  517TCM    cl1 2749   2.963   3.564   0.087
  517TCM    cl2 2750   2.966   3.419   4.833
  517TCM     h1 2751   2.823   3.600   4.896
  517TCM    cl3 2752   3.031   3.704   4.838
  518TCM     c1 2753   2.585   0.276   4.213
  518TCM    cl1 2754   2.599   0.201   4.376
  518TCM    cl2 2755   2.722   0.223   4.109
  518TCM     h1 2756   2.491   0.245   4.167
  518TCM    cl3 2757   2.590   0.454   4.228
  519TCM     c1 2758   3.228   3.219   1.621
  519TCM    cl1 2759   3.288   3.289   1.467
  519TCM    cl2 2760   3.349   3.248   1.750
  519TCM     h1 2761   3.134   3.266   1.648
  519TCM    cl3 2762   3.202   3.042   1.602
  520TCM     c1 2763   4.791   2.959   3.231
  520TCM    cl1 2764   4.828   3.032   3.071
  520TCM    cl2 2765   4.816   3.081   3.360
  520TCM     h1 2766   4.687   2.926   3.232
  520TCM    cl3 2767   4.899   2.819   3.259
  521TCM     c1 2768   1.317   3.195   2.909
  521TCM    cl1 2769   1.492   3.170   2.878
  521TCM    cl2 2770   1.296   3.274   3.069
  521TCM     h1 2771   1.275   3.258   2.831
  521TCM    cl3 2772   1.234   3.036   2.910
  522TCM     c1 2773   2.548   3.949   1.687
  522TCM    cl1 2774   2.471   3.826   1.581
  522TCM    cl2 2775   2.442   3.980   1.828
  522TCM     h1 2776   2.645   3.913   1.720
  522TCM    cl3 2777   2.569   4.100   1.593
  523TCM     c1 2778   4.973   1.247   2.753
  523TCM    cl1 2779   4.899   1.350   2.626
  523TCM    cl2 2780   0.112   1.157   2.684
  523TCM     h1 2781   0.007   1.310   2.835
  523TCM    cl3 2782   4.850   1.131   2.813
  524TCM     c1 2783   4.259   3.220   2.734
  524TCM    cl1 2784   4.180   3.230   2.894
  524TCM    cl2 2785   4.434   3.259   2.751
  524TCM     h1 2786   4.248   3.119   2.693
  524TCM    cl3 2787   4.183   3.339   2.623
  525TCM     c1 2788   2.457   4.486   2.575
  525TCM    cl1 2789   2.559   4.480   2.427
  525TCM    cl2 2790   2.379   4.647   2.586
  525TCM     h1 2791   2.380   4.408   2.570
  525TCM    cl3 2792   2.560   4.458   2.719
  526TCM     c1 2793   2.767   3.197   2.384
  526TCM    cl1 2794   2.877   3.062   2.340
  526TCM    cl2 2795   2.843   3.353   2.337
  526TCM     h1 2796   2.672   3.186   2.332
  526TCM    cl3 2797   2.739   3.195   2.561
  527TCM     c1 2798   1.762   3.215   4.345
  527TCM    cl1 2799   1.828   3.274   4.188
  527TCM    cl2 2800   1.850   3.294   4.480
  527TCM     h1 2801   1.656   3.240   4.351
  527TCM    cl3 2802   1.783   3.038   4.356
  528TCM     c1 2803   4.747   1.782   0.258
  528TCM    cl1 2804   4.924   1.787   0.282
  528TCM    cl2 2805   4.682   1.628   0.323
  528TCM     h1 2806   4.700   1.867   0.310
  528TCM    cl3 2807   4.711   1.791   0.082
  529TCM     c1 2808   1.786   2.909   1.876
  529TCM    cl1 2809   1.878   2.999   2.002
  529TCM    cl2 2810   1.899   2.851   1.750
  529TCM     h1 2811   1.735   2.824   1.922
  529TCM    cl3 2812   1.664   3.019   1.802
  530TCM     c1 2813   1.768   0.308   4.728
  530TCM    cl1 2814   1.719   0.211   4.585
  530TCM    cl2 2815   1.910   0.232   4.807
  530TCM     h1 2816   1.794   0.409   4.695
  530TCM    cl3 2817   1.631   0.317   4.844
  531TCM     c1 2818   0.142   0.019   3.984
  531TCM    cl1 2819   0.070   0.021   4.148
  531TCM    cl2 2820   0.264   0.150   3.971
  531TCM     h1 2821   0.191   4.922   3.967
  531TCM    cl3 2822   0.014   0.044   3.860
  532TCM     c1 2823   1.540   4.218   1.501
  532TCM    cl1 2824   1.640   4.237   1.353
  532TCM    cl2 2825   1.633   4.273   1.644
  532TCM     h1 2826   1.449   4.278   1.492
  532TCM    cl3 2827   1.498   4.045   1.521
  533TCM     c1 2828   4.881   0.778   3.953
  533TCM    cl1 2829   4.934   0.729   4.117
  533TCM    cl2 2830   4.721   0.859   3.965
  533TCM     h1 2831   4.954   0.846   3.909
  533TCM    cl3 2832   4.865   0.633   3.848
  534TCM     c1 2833   2.006   2.976   0.019
  534TCM    cl1 2834   1.844   3.051   4.998
  534TCM    cl2 2835   2.049   2.977   0.193
  534TCM     h1 2836   2.004   2.873   4.983
  534TCM    cl3 2837   2.129   3.068   4.926
  535TCM     c1 2838   2.254   4.109   1.177
  535TCM    cl1 2839   2.077   4.121   1.149
  535TCM    cl2 2840   2.336   4.055   1.026
  535TCM     h1 2841   2.293   4.207   1.206
  535TCM    cl3 2842   2.285   3.991   1.308
  536TCM     c1 2843   1.443   0.737   3.789
  536TCM    cl1 2844   1.400   0.663   3.947
  536TCM    cl2 2845   1.509   0.901   3.819
  536TCM     h1 2846   1.518   0.675   3.739
  536TCM    cl3 2847   1.296   0.750   3.688
  537TCM     c1 2848   1.296   0.990   2.763
  537TCM    cl1 2849   1.363   0.877   2.641
  537TCM    cl2 2850   1.220   0.897   2.896
  537TCM     h1 2851   1.376   1.052   2.804
  537TCM    cl3 2852   1.173   1.096   2.686
  538TCM     c1 2853   1.603   2.959   3.268
  538TCM    cl1 2854   1.525   2.884   3.125
  538TCM    cl2 2855   1.581   3.137   3.261
  538TCM     h1 2856   1.557   2.920   3.359
  538TCM    cl3 2857   1.778   2.919   3.268
  539TCM     c1 2858   3.623   4.068   2.855
  539TCM    cl1 2859   3.461   4.014   2.910
  539TCM    cl2 2860   3.623   4.087   2.676
  539TCM     h1 2861   3.648   4.163   2.902
  539TCM    cl3 2862   3.745   3.944   2.900
  540TCM     c1 2863   2.529   4.757   0.311
  540TCM    cl1 2864   2.611   4.866   0.195
  540TCM    cl2 2865   2.358   4.737   0.261
  540TCM     h1 2866   2.578   4.660   0.311
  540TCM    cl3 2867   2.535   4.828   0.476
  541TCM     c1 2868   1.574   3.628   4.351
  541TCM    cl1 2869   1.753   3.633   4.355
  541TCM    cl2 2870   1.521   3.494   4.244
  541TCM     h1 2871   1.536   3.612   4.452
  541TCM    cl3 2872   1.512   3.784   4.288
  542TCM     c1 2873   1.917   2.436   1.056
  542TCM    cl1 2874   2.042   2.332   0.979
  542TCM    cl2 2875   1.958   2.608   1.028
  542TCM     h1 2876   1.820   2.414   1.012
  542TCM    cl3 2877   1.913   2.403   1.232
  543TCM     c1 2878   2.815   4.992   3.603
  543TCM    cl1 2879   2.981   0.026   3.546
  543TCM    cl2 2880   2.797   0.051   3.772
  543TCM     h1 2881   2.742   0.042   3.539
  543TCM    cl3 2882   2.787   4.815   3.600
  544TCM     c1 2883   1.619   0.643   2.117
  544TCM    cl1 2884   1.663   0.499   2.019
  544TCM    cl2 2885   1.738   0.774   2.085
  544TCM     h1 2886   1.519   0.677   2.090
  544TCM    cl3 2887   1.622   0.599   2.291
  545TCM     c1 2888   2.031   2.453   0.071
  545TCM    cl1 2889   2.032   2.428   0.248
  545TCM    cl2 2890   2.128   2.325   4.991
  545TCM     h1 2891   1.929   2.450   0.034
  545TCM    cl3 2892   2.103   2.614   0.034
  546TCM     c1 2893   3.479   2.272   4.301
  546TCM    cl1 2894   3.350   2.369   4.224
  546TCM    cl2 2895   3.558   2.369   4.431
  546TCM     h1 2896   3.436   2.181   4.344
  546TCM    cl3 2897   3.602   2.229   4.178
  547TCM     c1 2898   0.704   0.450   1.905
  547TCM    cl1 2899   0.649   0.313   1.804
  547TCM    cl2 2900   0.597   0.465   2.049
  547TCM     h1 2901   0.807   0.433   1.937
  547TCM    cl3 2902   0.696   0.602   1.809
  548TCM     c1 2903   0.024   2.743   3.610
  548TCM    cl1 2904   0.165   2.751   3.722
  548TCM    cl2 2905   4.915   2.881   3.646
  548TCM     h1 2906   0.059   2.749   3.507
  548TCM    cl3 2907   4.937   2.589   3.636
  549TCM     c1 2908   4.178   4.555   0.585
  549TCM    cl1 2909   4.260   4.459   0.714
  549TCM    cl2 2910   4.291   4.678   0.521
  549TCM     h1 2911   4.147   4.488   0.504
  549TCM    cl3 2912   4.034   4.637   0.653
  550TCM     c1 2913   0.022   4.002   0.841
  550TCM    cl1 2914   4.880   3.919   0.771
  550TCM    cl2 2915   4.978   4.171   0.882
  550TCM     h1 2916   0.054   3.950   0.932
  550TCM    cl3 2917   0.156   4.003   0.722
  551TCM     c1 2918   1.932   2.112   3.466
  551TCM    cl1 2919   1.945   2.198   3.310
  551TCM    cl2 2920   2.083   2.138   3.561
  551TCM     h1 2921   1.846   2.150   3.522
  551TCM    cl3 2922   1.911   1.936   3.436
  552TCM     c1 2923   0.295   3.966   1.191
  552TCM    cl1 2924   0.289   3.852   1.052
  552TCM    cl2 2925   0.144   4.064   1.193
  552TCM     h1 2926   0.303   3.910   1.284
  552TCM    cl3 2927   0.436   4.075   1.173
  553TCM     c1 2928   1.248   3.625   0.396
  553TCM    cl1 2929   1.313   3.487   0.301
  553TCM    cl2 2930   1.363   3.762   0.391
  553TCM     h1 2931   1.152   3.656   0.355
  553TCM    cl3 2932   1.226   3.573   0.566
  554TCM     c1 2933   2.893   1.418   2.198
  554TCM    cl1 2934   3.038   1.335   2.133
  554TCM    cl2 2935   2.943   1.529   2.331
  554TCM     h1 2936   2.846   1.476   2.119
  554TCM    cl3 2937   2.777   1.297   2.262
  555TCM     c1 2938   1.704   2.600   2.282
  555TCM    cl1 2939   1.811   2.483   2.366
  555TCM    cl2 2940   1.537   2.536   2.276
  555TCM     h1 2941   1.705   2.696   2.336
  555TCM    cl3 2942   1.765   2.625   2.115
  556TCM     c1 2943   3.062   4.657   1.959
  556TCM    cl1 2944   2.904   4.699   1.885
  556TCM    cl2 2945   3.061   4.483   2.004
  556TCM     h1 2946   3.142   4.676   1.888
  556TCM    cl3 2947   3.086   4.755   2.107
  557TCM     c1 2948   0.565   2.386   4.365
  557TCM    cl1 2949   0.588   2.459   4.527
  557TCM    cl2 2950   0.699   2.271   4.332
  557TCM     h1 2951   0.470   2.334   4.362
  557TCM    cl3 2952   0.567   2.516   4.241
  558TCM     c1 2953   4.241   3.744   4.908
  558TCM    cl1 2954   4.312   3.584   4.946
  558TCM    cl2 2955   4.239   3.768   4.730
  558TCM     h1 2956   4.139   3.748   4.946
  558TCM    cl3 2957   4.341   3.873   4.983
  559TCM     c1 2958   4.668   1.418   3.670
  559TCM    cl1 2959   4.828   1.373   3.600
  559TCM    cl2 2960   4.539   1.394   3.548
  559TCM     h1 2961   4.648   1.355   3.757
  559TCM    cl3 2962   4.671   1.590   3.720
  560TCM     c1 2963   4.313   2.219   2.701
  560TCM    cl1 2964   4.232   2.174   2.854
  560TCM    cl2 2965   4.311   2.397   2.683
  560TCM     h1 2966   4.417   2.183   2.702
  560TCM    cl3 2967   4.226   2.144   2.563
  561TCM     c1 2968   1.203   2.468   0.123
  561TCM    cl1 2969   1.318   2.595   0.069
  561TCM    cl2 2970   1.035   2.521   0.088
  561TCM     h1 2971   1.223   2.375   0.070
  561TCM    cl3 2972   1.223   2.442   0.299
  562TCM     c1 2973   3.678   1.724   3.349
  562TCM    cl1 2974   3.792   1.589   3.317
  562TCM    cl2 2975   3.674   1.760   3.525
  562TCM     h1 2976   3.709   1.813   3.294
  562TCM    cl3 2977   3.513   1.676   3.296
  563TCM     c1 2978   2.621   4.769   0.940
  563TCM    cl1 2979   2.628   4.846   1.102
  563TCM    cl2 2980   2.449   4.741   0.896
  563TCM     h1 2981   2.667   4.835   0.866
  563TCM    cl3 2982   2.709   4.613   0.947
  564TCM     c1 2983   1.565   3.714   0.703
  564TCM    cl1 2984   1.644   3.687   0.861
  564TCM    cl2 2985   1.616   3.587   0.588
  564TCM     h1 2986   1.456   3.711   0.715
  564TCM    cl3 2987   1.614   3.875   0.641
  565TCM     c1 2988   4.758   2.726   4.801
  565TCM    cl1 2989   4.718   2.786   4.965
  565TCM    cl2 2990   4.715   2.552   4.790
  565TCM     h1 2991   4.702   2.782   4.726
  565TCM    cl3 2992   4.934   2.745   4.771
  566TCM     c1 2993   2.788   4.703   2.821
  566TCM    cl1 2994   2.954   4.765   2.848
  566TCM    cl2 2995   2.714   4.792   2.684
  566TCM     h1 2996   2.792   4.596   2.798
  566TCM    cl3 2997   2.690   4.729   2.969
  567TCM     c1 2998   4.304   3.712   3.603
  567TCM    cl1 2999   4.171   3.615   3.676
  567TCM    cl2 3000   4.282   3.718   3.426
  567TCM     h1 3001   4.303   3.813   3.644
  567TCM    cl3 3002   4.462   3.634   3.640
  568TCM     c1 3003   1.510   0.658   2.916
  568TCM    cl1 3004   1.653   0.551   2.909
  568TCM    cl2 3005   1.562   0.823   2.965
  568TCM     h1 3006   1.460   0.661   2.819
  568TCM    cl3 3007   1.396   0.595   3.040
  569TCM     c1 3008   3.166   2.435   4.720
  569TCM    cl1 3009   3.048   2.554   4.655
  569TCM    cl2 3010   3.211   2.318   4.591
  569TCM     h1 3011   3.255   2.487   4.754
  569TCM    cl3 3012   3.092   2.346   4.857
  570TCM     c1 3013   2.086   3.899   0.343
  570TCM    cl1 3014   1.963   4.024   0.384
  570TCM    cl2 3015   2.247   3.952   0.402
  570TCM     h1 3016   2.059   3.805   0.390
  570TCM    cl3 3017   2.091   3.879   0.165
  571TCM     c1 3018   3.120   1.953   4.873
  571TCM    cl1 3019   3.051   1.991   4.712
  571TCM    cl2 3020   3.269   1.855   4.854
  571TCM     h1 3021   3.144   2.046   4.925
  571TCM    cl3 3022   3.000   1.860   4.969
  572TCM     c1 3023   2.286   1.629   3.772
  572TCM    cl1 3024   2.200   1.585   3.923
  572TCM    cl2 3025   2.286   1.808   3.754
  572TCM     h1 3026   2.389   1.592   3.776
  572TCM    cl3 3027   2.201   1.556   3.631
  573TCM     c1 3028   0.880   0.836   2.591
  573TCM    cl1 3029   1.029   0.799   2.499
  573TCM    cl2 3030   0.834   1.007   2.565
  573TCM     h1 3031   0.799   0.771   2.556
  573TCM    cl3 3032   0.907   0.808   2.766
  574TCM     c1 3033   2.747   4.029   4.957
  574TCM    cl1 3034   2.818   3.901   0.060
  574TCM    cl2 3035   2.605   3.963   4.870
  574TCM     h1 3036   2.716   4.113   0.019
  574TCM    cl3 3037   2.870   4.085   4.838
  575TCM     c1 3038   2.013   4.080   1.521
  575TCM    cl1 3039   2.152   4.078   1.634
  575TCM    cl2 3040   1.973   4.250   1.482
  575TCM     h1 3041   2.039   4.026   1.430
  575TCM    cl3 3042   1.871   4.001   1.598
  576TCM     c1 3043   0.560   2.404   4.929
  576TCM    cl1 3044   0.415   2.468   0.013
  576TCM    cl2 3045   0.512   2.266   4.825
  576TCM     h1 3046   0.605   2.482   4.868
  576TCM    cl3 3047   0.678   2.348   0.052
  577TCM     c1 3048   1.504   0.966   1.723
  577TCM    cl1 3049   1.356   1.057   1.679
  577TCM    cl2 3050   1.462   0.840   1.843
  577TCM     h1 3051   1.546   0.920   1.633
  577TCM    cl3 3052   1.624   1.079   1.794
  578TCM     c1 3053   0.078   3.549   3.598
  578TCM    cl1 3054   4.981   3.693   3.643
  578TCM    cl2 3055   0.105   3.549   3.420
  578TCM     h1 3056   0.175   3.551   3.649
  578TCM    cl3 3057   4.989   3.400   3.642
  579TCM     c1 3058   2.269   4.877   1.315
  579TCM    cl1 3059   2.158   4.834   1.181
  579TCM    cl2 3060   2.361   0.024   1.269
  579TCM     h1 3061   2.212   4.897   1.406
  579TCM    cl3 3062   2.383   4.741   1.343
  580TCM     c1 3063   0.224   4.607   3.659
  580TCM    cl1 3064   0.273   4.480   3.776
  580TCM    cl2 3065   0.325   4.592   3.511
  580TCM     h1 3066   0.119   4.595   3.633
  580TCM    cl3 3067   0.251   4.768   3.733
  581TCM     c1 3068   2.808   3.964   1.340
  581TCM    cl1 3069   2.938   3.949   1.218
  581TCM    cl2 3070   2.824   3.831   1.459
  581TCM     h1 3071   2.815   4.060   1.391
  581TCM    cl3 3072   2.648   3.950   1.259
  582TCM     c1 3073   4.295   4.271   3.541
  582TCM    cl1 3074   4.328   4.375   3.684
  582TCM    cl2 3075   4.332   4.100   3.581
  582TCM     h1 3076   4.189   4.280   3.513
  582TCM    cl3 3077   4.398   4.324   3.404
  583TCM     c1 3078   0.882   3.418   0.284
  583TCM    cl1 3079   0.981   3.343   0.413
  583TCM    cl2 3080   0.953   3.382   0.124
  583TCM     h1 3081   0.780   3.379   0.289
  583TCM    cl3 3082   0.880   3.596   0.309
  584TCM     c1 3083   0.107   2.051   4.857
  584TCM    cl1 3084   0.103   1.931   4.990
  584TCM    cl2 3085   0.244   2.013   4.747
  584TCM     h1 3086   0.013   2.047   4.801
  584TCM    cl3 3087   0.129   2.216   4.924
  585TCM     c1 3088   0.741   4.906   2.677
  585TCM    cl1 3089   0.668   0.070   2.677
  585TCM    cl2 3090   0.877   4.903   2.560
  585TCM     h1 3091   0.778   4.882   2.777
  585TCM    cl3 3092   0.616   4.786   2.629
  586TCM     c1 3093   0.723   1.148   4.044
  586TCM    cl1 3094   0.570   1.242   4.036
  586TCM    cl2 3095   0.767   1.094   3.879
  586TCM     h1 3096   0.803   1.211   4.084
  586TCM    cl3 3097   0.701   1.005   4.149
  587TCM     c1 3098   3.735   2.581   3.996
  587TCM    cl1 3099   3.837   2.442   3.946
  587TCM    cl2 3100   3.738   2.595   4.175
  587TCM     h1 3101   3.774   2.673   3.952
  587TCM    cl3 3102   3.566   2.555   3.941
  588TCM     c1 3103   2.205   3.377   0.244
  588TCM    cl1 3104   2.335   3.276   0.172
  588TCM    cl2 3105   2.049   3.339   0.163
  588TCM     h1 3106   2.197   3.356   0.351
  588TCM    cl3 3107   2.243   3.550   0.219
  589TCM     c1 3108   1.002   0.145   0.614
  589TCM    cl1 3109   1.001   0.221   0.452
  589TCM    cl2 3110   1.105   0.242   0.725
  589TCM     h1 3111   0.900   0.140   0.653
  589TCM    cl3 3112   1.070   4.979   0.600
  590TCM     c1 3113   0.260   3.618   0.182
  590TCM    cl1 3114   0.252   3.594   0.004
  590TCM    cl2 3115   0.316   3.467   0.260
  590TCM     h1 3116   0.329   3.700   0.204
  590TCM    cl3 3117   0.096   3.659   0.244
  591TCM     c1 3118   3.029   1.380   3.362
  591TCM    cl1 3119   2.993   1.533   3.450
  591TCM    cl2 3120   3.004   1.405   3.186
  591TCM     h1 3121   3.132   1.350   3.380
  591TCM    cl3 3122   2.917   1.253   3.421
  592TCM     c1 3123   2.502   4.367   0.068
  592TCM    cl1 3124   2.366   4.467   0.008
  592TCM    cl2 3125   2.630   4.359   4.942
  592TCM     h1 3126   2.544   4.411   0.159
  592TCM    cl3 3127   2.444   4.201   0.104
  593TCM     c1 3128   3.421   3.394   3.064
  593TCM    cl1 3129   3.562   3.322   3.148
  593TCM    cl2 3130   3.475   3.532   2.963
  593TCM     h1 3131   3.373   3.318   3.001
  593TCM    cl3 3132   3.303   3.453   3.186
  594TCM     c1 3133   2.709   3.705   0.781
  594TCM    cl1 3134   2.688   3.761   0.950
  594TCM    cl2 3135   2.758   3.533   0.779
  594TCM     h1 3136   2.614   3.717   0.727
  594TCM    cl3 3137   2.835   3.805   0.702
  595TCM     c1 3138   4.161   4.111   1.099
  595TCM    cl1 3139   4.114   4.156   0.931
  595TCM    cl2 3140   4.332   4.057   1.099
  595TCM     h1 3141   4.150   4.197   1.164
  595TCM    cl3 3142   4.056   3.977   1.156
  596TCM     c1 3143   4.492   2.647   0.291
  596TCM    cl1 3144   4.428   2.607   0.453
  596TCM    cl2 3145   4.671   2.646   0.296
  596TCM     h1 3146   4.457   2.574   0.218
  596TCM    cl3 3147   4.436   2.811   0.244
  597TCM     c1 3148   2.660   0.642   2.175
  597TCM    cl1 3149   2.582   0.483   2.151
  597TCM    cl2 3150   2.665   0.731   2.020
  597TCM     h1 3151   2.604   0.700   2.249
  597TCM    cl3 3152   2.828   0.617   2.234
  598TCM     c1 3153   3.073   4.241   2.775
  598TCM    cl1 3154   2.996   4.403   2.760
  598TCM    cl2 3155   3.136   4.221   2.942
  598TCM     h1 3156   2.999   4.163   2.755
  598TCM    cl3 3157   3.207   4.228   2.658
  599TCM     c1 3158   3.305   3.511   3.544
  599TCM    cl1 3159   3.284   3.593   3.702
  599TCM    cl2 3160   3.216   3.355   3.546
  599TCM     h1 3161   3.265   3.574   3.464
  599TCM    cl3 3162   3.479   3.478   3.516
  600TCM     c1 3163   3.915   0.269   4.942
  600TCM    cl1 3164   4.024   0.396   4.877
  600TCM    cl2 3165   3.879   0.149   4.813
  600TCM     h1 3166   3.963   0.218   0.026
  600TCM    cl3 3167   3.762   0.344   4.998
  601TCM     c1 3168   2.888   3.134   3.537
  601TCM    cl1 3169   3.025   3.050   3.617
  601TCM    cl2 3170   2.928   3.162   3.365
  601TCM     h1 3171   2.798   3.072   3.544
  601TCM    cl3 3172   2.858   3.292   3.618
  602TCM     c1 3173   0.351   2.380   1.668
  602TCM    cl1 3174   0.525   2.358   1.702
  602TCM    cl2 3175   0.284   2.230   1.596
  602TCM     h1 3176   0.298   2.404   1.760
  602TCM    cl3 3177   0.331   2.515   1.551
  603TCM     c1 3178   4.931   4.139   2.878
  603TCM    cl1 3179   4.932   4.264   2.749
  603TCM    cl2 3180   4.998   4.208   3.029
  603TCM     h1 3181   4.828   4.106   2.895
  603TCM    cl3 3182   0.030   3.999   2.826
  604TCM     c1 3183   2.202   3.210   1.409
  604TCM    cl1 3184   2.327   3.155   1.293
  604TCM    cl2 3185   2.282   3.274   1.556
  604TCM     h1 3186   2.142   3.289   1.363
  604TCM    cl3 3187   2.095   3.074   1.455
  605TCM     c1 3188   4.719   1.134   2.401
  605TCM    cl1 3189   4.825   1.227   2.290
  605TCM    cl2 3190   4.812   0.996   2.469
  605TCM     h1 3191   4.685   1.199   2.483
  605TCM    cl3 3192   4.577   1.073   2.310
  606TCM     c1 3193   3.836   2.964   3.716
  606TCM    cl1 3194   3.714   2.841   3.669
  606TCM    cl2 3195   3.943   2.895   3.843
  606TCM     h1 3196   3.896   2.993   3.629
  606TCM    cl3 3197   3.752   3.108   3.782
  607TCM     c1 3198   1.242   3.109   3.408
  607TCM    cl1 3199   1.204   2.990   3.279
  607TCM    cl2 3200   1.350   3.032   3.529
  607TCM     h1 3201   1.292   3.196   3.364
  607TCM    cl3 3202   1.090   3.161   3.488
  608TCM     c1 3203   2.429   2.940   2.286
  608TCM    cl1 3204   2.420   3.056   2.422
  608TCM    cl2 3205   2.483   2.780   2.347
  608TCM     h1 3206   2.330   2.930   2.240
  608TCM    cl3 3207   2.545   3.000   2.163
  609TCM     c1 3208   1.681   2.654   0.175
  609TCM    cl1 3209   1.650   2.480   0.201
  609TCM    cl2 3210   1.740   2.680   0.007
  609TCM     h1 3211   1.589   2.711   0.190
  609TCM    cl3 3212   1.807   2.710   0.290
  610TCM     c1 3213   4.817   0.718   2.810
  610TCM    cl1 3214   4.851   0.544   2.838
  610TCM    cl2 3215   4.691   0.734   2.683
  610TCM     h1 3216   4.781   0.764   2.903
  610TCM    cl3 3217   4.968   0.799   2.757
  611TCM     c1 3218   4.782   2.219   1.177
  611TCM    cl1 3219   4.646   2.288   1.083
  611TCM    cl2 3220   4.816   2.325   1.318
  611TCM     h1 3221   4.756   2.119   1.212
  611TCM    cl3 3222   4.929   2.209   1.075
  612TCM     c1 3223   3.076   3.684   0.416
  612TCM    cl1 3224   2.968   3.547   0.459
  612TCM    cl2 3225   3.178   3.727   0.557
  612TCM     h1 3226   3.139   3.656   0.332
  612TCM    cl3 3227   2.974   3.824   0.371
  613TCM     c1 3228   2.506   4.036   3.445
  613TCM    cl1 3229   2.681   4.026   3.482
  613TCM    cl2 3230   2.451   3.876   3.386
  613TCM     h1 3231   2.450   4.063   3.535
  613TCM    cl3 3232   2.479   4.159   3.317
  614TCM     c1 3233   1.998   4.319   1.868
  614TCM    cl1 3234   2.133   4.244   1.958
  614TCM    cl2 3235   2.007   4.498   1.885
  614TCM     h1 3236   2.004   4.292   1.762
  614TCM    cl3 3237   1.843   4.261   1.937
  615TCM     c1 3238   1.185   1.660   0.535
  615TCM    cl1 3239   1.142   1.662   0.709
  615TCM    cl2 3240   1.359   1.621   0.518
  615TCM     h1 3241   1.125   1.586   0.483
  615TCM    cl3 3242   1.157   1.823   0.465
  616TCM     c1 3243   0.216   2.672   4.350
  616TCM    cl1 3244   0.251   2.717   4.180
  616TCM    cl2 3245   0.211   2.493   4.362
  616TCM     h1 3246   0.294   2.711   4.415
  616TCM    cl3 3247   0.057   2.740   4.398
  617TCM     c1 3248   0.410   1.278   4.551
  617TCM    cl1 3249   0.508   1.214   4.415
  617TCM    cl2 3250   0.409   1.158   4.685
  617TCM     h1 3251   0.453   1.372   4.586
  617TCM    cl3 3252   0.242   1.307   4.495
  618TCM     c1 3253   0.043   2.716   0.661
  618TCM    cl1 3254   4.917   2.701   0.788
  618TCM    cl2 3255   4.962   2.741   0.503
  618TCM     h1 3256   0.107   2.801   0.684
  618TCM    cl3 3257   0.140   2.566   0.656
  619TCM     c1 3258   1.997   3.955   4.562
  619TCM    cl1 3259   2.056   3.801   4.490
  619TCM    cl2 3260   2.042   3.962   4.735
  619TCM     h1 3261   2.042   4.039   4.509
  619TCM    cl3 3262   1.818   3.962   4.548
  620TCM     c1 3263   2.819   3.279   3.041
  620TCM    cl1 3264   2.694   3.356   2.938
  620TCM    cl2 3265   2.955   3.394   3.067
  620TCM     h1 3266   2.776   3.252   3.138
  620TCM    cl3 3267   2.881   3.131   2.960
  621TCM     c1 3268   2.807   4.143   0.414
  621TCM    cl1 3269   2.829   4.254   0.553
  621TCM    cl2 3270   2.777   4.238   0.265
  621TCM     h1 3271   2.897   4.082   0.401
  621TCM    cl3 3272   2.665   4.037   0.444
  622TCM     c1 3273   3.204   4.202   0.260
  622TCM    cl1 3274   3.091   4.132   0.140
  622TCM    cl2 3275   3.226   4.085   0.395
  622TCM     h1 3276   3.300   4.223   0.213
  622TCM    cl3 3277   3.133   4.354   0.325
  623TCM     c1 3278   2.275   3.599   0.754
  623TCM    cl1 3279   2.349   3.762   0.749
  623TCM    cl2 3280   2.389   3.482   0.828
  623TCM     h1 3281   2.183   3.602   0.813
  623TCM    cl3 3282   2.237   3.548   0.586
  624TCM     c1 3283   3.860   3.404   3.332
  624TCM    cl1 3284   3.938   3.301   3.208
  624TCM    cl2 3285   3.958   3.552   3.359
  624TCM     h1 3286   3.760   3.433   3.299
  624TCM    cl3 3287   3.848   3.314   3.487
  625TCM     c1 3288   4.973   4.583   4.162
  625TCM    cl1 3289   4.821   4.499   4.119
  625TCM    cl2 3290   4.940   4.704   4.290
  625TCM     h1 3291   0.047   4.511   4.198
  625TCM    cl3 3292   0.038   4.667   4.017
  626TCM     c1 3293   4.064   0.078   3.529
  626TCM    cl1 3294   3.922   0.096   3.637
  626TCM    cl2 3295   4.010   0.066   3.359
  626TCM     h1 3296   4.129   0.165   3.540
  626TCM    cl3 3297   4.155   4.930   3.574
  627TCM     c1 3298   2.253   2.399   3.302
  627TCM    cl1 3299   2.184   2.465   3.150
  627TCM    cl2 3300   2.197   2.498   3.440
  627TCM     h1 3301   2.219   2.295   3.315
  627TCM    cl3 3302   2.432   2.402   3.293
  628TCM     c1 3303   4.749   4.528   2.573
  628TCM    cl1 3304   4.654   4.639   2.469
  628TCM    cl2 3305   4.682   4.531   2.740
  628TCM     h1 3306   4.743   4.426   2.533
  628TCM    cl3 3307   4.920   4.583   2.574
  629TCM     c1 3308   2.072   0.494   2.062
  629TCM    cl1 3309   1.992   0.439   2.213
  629TCM    cl2 3310   2.121   0.351   1.965
  629TCM     h1 3311   2.003   0.556   2.005
  629TCM    cl3 3312   2.218   0.590   2.103
  630TCM     c1 3313   0.091   2.232   2.635
  630TCM    cl1 3314   4.935   2.291   2.702
  630TCM    cl2 3315   0.059   2.117   2.501
  630TCM     h1 3316   0.149   2.316   2.598
  630TCM    cl3 3317   0.182   2.149   2.765
  631TCM     c1 3318   1.104   3.978   0.677
  631TCM    cl1 3319   1.049   3.893   0.529
  631TCM    cl2 3320   1.248   3.895   0.745
  631TCM     h1 3321   1.129   4.082   0.652
  631TCM    cl3 3322   0.971   3.977   0.799
  632TCM     c1 3323   2.473   3.134   0.522
  632TCM    cl1 3324   2.296   3.110   0.499
  632TCM    cl2 3325   2.509   3.310   0.519
  632TCM     h1 3326   2.503   3.092   0.618
  632TCM    cl3 3327   2.562   3.053   0.389
  633TCM     c1 3328   0.493   0.361   0.708
  633TCM    cl1 3329   0.635   0.266   0.652
  633TCM    cl2 3330   0.349   0.253   0.717
  633TCM     h1 3331   0.513   0.402   0.807
  633TCM    cl3 3332   0.460   0.495   0.594
  634TCM     c1 3333   4.932   1.930   2.931
  634TCM    cl1 3334   4.929   2.082   3.026
  634TCM    cl2 3335   4.832   1.950   2.783
  634TCM     h1 3336   0.034   1.906   2.903
  634TCM    cl3 3337   4.864   1.797   3.030
  635TCM     c1 3338   2.204   0.809   3.442
  635TCM    cl1 3339   2.333   0.776   3.323
  635TCM    cl2 3340   2.275   0.814   3.606
  635TCM     h1 3341   2.158   0.905   3.420
  635TCM    cl3 3342   2.079   0.680   3.434
  636TCM     c1 3343   4.890   1.000   2.011
  636TCM    cl1 3344   4.735   1.077   1.964
  636TCM    cl2 3345   4.970   0.931   1.866
  636TCM     h1 3346   4.956   1.075   2.057
  636TCM    cl3 3347   4.858   0.868   2.129
  637TCM     c1 3348   3.711   0.375   4.466
  637TCM    cl1 3349   3.793   0.216   4.450
  637TCM    cl2 3350   3.734   0.438   4.632
  637TCM     h1 3351   3.753   0.445   4.394
  637TCM    cl3 3352   3.535   0.354   4.433
  638TCM     c1 3353   4.809   0.744   4.939
  638TCM    cl1 3354   4.904   0.628   4.840
  638TCM    cl2 3355   4.918   0.827   0.056
  638TCM     h1 3356   4.763   0.819   4.874
  638TCM    cl3 3357   4.682   0.656   0.030
  639TCM     c1 3358   2.803   0.032   1.371
  639TCM    cl1 3359   2.955   4.959   1.433
  639TCM    cl2 3360   2.816   0.211   1.376
  639TCM     h1 3361   2.787  -0.001   1.268
  639TCM    cl3 3362   2.665   4.977   1.473
  640TCM     c1 3363   1.858   1.132   3.657
  640TCM    cl1 3364   1.823   1.078   3.825
  640TCM    cl2 3365   1.706   1.183   3.577
  640TCM     h1 3366   1.928   1.216   3.660
  640TCM    cl3 3367   1.930   0.996   3.566
   5.00000   5.00000   5.00000
