Glycine aRginine prOline Methionine Alanine Cystine Serine
 3367
    1MOM     C1    1   4.302   4.663   2.423
    1MOM     O2    2   4.250   4.541   2.371
    1MOM     C3    3   4.339   4.458   2.310
    1MOM     C4    4   4.476   4.480   2.294
    1MOM     C5    5   4.555   4.385   2.230
    1MOM     C6    6   4.500   4.267   2.179
    1MOM     C7    7   4.589   4.175   2.107
    1MOM     C8    8   4.708   4.119   2.160
    1MOM     C9    9   4.789   4.032   2.085
    1MOM    C10   10   4.908   3.968   2.146
    1MOM    O11   11   4.950   3.998   2.256
    1MOM    C12   12   4.752   4.003   1.954
    1MOM    C13   13   4.632   4.050   1.908
    1MOM    C14   14   4.553   4.137   1.978
    1MOM    C15   15   4.359   4.245   2.193
    1MOM    C16   16   4.290   4.125   2.144
    1MOM    C17   17   4.177   4.130   2.060
    1MOM    C18   18   4.111   4.013   2.019
    1MOM    C19   19   3.996   4.013   1.920
    1MOM    C20   20   3.867   3.972   1.993
    1MOM    N21   21   4.022   3.923   1.806
    1MOM    C22   22   4.155   3.892   2.066
    1MOM    C23   23   4.276   3.886   2.133
    1MOM    C24   24   4.339   3.999   2.179
    1MOM    C25   25   4.282   4.342   2.260
    1MOM    H26   26   4.345   4.723   2.343
    1MOM    H27   27   4.374   4.643   2.502
    1MOM    H28   28   4.218   4.719   2.466
    1MOM    H29   29   4.524   4.570   2.330
    1MOM    H30   30   4.660   4.406   2.216
    1MOM    H31   31   4.736   4.143   2.263
    1MOM    H32   32   4.812   3.941   1.889
    1MOM    H33   33   4.594   4.016   1.814
    1MOM    H34   34   4.461   4.172   1.932
    1MOM    H35   35   4.142   4.227   2.024
    1MOM    H36   36   3.983   4.114   1.879
    1MOM    H37   37   3.871   3.868   2.029
    1MOM    H38   38   3.851   4.036   2.082
    1MOM    H39   39   3.781   3.981   1.928
    1MOM    H40   40   3.940   3.928   1.748
    1MOM    H41   41   4.105   3.798   2.043
    1MOM    H42   42   4.323   3.792   2.145
    1MOM    H43   43   4.429   3.988   2.238
    1MOM    H44   44   4.176   4.325   2.274
    2MOM    C45   45   5.030   4.131   1.417
    2MOM    O46   46   4.983   3.997   1.413
    2MOM    C47   47   4.863   3.974   1.474
    2MOM    C48   48   4.781   4.068   1.535
    2MOM    C49   49   4.657   4.030   1.586
    2MOM    C50   50   4.617   3.896   1.591
    2MOM    C51   51   4.494   3.858   1.669
    2MOM    C52   52   4.370   3.924   1.658
    2MOM    C53   53   4.256   3.881   1.729
    2MOM    C54   54   4.127   3.956   1.718
    2MOM    O55   55   4.109   4.037   1.630
    2MOM    C56   56   4.266   3.766   1.808
    2MOM    C57   57   4.390   3.709   1.829
    2MOM    C58   58   4.504   3.753   1.763
    2MOM    C59   59   4.701   3.799   1.529
    2MOM    C60   60   4.663   3.658   1.515
    2MOM    C61   61   4.749   3.550   1.548
    2MOM    C62   62   4.708   3.417   1.530
    2MOM    C63   63   4.792   3.299   1.572
    2MOM    C64   64   4.838   3.226   1.445
    2MOM    N65   65   4.717   3.207   1.660
    2MOM    C66   66   4.582   3.393   1.477
    2MOM    C67   67   4.494   3.497   1.465
    2MOM    C68   68   4.534   3.628   1.474
    2MOM    C69   69   4.821   3.841   1.469
    2MOM    H70   70   5.051   4.163   1.520
    2MOM    H71   71   4.960   4.200   1.368
    2MOM    H72   72   5.124   4.134   1.361
    2MOM    H73   73   4.811   4.173   1.545
    2MOM    H74   74   4.596   4.108   1.632
    2MOM    H75   75   4.361   4.010   1.592
    2MOM    H76   76   4.180   3.724   1.857
    2MOM    H77   77   4.400   3.628   1.898
    2MOM    H78   78   4.597   3.703   1.783
    2MOM    H79   79   4.848   3.571   1.590
    2MOM    H80   80   4.880   3.333   1.627
    2MOM    H81   81   4.754   3.181   1.390
    2MOM    H82   82   4.890   3.295   1.377
    2MOM    H83   83   4.907   3.144   1.470
    2MOM    H84   84   4.780   3.130   1.679
    2MOM    H85   85   4.549   3.292   1.455
    2MOM    H86   86   4.390   3.474   1.454
    2MOM    H87   87   4.461   3.705   1.454
    2MOM    H88   88   4.884   3.770   1.415
    3MOM    C89   89   4.238   3.775   2.468
    3MOM    O90   90   4.179   3.653   2.425
    3MOM    C91   91   4.237   3.588   2.319
    3MOM    C92   92   4.364   3.611   2.269
    3MOM    C93   93   4.405   3.549   2.151
    3MOM    C94   94   4.326   3.454   2.085
    3MOM    C95   95   4.368   3.395   1.955
    3MOM    C96   96   4.501   3.355   1.930
    3MOM    C97   97   4.538   3.292   1.810
    3MOM    C98   98   4.680   3.252   1.786
    3MOM    O99   99   4.762   3.253   1.878
    3MOM   C100  100   4.438   3.266   1.716
    3MOM   C101  101   4.312   3.318   1.735
    3MOM   C102  102   4.277   3.383   1.851
    3MOM   C103  103   4.204   3.417   2.148
    3MOM   C104  104   4.128   3.297   2.106
    3MOM   C105  105   3.991   3.301   2.081
    3MOM   C106  106   3.921   3.184   2.049
    3MOM   C107  107   3.773   3.190   2.018
    3MOM   C108  108   3.696   3.123   2.131
    3MOM   N109  109   3.740   3.131   1.887
    3MOM   C110  110   3.990   3.062   2.050
    3MOM   C111  111   4.128   3.058   2.065
    3MOM   C112  112   4.196   3.175   2.095
    3MOM   C113  113   4.159   3.489   2.261
    3MOM   H114  114   4.226   3.854   2.393
    3MOM   H115  115   4.343   3.763   2.494
    3MOM   H116  116   4.186   3.808   2.558
    3MOM   H117  117   4.430   3.686   2.311
    3MOM   H118  118   4.499   3.582   2.106
    3MOM   H119  119   4.577   3.370   2.006
    3MOM   H120  120   4.459   3.208   1.626
    3MOM   H121  121   4.238   3.307   1.658
    3MOM   H122  122   4.174   3.420   1.859
    3MOM   H123  123   3.937   3.397   2.084
    3MOM   H124  124   3.741   3.295   2.012
    3MOM   H125  125   3.717   3.016   2.138
    3MOM   H126  126   3.721   3.168   2.227
    3MOM   H127  127   3.587   3.133   2.116
    3MOM   H128  128   3.639   3.138   1.879
    3MOM   H129  129   3.937   2.969   2.033
    3MOM   H130  130   4.182   2.965   2.053
    3MOM   H131  131   4.304   3.170   2.108
    3MOM   H132  132   4.064   3.464   2.307
    4MOM   C133  133   4.403   3.559   1.128
    4MOM   O134  134   4.359   3.424   1.113
    4MOM   C135  135   4.280   3.371   1.213
    4MOM   C136  136   4.219   3.442   1.314
    4MOM   C137  137   4.157   3.372   1.421
    4MOM   C138  138   4.145   3.232   1.421
    4MOM   C139  139   4.088   3.162   1.539
    4MOM   C140  140   3.971   3.209   1.603
    4MOM   C141  141   3.911   3.138   1.708
    4MOM   C142  142   3.789   3.195   1.774
    4MOM   O143  143   3.730   3.291   1.727
    4MOM   C144  144   3.965   3.016   1.748
    4MOM   C145  145   4.088   2.976   1.698
    4MOM   C146  146   4.148   3.048   1.594
    4MOM   C147  147   4.190   3.164   1.306
    4MOM   C148  148   4.155   3.024   1.282
    4MOM   C149  149   4.251   2.927   1.248
    4MOM   C150  150   4.214   2.794   1.226
    4MOM   C151  151   4.321   2.691   1.194
    4MOM   C152  152   4.306   2.649   1.047
    4MOM   N153  153   4.312   2.580   1.289
    4MOM   C154  154   4.079   2.757   1.238
    4MOM   C155  155   3.983   2.851   1.272
    4MOM   C156  156   4.020   2.983   1.291
    4MOM   C157  157   4.262   3.234   1.207
    4MOM   H158  158   4.474   3.570   1.210
    4MOM   H159  159   4.320   3.628   1.140
    4MOM   H160  160   4.457   3.587   1.036
    4MOM   H161  161   4.228   3.549   1.324
    4MOM   H162  162   4.124   3.431   1.506
    4MOM   H163  163   3.925   3.302   1.569
    4MOM   H164  164   3.914   2.954   1.821
    4MOM   H165  165   4.136   2.889   1.741
    4MOM   H166  166   4.244   3.012   1.558
    4MOM   H167  167   4.356   2.955   1.245
    4MOM   H168  168   4.421   2.735   1.206
    4MOM   H169  169   4.209   2.603   1.027
    4MOM   H170  170   4.315   2.737   0.982
    4MOM   H171  171   4.384   2.579   1.018
    4MOM   H172  172   4.333   2.486   1.260
    4MOM   H173  173   4.049   2.654   1.224
    4MOM   H174  174   3.879   2.822   1.284
    4MOM   H175  175   3.943   3.056   1.318
    4MOM   H176  176   4.302   3.181   1.120
    5CAP   C177  177   4.915   3.751   2.047
    5CAP   O178  178   4.973   3.882   2.062
    5CAP   H179  179   4.894   3.705   2.144
    5CAP   H180  180   4.986   3.689   1.992
    5CAP   H181  181   4.823   3.754   1.988
    6CAP   C182  182   4.231   2.403   1.709
    6CAP   C183  183   4.299   2.525   1.645
    6CAP   C184  184   4.222   2.649   1.692
    6CAP   C185  185   4.445   2.532   1.692
    6CAP   O186  186   4.294   2.505   1.500
    6CAP   C187  187   4.335   2.607   1.421
    6CAP   O188  188   4.383   2.713   1.462
    6CAP   H189  189   4.233   2.409   1.819
    6CAP   H190  190   4.126   2.396   1.679
    6CAP   H191  191   4.279   2.310   1.679
    6CAP   H192  192   4.119   2.649   1.653
    6CAP   H193  193   4.268   2.741   1.658
    6CAP   H194  194   4.217   2.655   1.802
    6CAP   H195  195   4.501   2.446   1.653
    6CAP   H196  196   4.496   2.622   1.656
    6CAP   H197  197   4.451   2.531   1.801
    1TCM     c1  198   4.338   0.336   2.673
    1TCM    cl1  199   4.463   0.360   2.548
    1TCM    cl2  200   4.242   0.484   2.690
    1TCM     h1  201   4.272   0.252   2.642
    1TCM    cl3  202   4.416   0.297   2.828
    1TCM     c1  203   1.694   2.484   4.344
    1TCM    cl1  204   1.603   2.332   4.353
    1TCM    cl2  205   1.627   2.600   4.461
    1TCM     h1  206   1.800   2.465   4.368
    1TCM    cl3  207   1.681   2.552   4.180
    1TCM     c1  208   1.850   2.334   0.984
    1TCM    cl1  209   1.772   2.175   0.976
    1TCM    cl2  210   1.908   2.380   0.822
    1TCM     h1  211   1.776   2.410   1.019
    1TCM    cl3  212   1.987   2.328   1.097
    1TCM     c1  213   2.707   0.610   3.776
    1TCM    cl1  214   2.780   0.751   3.696
    1TCM    cl2  215   2.832   0.520   3.864
    1TCM     h1  216   2.629   0.645   3.848
    1TCM    cl3  217   2.632   0.504   3.654
    1TCM     c1  218   2.283   1.748   2.860
    1TCM    cl1  219   2.396   1.774   2.725
    1TCM    cl2  220   2.337   1.841   3.002
    1TCM     h1  221   2.181   1.783   2.830
    1TCM    cl3  222   2.277   1.575   2.901
    1TCM     c1  223   5.037   1.291   0.555
    1TCM    cl1  224   5.174   1.236   0.457
    1TCM    cl2  225   5.084   1.292   0.727
    1TCM     h1  226   5.008   1.394   0.524
    1TCM    cl3  227   4.899   1.182   0.532
    1TCM     c1  228   2.905   0.818   2.634
    1TCM    cl1  229   2.795   0.934   2.556
    1TCM    cl2  230   2.866   0.653   2.579
    1TCM     h1  231   3.010   0.843   2.607
    1TCM    cl3  232   2.886   0.828   2.811
    1TCM     c1  233   3.728   4.046   4.694
    1TCM    cl1  234   3.744   3.956   4.542
    1TCM    cl2  235   3.571   4.129   4.698
    1TCM     h1  236   3.734   3.975   4.780
    1TCM    cl3  237   3.859   4.166   4.707
    1TCM     c1  238   0.758   4.179   3.454
    1TCM    cl1  239   0.840   4.034   3.394
    1TCM    cl2  240   0.804   4.319   3.355
    1TCM     h1  241   0.648   4.164   3.448
    1TCM    cl3  242   0.805   4.208   3.623
    1TCM     c1  243   3.886   1.305   2.565
    1TCM    cl1  244   3.860   1.353   2.734
    1TCM    cl2  245   4.061   1.298   2.532
    1TCM     h1  246   3.841   1.205   2.547
    1TCM    cl3  247   3.810   1.424   2.457
    1TCM     c1  248   4.914   3.096   4.465
    1TCM    cl1  249   4.737   3.080   4.467
    1TCM    cl2  250   4.988   2.942   4.415
    1TCM     h1  251   4.943   3.176   4.393
    1TCM    cl3  252   4.972   3.140   4.627
    1TCM     c1  253   0.545   2.844   1.441
    1TCM    cl1  254   0.532   3.018   1.475
    1TCM    cl2  255   0.384   2.771   1.444
    1TCM     h1  256   0.590   2.830   1.340
    1TCM    cl3  257   0.648   2.767   1.564
    1TCM     c1  258   1.502   1.957   2.392
    1TCM    cl1  259   1.363   2.068   2.391
    1TCM    cl2  260   1.557   1.929   2.226
    1TCM     h1  261   1.584   2.001   2.452
    1TCM    cl3  262   1.453   1.802   2.465
    1TCM     c1  263   4.283   4.444   0.716
    1TCM    cl1  264   4.453   4.432   0.768
    1TCM    cl2  265   4.244   4.306   0.609
    1TCM     h1  266   4.217   4.442   0.805
    1TCM    cl3  267   4.258   4.596   0.627
    1TCM     c1  268   2.571   5.245   3.766
    1TCM    cl1  269   2.613   5.252   3.938
    1TCM    cl2  270   2.704   5.315   3.670
    1TCM     h1  271   2.556   5.140   3.736
    1TCM    cl3  272   2.422   5.338   3.737
    1TCM     c1  273   2.832   1.889   3.010
    1TCM    cl1  274   3.001   1.837   2.985
    1TCM    cl2  275   2.754   1.781   3.128
    1TCM     h1  276   2.831   1.993   3.048
    1TCM    cl3  277   2.745   1.881   2.855
    1TCM     c1  278   0.684   3.120   5.018
    1TCM    cl1  279   0.814   3.204   4.932
    1TCM    cl2  280   0.694   2.945   4.984
    1TCM     h1  281   0.694   3.137   5.127
    1TCM    cl3  282   0.526   3.181   4.963
    1TCM     c1  283   4.743   3.467   2.292
    1TCM    cl1  284   4.718   3.579   2.156
    1TCM    cl2  285   4.612   3.347   2.295
    1TCM     h1  286   4.840   3.415   2.280
    1TCM    cl3  287   4.743   3.559   2.444
    1TCM     c1  288   5.257   3.641   4.905
    1TCM    cl1  289   5.082   3.674   4.892
    1TCM    cl2  290   5.336   3.776   4.989
    1TCM     h1  291   5.273   3.547   4.961
    1TCM    cl3  292   5.326   3.625   4.741
    1TCM     c1  293   2.192   1.174   3.482
    1TCM    cl1  294   2.295   1.307   3.539
    1TCM    cl2  295   2.234   1.133   3.314
    1TCM     h1  296   2.208   1.085   3.547
    1TCM    cl3  297   2.021   1.224   3.490
    1TCM     c1  298   1.356   1.930   2.753
    1TCM    cl1  299   1.503   1.948   2.655
    1TCM    cl2  300   1.219   1.891   2.647
    1TCM     h1  301   1.370   1.848   2.826
    1TCM    cl3  302   1.324   2.082   2.839
    1TCM     c1  303   3.120   4.719   4.812
    1TCM    cl1  304   3.180   4.829   4.685
    1TCM    cl2  305   3.191   4.558   4.788
    1TCM     h1  306   3.149   4.758   4.911
    1TCM    cl3  307   2.943   4.708   4.802
    1TCM     c1  308   2.760   2.533   2.043
    1TCM    cl1  309   2.628   2.414   2.047
    1TCM    cl2  310   2.736   2.645   1.907
    1TCM     h1  311   2.762   2.589   2.138
    1TCM    cl3  312   2.915   2.447   2.022
    1TCM     c1  313   2.731   2.029   5.069
    1TCM    cl1  314   2.832   1.935   5.181
    1TCM    cl2  315   2.828   2.079   4.929
    1TCM     h1  316   2.646   1.966   5.035
    1TCM    cl3  317   2.668   2.173   5.152
    1TCM     c1  318   5.033   0.256   1.343
    1TCM    cl1  319   4.903   0.139   1.311
    1TCM    cl2  320   4.973   0.384   1.451
    1TCM     h1  321   5.118   0.204   1.392
    1TCM    cl3  322   5.087   0.328   1.190
    1TCM     c1  323   3.029   0.853   1.252
    1TCM    cl1  324   3.091   0.686   1.243
    1TCM    cl2  325   2.862   0.858   1.189
    1TCM     h1  326   3.030   0.887   1.357
    1TCM    cl3  327   3.132   0.960   1.154
    1TCM     c1  328   4.358   3.004   1.862
    1TCM    cl1  329   4.437   2.990   1.703
    1TCM    cl2  330   4.328   2.842   1.928
    1TCM     h1  331   4.424   3.060   1.931
    1TCM    cl3  332   4.203   3.091   1.844
    1TCM     c1  333   1.106   0.933   3.668
    1TCM    cl1  334   0.990   0.804   3.624
    1TCM    cl2  335   1.036   1.033   3.798
    1TCM     h1  336   1.200   0.886   3.704
    1TCM    cl3  337   1.140   1.034   3.526
    1TCM     c1  338   2.819   3.697   3.427
    1TCM    cl1  339   2.985   3.728   3.371
    1TCM    cl2  340   2.823   3.588   3.567
    1TCM     h1  341   2.772   3.793   3.456
    1TCM    cl3  342   2.724   3.622   3.296
    1TCM     c1  343   0.314   0.914   2.462
    1TCM    cl1  344   0.452   0.840   2.546
    1TCM    cl2  345   0.344   0.910   2.286
    1TCM     h1  346   0.222   0.857   2.485
    1TCM    cl3  347   0.295   1.082   2.515
    1TCM     c1  348   4.959   2.028   2.120
    1TCM    cl1  349   4.792   2.048   2.178
    1TCM    cl2  350   4.975   1.873   2.035
    1TCM     h1  351   4.984   2.111   2.051
    1TCM    cl3  352   5.070   2.031   2.259
    1TCM     c1  353   1.234   3.542   2.265
    1TCM    cl1  354   1.288   3.556   2.434
    1TCM    cl2  355   1.168   3.698   2.211
    1TCM     h1  356   1.320   3.514   2.201
    1TCM    cl3  357   1.107   3.417   2.253
    1TCM     c1  358   3.874   1.450   2.046
    1TCM    cl1  359   3.865   1.281   1.991
    1TCM    cl2  360   3.734   1.541   1.984
    1TCM     h1  361   3.874   1.453   2.157
    1TCM    cl3  362   4.024   1.524   1.985
    1TCM     c1  363   0.859   2.259   2.093
    1TCM    cl1  364   0.743   2.330   1.978
    1TCM    cl2  365   0.880   2.369   2.231
    1TCM     h1  366   0.820   2.162   2.129
    1TCM    cl3  367   1.015   2.235   2.012
    1TCM     c1  368   2.245   3.786   1.768
    1TCM    cl1  369   2.285   3.943   1.842
    1TCM    cl2  370   2.122   3.809   1.642
    1TCM     h1  371   2.337   3.743   1.722
    1TCM    cl3  372   2.183   3.676   1.893
    1TCM     c1  373   1.033   4.560   1.175
    1TCM    cl1  374   1.206   4.525   1.154
    1TCM    cl2  375   0.956   4.578   1.016
    1TCM     h1  376   0.985   4.477   1.230
    1TCM    cl3  377   1.013   4.711   1.268
    1TCM     c1  378   0.238   1.276   4.797
    1TCM    cl1  379   0.110   1.214   4.690
    1TCM    cl2  380   0.315   1.140   4.881
    1TCM     h1  381   0.314   1.329   4.736
    1TCM    cl3  382   0.167   1.387   4.916
    1TCM     c1  383   1.335   3.888   4.786
    1TCM    cl1  384   1.172   3.959   4.800
    1TCM    cl2  385   1.457   4.015   4.811
    1TCM     h1  386   1.347   3.809   4.863
    1TCM    cl3  387   1.355   3.818   4.624
    1TCM     c1  388   0.312   0.754   4.847
    1TCM    cl1  389   0.450   0.867   4.855
    1TCM    cl2  390   0.333   0.626   4.968
    1TCM     h1  391   0.218   0.810   4.868
    1TCM    cl3  392   0.304   0.682   4.684
    1TCM     c1  393   1.097   4.302   2.228
    1TCM    cl1  394   1.089   4.265   2.402
    1TCM    cl2  395   1.118   4.151   2.137
    1TCM     h1  396   1.003   4.352   2.196
    1TCM    cl3  397   1.235   4.410   2.197
    1TCM     c1  398   3.700   4.126   0.176
    1TCM    cl1  399   3.599   4.093   0.318
    1TCM    cl2  400   3.661   4.287   0.112
    1TCM     h1  401   3.807   4.123   0.205
    1TCM    cl3  402   3.669   4.004   0.051
    1TCM     c1  403   1.558   1.520   1.332
    1TCM    cl1  404   1.693   1.430   1.259
    1TCM    cl2  405   1.607   1.579   1.493
    1TCM     h1  406   1.533   1.607   1.267
    1TCM    cl3  407   1.417   1.414   1.348
    1TCM     c1  408   3.474   0.639   2.334
    1TCM    cl1  409   3.578   0.742   2.435
    1TCM    cl2  410   3.533   0.641   2.167
    1TCM     h1  411   3.476   0.535   2.373
    1TCM    cl3  412   3.307   0.701   2.339
    1TCM     c1  413   0.175   0.666   2.011
    1TCM    cl1  414   0.207   0.524   1.908
    1TCM    cl2  415   0.252   0.642   2.170
    1TCM     h1  416   0.218   0.756   1.963
    1TCM    cl3  417   0.000   0.686   2.032
    1TCM     c1  418   3.870   2.601   1.075
    1TCM    cl1  419   3.753   2.625   1.207
    1TCM    cl2  420   3.957   2.753   1.044
    1TCM     h1  421   3.943   2.522   1.103
    1TCM    cl3  422   3.783   2.551   0.928
    1TCM     c1  423   4.943   1.741   3.398
    1TCM    cl1  424   4.965   1.606   3.511
    1TCM    cl2  425   5.013   1.698   3.240
    1TCM     h1  426   4.834   1.761   3.385
    1TCM    cl3  427   5.023   1.886   3.461
    1TCM     c1  428   1.990   3.601   2.427
    1TCM    cl1  429   1.851   3.529   2.344
    1TCM    cl2  430   2.012   3.769   2.374
    1TCM     h1  431   1.973   3.599   2.537
    1TCM    cl3  432   2.137   3.507   2.389
    1TCM     c1  433   0.579   0.242   4.873
    1TCM    cl1  434   0.468   0.325   4.762
    1TCM    cl2  435   0.493   0.197   5.021
    1TCM     h1  436   0.619   0.151   4.824
    1TCM    cl3  437   0.714   0.351   4.913
    1TCM     c1  438   4.488   0.573   4.486
    1TCM    cl1  439   4.496   0.440   4.605
    1TCM    cl2  440   4.445   0.507   4.327
    1TCM     h1  441   4.411   0.646   4.518
    1TCM    cl3  442   4.646   0.653   4.476
    1TCM     c1  443   3.814   4.694   1.622
    1TCM    cl1  444   3.743   4.657   1.781
    1TCM    cl2  445   3.793   4.555   1.514
    1TCM     h1  446   3.762   4.783   1.578
    1TCM    cl3  447   3.987   4.730   1.641
    1TCM     c1  448   4.491   4.589   4.901
    1TCM    cl1  449   4.622   4.515   4.806
    1TCM    cl2  450   4.533   4.585   5.074
    1TCM     h1  451   4.476   4.694   4.869
    1TCM    cl3  452   4.340   4.497   4.875
    1TCM     c1  453   4.006   4.383   1.788
    1TCM    cl1  454   4.034   4.520   1.898
    1TCM    cl2  455   4.052   4.430   1.623
    1TCM     h1  456   4.068   4.297   1.821
    1TCM    cl3  457   3.835   4.338   1.792
    1TCM     c1  458   3.833   4.059   3.401
    1TCM    cl1  459   3.679   4.080   3.489
    1TCM    cl2  460   3.937   3.946   3.490
    1TCM     h1  461   3.812   4.019   3.300
    1TCM    cl3  462   3.915   4.216   3.388
    1TCM     c1  463   0.380   0.919   3.401
    1TCM    cl1  464   0.270   0.834   3.291
    1TCM    cl2  465   0.511   0.809   3.452
    1TCM     h1  466   0.424   1.007   3.349
    1TCM    cl3  467   0.290   0.974   3.545
    1TCM     c1  468   2.688   2.734   3.097
    1TCM    cl1  469   2.762   2.779   2.942
    1TCM    cl2  470   2.511   2.755   3.086
    1TCM     h1  471   2.711   2.629   3.121
    1TCM    cl3  472   2.751   2.839   3.226
    1TCM     c1  473   3.895   2.651   2.318
    1TCM    cl1  474   4.012   2.720   2.204
    1TCM    cl2  475   3.824   2.782   2.416
    1TCM     h1  476   3.814   2.599   2.262
    1TCM    cl3  477   3.976   2.534   2.425
    1TCM     c1  478   4.986   0.696   2.440
    1TCM    cl1  479   5.089   0.687   2.584
    1TCM    cl2  480   4.824   0.752   2.486
    1TCM     h1  481   5.030   0.767   2.367
    1TCM    cl3  482   4.974   0.535   2.365
    1TCM     c1  483   0.347   0.158   3.100
    1TCM    cl1  484   0.512   0.218   3.072
    1TCM    cl2  485   0.236   0.296   3.118
    1TCM     h1  486   0.315   0.096   3.013
    1TCM    cl3  487   0.344   0.059   3.247
    1TCM     c1  488   5.113   3.671   1.326
    1TCM    cl1  489   5.095   3.721   1.496
    1TCM    cl2  490   5.175   3.807   1.230
    1TCM     h1  491   5.183   3.586   1.320
    1TCM    cl3  492   4.954   3.621   1.263
    1TCM     c1  493   1.533   3.304   0.915
    1TCM    cl1  494   1.650   3.223   0.808
    1TCM    cl2  495   1.368   3.265   0.862
    1TCM     h1  496   1.548   3.268   1.019
    1TCM    cl3  497   1.558   3.480   0.908
    1TCM     c1  498   2.835   4.447   4.169
    1TCM    cl1  499   2.666   4.397   4.193
    1TCM    cl2  500   2.890   4.537   4.312
    1TCM     h1  501   2.898   4.357   4.155
    1TCM    cl3  502   2.846   4.550   4.025
    1TCM     c1  503   4.632   1.677   0.301
    1TCM    cl1  504   4.530   1.822   0.319
    1TCM    cl2  505   4.722   1.687   0.148
    1TCM     h1  506   4.703   1.671   0.386
    1TCM    cl3  507   4.529   1.532   0.299
    1TCM     c1  508   2.940   4.788   4.481
    1TCM    cl1  509   2.904   4.864   4.638
    1TCM    cl2  510   2.801   4.807   4.372
    1TCM     h1  511   3.029   4.837   4.436
    1TCM    cl3  512   2.973   4.615   4.505
    1TCM     c1  513   3.810   4.252   2.170
    1TCM    cl1  514   3.731   4.364   2.284
    1TCM    cl2  515   3.923   4.342   2.066
    1TCM     h1  516   3.866   4.175   2.227
    1TCM    cl3  517   3.687   4.173   2.070
    1TCM     c1  518   0.874   0.193   3.425
    1TCM    cl1  519   0.970   0.091   3.316
    1TCM    cl2  520   0.705   0.196   3.370
    1TCM     h1  521   0.879   0.152   3.528
    1TCM    cl3  522   0.939   0.359   3.424
    1TCM     c1  523   0.928   1.346   2.670
    1TCM    cl1  524   0.892   1.465   2.542
    1TCM    cl2  525   0.805   1.357   2.797
    1TCM     h1  526   0.928   1.244   2.626
    1TCM    cl3  527   1.089   1.380   2.739
    1TCM     c1  528   1.178   0.761   2.318
    1TCM    cl1  529   1.097   0.637   2.417
    1TCM    cl2  530   1.126   0.745   2.148
    1TCM     h1  531   1.152   0.862   2.355
    1TCM    cl3  532   1.354   0.738   2.328
    1TCM     c1  533   2.931   1.232   3.869
    1TCM    cl1  534   2.989   1.383   3.793
    1TCM    cl2  535   3.034   1.193   4.008
    1TCM     h1  536   2.826   1.246   3.903
    1TCM    cl3  537   2.938   1.100   3.751
    1TCM     c1  538   4.621   5.126   1.281
    1TCM    cl1  539   4.547   5.146   1.120
    1TCM    cl2  540   4.655   5.285   1.351
    1TCM     h1  541   4.551   5.070   1.347
    1TCM    cl3  542   4.773   5.034   1.265
    1TCM     c1  543   0.535   4.440   0.329
    1TCM    cl1  544   0.396   4.451   0.439
    1TCM    cl2  545   0.480   4.461   0.161
    1TCM     h1  546   0.608   4.520   0.354
    1TCM    cl3  547   0.613   4.282   0.347
    1TCM     c1  548   2.378   3.431   2.217
    1TCM    cl1  549   2.492   3.567   2.214
    1TCM    cl2  550   2.347   3.383   2.386
    1TCM     h1  551   2.282   3.461   2.170
    1TCM    cl3  552   2.447   3.293   2.129
    1TCM     c1  553   0.406   3.184   1.110
    1TCM    cl1  554   0.294   3.320   1.132
    1TCM    cl2  555   0.419   3.146   0.936
    1TCM     h1  556   0.506   3.211   1.149
    1TCM    cl3  557   0.344   3.041   1.196
    1TCM     c1  558   3.364   3.643   1.039
    1TCM    cl1  559   3.478   3.763   0.974
    1TCM    cl2  560   3.390   3.626   1.214
    1TCM     h1  561   3.260   3.677   1.020
    1TCM    cl3  562   3.391   3.487   0.959
    1TCM     c1  563   3.199   3.031   4.933
    1TCM    cl1  564   3.339   3.138   4.907
    1TCM    cl2  565   3.096   3.099   5.061
    1TCM     h1  566   3.141   3.023   4.839
    1TCM    cl3  567   3.256   2.870   4.982
    1TCM     c1  568   1.114   1.352   1.866
    1TCM    cl1  569   1.134   1.457   2.008
    1TCM    cl2  570   1.204   1.421   1.729
    1TCM     h1  571   1.153   1.251   1.889
    1TCM    cl3  572   0.942   1.341   1.824
    1TCM     c1  573   1.960   2.594   4.736
    1TCM    cl1  574   2.000   2.422   4.714
    1TCM    cl2  575   1.999   2.644   4.902
    1TCM     h1  576   2.018   2.655   4.664
    1TCM    cl3  577   1.786   2.619   4.706
    1TCM     c1  578   2.160   4.152   4.123
    1TCM    cl1  579   2.032   4.085   4.019
    1TCM    cl2  580   2.120   4.123   4.294
    1TCM     h1  581   2.257   4.102   4.099
    1TCM    cl3  582   2.174   4.327   4.094
    1TCM     c1  583   0.785   0.356   0.179
    1TCM    cl1  584   0.757   0.298   0.013
    1TCM    cl2  585   0.923   0.270   0.250
    1TCM     h1  586   0.806   0.465   0.176
    1TCM    cl3  587   0.640   0.327   0.277
    1TCM     c1  588   1.130   0.619   2.964
    1TCM    cl1  589   1.175   0.680   2.804
    1TCM    cl2  590   1.230   0.697   3.088
    1TCM     h1  591   1.023   0.641   2.984
    1TCM    cl3  592   1.156   0.443   2.970
    1TCM     c1  593   4.494   3.255   3.326
    1TCM    cl1  594   4.625   3.367   3.280
    1TCM    cl2  595   4.518   3.201   3.493
    1TCM     h1  596   4.396   3.307   3.318
    1TCM    cl3  597   4.495   3.115   3.217
    1TCM     c1  598   3.241   4.838   5.239
    1TCM    cl1  599   3.360   4.750   5.338
    1TCM    cl2  600   3.161   4.962   5.339
    1TCM     h1  601   3.292   4.887   5.154
    1TCM    cl3  602   3.119   4.725   5.178
    1TCM     c1  603   1.756   0.096   3.625
    1TCM    cl1  604   1.688   0.177   3.483
    1TCM    cl2  605   1.756   0.208   3.763
    1TCM     h1  606   1.694   0.007   3.650
    1TCM    cl3  607   1.922   0.044   3.591
    1TCM     c1  608   0.970   0.841   4.028
    1TCM    cl1  609   0.938   0.736   4.168
    1TCM    cl2  610   0.878   0.992   4.044
    1TCM     h1  611   1.079   0.865   4.023
    1TCM    cl3  612   0.922   0.757   3.879
    1TCM     c1  613   2.056   5.147   2.409
    1TCM    cl1  614   1.964   5.069   2.279
    1TCM    cl2  615   1.944   5.208   2.533
    1TCM     h1  616   2.124   5.073   2.455
    1TCM    cl3  617   2.151   5.282   2.342
    1TCM     c1  618   1.186   1.284   2.320
    1TCM    cl1  619   1.321   1.169   2.335
    1TCM    cl2  620   1.215   1.424   2.426
    1TCM     h1  621   1.178   1.318   2.215
    1TCM    cl3  622   1.035   1.204   2.368
    1TCM     c1  623   1.628   1.644   0.179
    1TCM    cl1  624   1.509   1.722   0.286
    1TCM    cl2  625   1.601   1.699   0.012
    1TCM     h1  626   1.730   1.672   0.212
    1TCM    cl3  627   1.609   1.468   0.188
    1TCM     c1  628   4.199   3.308   2.637
    1TCM    cl1  629   4.345   3.228   2.574
    1TCM    cl2  630   4.064   3.285   2.522
    1TCM     h1  631   4.172   3.264   2.735
    1TCM    cl3  632   4.230   3.482   2.657
    1TCM     c1  633   2.924   4.783   1.459
    1TCM    cl1  634   2.774   4.760   1.366
    1TCM    cl2  635   3.052   4.842   1.351
    1TCM     h1  636   2.906   4.857   1.540
    1TCM    cl3  637   2.974   4.628   1.531
    1TCM     c1  638   4.320   2.472   3.328
    1TCM    cl1  639   4.493   2.509   3.321
    1TCM    cl2  640   4.250   2.540   3.477
    1TCM     h1  641   4.269   2.517   3.240
    1TCM    cl3  642   4.297   2.296   3.326
    1TCM     c1  643   4.323   0.805   3.689
    1TCM    cl1  644   4.174   0.901   3.700
    1TCM    cl2  645   4.304   0.681   3.563
    1TCM     h1  646   4.408   0.871   3.663
    1TCM    cl3  647   4.355   0.726   3.845
    1TCM     c1  648   4.256   1.020   3.316
    1TCM    cl1  649   4.432   0.992   3.316
    1TCM    cl2  650   4.186   0.957   3.467
    1TCM     h1  651   4.236   1.129   3.308
    1TCM    cl3  652   4.183   0.937   3.177
    1TCM     c1  653   2.134   0.300   3.283
    1TCM    cl1  654   2.052   0.259   3.435
    1TCM    cl2  655   2.069   0.199   3.151
    1TCM     h1  656   2.116   0.407   3.259
    1TCM    cl3  657   2.309   0.270   3.299
    1TCM     c1  658   0.535   4.480   3.666
    1TCM    cl1  659   0.424   4.543   3.542
    1TCM    cl2  660   0.442   4.398   3.793
    1TCM     h1  661   0.605   4.409   3.619
    1TCM    cl3  662   0.626   4.615   3.737
    1TCM     c1  663   0.272   1.936   4.812
    1TCM    cl1  664   0.249   2.111   4.833
    1TCM    cl2  665   0.384   1.907   4.678
    1TCM     h1  666   0.313   1.892   4.905
    1TCM    cl3  667   0.115   1.859   4.775
    1TCM     c1  668   1.066   5.184   5.227
    1TCM    cl1  669   1.198   5.242   5.332
    1TCM    cl2  670   0.938   5.112   5.327
    1TCM     h1  671   1.025   5.269   5.169
    1TCM    cl3  672   1.130   5.062   5.115
    1TCM     c1  673   0.850   2.158   1.188
    1TCM    cl1  674   0.784   2.295   1.281
    1TCM    cl2  675   0.719   2.045   1.148
    1TCM     h1  676   0.896   2.196   1.095
    1TCM    cl3  677   0.973   2.074   1.286
    1TCM     c1  678   4.828   1.658   2.367
    1TCM    cl1  679   4.958   1.602   2.475
    1TCM    cl2  680   4.859   1.600   2.202
    1TCM     h1  681   4.731   1.619   2.402
    1TCM    cl3  682   4.824   1.836   2.367
    1TCM     c1  683   2.939   1.313   2.616
    1TCM    cl1  684   2.810   1.200   2.569
    1TCM    cl2  685   3.004   1.265   2.775
    1TCM     h1  686   3.020   1.311   2.541
    1TCM    cl3  687   2.873   1.478   2.627
    1TCM     c1  688   3.185   0.534   2.623
    1TCM    cl1  689   3.232   0.705   2.609
    1TCM    cl2  690   3.224   0.475   2.786
    1TCM     h1  691   3.076   0.524   2.605
    1TCM    cl3  692   3.274   0.438   2.502
    1TCM     c1  693   2.408   4.737   1.123
    1TCM    cl1  694   2.297   4.681   1.250
    1TCM    cl2  695   2.342   4.695   0.963
    1TCM     h1  696   2.419   4.847   1.130
    1TCM    cl3  697   2.566   4.659   1.144
    1TCM     c1  698   0.569   3.443   4.084
    1TCM    cl1  699   0.443   3.447   4.209
    1TCM    cl2  700   0.571   3.598   3.997
    1TCM     h1  701   0.668   3.426   4.131
    1TCM    cl3  702   0.535   3.311   3.970
    1TCM     c1  703   2.581   0.080   1.746
    1TCM    cl1  704   2.589   0.220   1.855
    1TCM    cl2  705   2.740  -0.000   1.741
    1TCM     h1  706   2.505   0.008   1.783
    1TCM    cl3  707   2.537   0.134   1.583
    1TCM     c1  708   2.665   4.927   3.678
    1TCM    cl1  709   2.533   4.906   3.795
    1TCM    cl2  710   2.605   5.018   3.537
    1TCM     h1  711   2.748   4.983   3.725
    1TCM    cl3  712   2.723   4.768   3.625
    1TCM     c1  713   3.648   3.595   4.859
    1TCM    cl1  714   3.636   3.604   5.036
    1TCM    cl2  715   3.644   3.424   4.808
    1TCM     h1  716   3.563   3.649   4.813
    1TCM    cl3  717   3.801   3.669   4.805
    1TCM     c1  718   1.773   0.311   4.676
    1TCM    cl1  719   1.781   0.173   4.788
    1TCM    cl2  720   1.610   0.323   4.608
    1TCM     h1  721   1.797   0.404   4.732
    1TCM    cl3  722   1.891   0.289   4.545
    1TCM     c1  723   3.424   3.771   1.905
    1TCM    cl1  724   3.342   3.923   1.947
    1TCM    cl2  725   3.544   3.802   1.777
    1TCM     h1  726   3.476   3.730   1.995
    1TCM    cl3  727   3.305   3.653   1.847
    1TCM     c1  728   0.198   2.805   2.234
    1TCM    cl1  729   0.059   2.710   2.293
    1TCM    cl2  730   0.251   2.740   2.077
    1TCM     h1  731   0.168   2.911   2.222
    1TCM    cl3  732   0.331   2.793   2.351
    1TCM     c1  733   1.814   0.943   3.563
    1TCM    cl1  734   1.881   0.821   3.675
    1TCM    cl2  735   1.815   1.102   3.642
    1TCM     h1  736   1.876   0.947   3.471
    1TCM    cl3  737   1.647   0.899   3.521
    1TCM     c1  738   1.444   4.586   3.681
    1TCM    cl1  739   1.403   4.435   3.765
    1TCM    cl2  740   1.369   4.587   3.520
    1TCM     h1  741   1.406   4.672   3.740
    1TCM    cl3  742   1.621   4.599   3.665
    1TCM     c1  743   1.329   3.234   3.552
    1TCM    cl1  744   1.254   3.174   3.403
    1TCM    cl2  745   1.297   3.120   3.685
    1TCM     h1  746   1.439   3.243   3.537
    1TCM    cl3  747   1.261   3.393   3.593
    1TCM     c1  748   4.872   2.356   2.494
    1TCM    cl1  749   4.729   2.462   2.509
    1TCM    cl2  750   4.906   2.327   2.322
    1TCM     h1  751   4.959   2.406   2.542
    1TCM    cl3  752   4.840   2.202   2.576
    1TCM     c1  753   2.221   1.074   1.552
    1TCM    cl1  754   2.242   1.251   1.550
    1TCM    cl2  755   2.059   1.033   1.493
    1TCM     h1  756   2.297   1.028   1.486
    1TCM    cl3  757   2.240   1.014   1.718
    1TCM     c1  758   1.354   0.180   3.726
    1TCM    cl1  759   1.321   0.294   3.593
    1TCM    cl2  760   1.243   0.212   3.861
    1TCM     h1  761   1.339   0.076   3.689
    1TCM    cl3  762   1.522   0.200   3.780
    1TCM     c1  763   4.325   3.728   2.979
    1TCM    cl1  764   4.266   3.674   3.137
    1TCM    cl2  765   4.253   3.886   2.939
    1TCM     h1  766   4.436   3.739   2.982
    1TCM    cl3  767   4.281   3.609   2.854
    1TCM     c1  768   4.479   1.315   4.007
    1TCM    cl1  769   4.322   1.232   3.992
    1TCM    cl2  770   4.591   1.250   3.885
    1TCM     h1  771   4.465   1.424   3.991
    1TCM    cl3  772   4.545   1.287   4.170
    1TCM     c1  773   3.773   1.558   2.989
    1TCM    cl1  774   3.687   1.408   2.951
    1TCM    cl2  775   3.893   1.591   2.862
    1TCM     h1  776   3.701   1.642   2.995
    1TCM    cl3  777   3.857   1.541   3.145
    1TCM     c1  778   4.968   4.094   3.353
    1TCM    cl1  779   5.141   4.119   3.323
    1TCM    cl2  780   4.909   4.220   3.464
    1TCM     h1  781   4.912   4.100   3.257
    1TCM    cl3  782   4.942   3.934   3.426
    1TCM     c1  783   0.462   1.845   0.573
    1TCM    cl1  784   0.292   1.808   0.610
    1TCM    cl2  785   0.566   1.716   0.637
    1TCM     h1  786   0.475   1.852   0.463
    1TCM    cl3  787   0.507   2.000   0.648
    1TCM     c1  788   3.671   1.799   3.649
    1TCM    cl1  789   3.594   1.849   3.801
    1TCM    cl2  790   3.580   1.867   3.512
    1TCM     h1  791   3.775   1.837   3.647
    1TCM    cl3  792   3.672   1.622   3.638
    1TCM     c1  793   1.456   2.427   2.979
    1TCM    cl1  794   1.390   2.319   3.104
    1TCM    cl2  795   1.389   2.590   3.001
    1TCM     h1  796   1.566   2.431   2.987
    1TCM    cl3  797   1.411   2.366   2.818
    1TCM     c1  798   0.319   3.068   0.196
    1TCM    cl1  799   0.179   2.986   0.269
    1TCM    cl2  800   0.280   3.118   0.031
    1TCM     h1  801   0.345   3.157   0.257
    1TCM    cl3  802   0.458   2.956   0.193
    1TCM     c1  803   0.820   4.643   5.036
    1TCM    cl1  804   0.756   4.632   4.870
    1TCM    cl2  805   0.774   4.497   5.126
    1TCM     h1  806   0.930   4.652   5.032
    1TCM    cl3  807   0.751   4.786   5.116
    1TCM     c1  808   4.676   4.879   0.158
    1TCM    cl1  809   4.711   5.021   0.056
    1TCM    cl2  810   4.679   4.927   0.329
    1TCM     h1  811   4.575   4.840   0.132
    1TCM    cl3  812   4.798   4.754   0.129
    1TCM     c1  813   0.833   1.497   0.669
    1TCM    cl1  814   0.670   1.427   0.668
    1TCM    cl2  815   0.939   1.405   0.559
    1TCM     h1  816   0.828   1.603   0.635
    1TCM    cl3  817   0.900   1.491   0.834
    1TCM     c1  818   2.404   0.403   3.565
    1TCM    cl1  819   2.422   0.575   3.607
    1TCM    cl2  820   2.391   0.306   3.713
    1TCM     h1  821   2.312   0.389   3.503
    1TCM    cl3  822   2.546   0.350   3.472
    1TCM     c1  823   0.565   1.429   3.383
    1TCM    cl1  824   0.719   1.421   3.471
    1TCM    cl2  825   0.562   1.577   3.283
    1TCM     h1  826   0.556   1.340   3.317
    1TCM    cl3  827   0.430   1.432   3.498
    1TCM     c1  828   0.300   4.502   5.057
    1TCM    cl1  829   0.394   4.613   5.158
    1TCM    cl2  830   0.404   4.437   4.928
    1TCM     h1  831   0.261   4.419   5.119
    1TCM    cl3  832   0.164   4.590   4.984
    1TCM     c1  833   4.304   1.420   2.213
    1TCM    cl1  834   4.394   1.551   2.293
    1TCM    cl2  835   4.341   1.420   2.039
    1TCM     h1  836   4.333   1.323   2.257
    1TCM    cl3  837   4.129   1.446   2.236
    1TCM     c1  838   1.497   0.669   1.796
    1TCM    cl1  839   1.588   0.521   1.760
    1TCM    cl2  840   1.505   0.702   1.971
    1TCM     h1  841   1.541   0.754   1.741
    1TCM    cl3  842   1.327   0.649   1.748
    1TCM     c1  843   0.163   5.119   3.483
    1TCM    cl1  844   0.275   5.228   3.567
    1TCM    cl2  845   0.020   5.091   3.585
    1TCM     h1  846   0.132   5.164   3.387
    1TCM    cl3  847   0.245   4.964   3.452
    1TCM     c1  848   2.005   1.774   3.514
    1TCM    cl1  849   1.849   1.693   3.488
    1TCM    cl2  850   2.053   1.858   3.364
    1TCM     h1  851   1.995   1.848   3.596
    1TCM    cl3  852   2.128   1.653   3.557
    1TCM     c1  853   2.653   3.596   3.829
    1TCM    cl1  854   2.484   3.586   3.884
    1TCM    cl2  855   2.748   3.466   3.905
    1TCM     h1  856   2.657   3.585   3.719
    1TCM    cl3  857   2.721   3.754   3.875
    1TCM     c1  858   0.848   1.380   3.717
    1TCM    cl1  859   1.024   1.388   3.693
    1TCM    cl2  860   0.812   1.365   3.891
    1TCM     h1  861   0.801   1.472   3.678
    1TCM    cl3  862   0.783   1.239   3.631
    1TCM     c1  863   0.796   4.429   1.936
    1TCM    cl1  864   0.778   4.352   1.777
    1TCM    cl2  865   0.669   4.371   2.045
    1TCM     h1  866   0.896   4.404   1.978
    1TCM    cl3  867   0.783   4.606   1.918
    1TCM     c1  868   3.729   4.171   2.608
    1TCM    cl1  869   3.591   4.216   2.504
    1TCM    cl2  870   3.671   4.146   2.774
    1TCM     h1  871   3.774   4.077   2.570
    1TCM    cl3  872   3.850   4.301   2.605
    1TCM     c1  873   0.630   2.551   3.547
    1TCM    cl1  874   0.736   2.532   3.405
    1TCM    cl2  875   0.555   2.395   3.586
    1TCM     h1  876   0.691   2.586   3.633
    1TCM    cl3  877   0.504   2.671   3.510
    1TCM     c1  878   1.704   3.963   1.806
    1TCM    cl1  879   1.839   3.914   1.702
    1TCM    cl2  880   1.758   3.966   1.975
    1TCM     h1  881   1.669   4.064   1.776
    1TCM    cl3  882   1.570   3.847   1.788
    1TCM     c1  883   1.613   1.480   2.628
    1TCM    cl1  884   1.637   1.306   2.601
    1TCM    cl2  885   1.764   1.550   2.692
    1TCM     h1  886   1.587   1.529   2.532
    1TCM    cl3  887   1.482   1.504   2.746
    1TCM     c1  888   3.952   0.132   4.041
    1TCM    cl1  889   3.878   0.024   4.161
    1TCM    cl2  890   3.901   0.083   3.877
    1TCM     h1  891   3.919   0.236   4.060
    1TCM    cl3  892   4.129   0.122   4.053
    1TCM     c1  893   0.162   4.567   4.577
    1TCM    cl1  894   0.260   4.553   4.429
    1TCM    cl2  895   0.266   4.620   4.712
    1TCM     h1  896   0.082   4.642   4.561
    1TCM    cl3  897   0.090   4.410   4.616
    1TCM     c1  898   0.986   1.845   0.801
    1TCM    cl1  899   1.075   1.949   0.687
    1TCM    cl2  900   1.005   1.908   0.966
    1TCM     h1  901   0.879   1.844   0.773
    1TCM    cl3  902   1.051   1.680   0.793
    1TCM     c1  903   2.710   2.809   0.419
    1TCM    cl1  904   2.691   2.974   0.356
    1TCM    cl2  905   2.670   2.692   0.291
    1TCM     h1  906   2.815   2.794   0.452
    1TCM    cl3  907   2.601   2.785   0.557
    1TCM     c1  908   3.671   1.388   3.449
    1TCM    cl1  909   3.516   1.438   3.378
    1TCM    cl2  910   3.732   1.245   3.362
    1TCM     h1  911   3.744   1.470   3.440
    1TCM    cl3  912   3.647   1.347   3.620
    1TCM     c1  913   3.503   0.328   1.964
    1TCM    cl1  914   3.366   0.220   1.926
    1TCM    cl2  915   3.578   0.384   1.812
    1TCM     h1  916   3.466   0.416   2.021
    1TCM    cl3  917   3.623   0.240   2.061
    1TCM     c1  918   3.867   2.552   1.493
    1TCM    cl1  919   3.843   2.728   1.486
    1TCM    cl2  920   3.916   2.506   1.658
    1TCM     h1  921   3.773   2.500   1.467
    1TCM    cl3  922   3.994   2.505   1.378
    1TCM     c1  923   2.974   4.258   2.662
    1TCM    cl1  924   2.960   4.328   2.825
    1TCM    cl2  925   2.964   4.081   2.673
    1TCM     h1  926   2.892   4.296   2.598
    1TCM    cl3  927   3.131   4.304   2.591
    1TCM     c1  928   4.462   1.114   2.764
    1TCM    cl1  929   4.351   0.993   2.696
    1TCM    cl2  930   4.495   1.075   2.935
    1TCM     h1  931   4.557   1.114   2.707
    1TCM    cl3  932   4.387   1.275   2.754
    1TCM     c1  933   1.002   2.060   5.086
    1TCM    cl1  934   1.033   2.228   5.132
    1TCM    cl2  935   0.962   1.965   5.231
    1TCM     h1  936   0.917   2.056   5.014
    1TCM    cl3  937   1.147   1.992   5.009
    1TCM     c1  938   2.374   4.614   4.636
    1TCM    cl1  939   2.278   4.762   4.647
    1TCM    cl2  940   2.413   4.556   4.799
    1TCM     h1  941   2.316   4.536   4.582
    1TCM    cl3  942   2.525   4.647   4.548
    1TCM     c1  943   2.381   5.231   5.055
    1TCM    cl1  944   2.529   5.283   4.970
    1TCM    cl2  945   2.426   5.154   5.209
    1TCM     h1  946   2.317   5.318   5.075
    1TCM    cl3  947   2.293   5.114   4.954
    1TCM     c1  948   2.005   1.270   3.042
    1TCM    cl1  949   1.940   1.428   3.090
    1TCM    cl2  950   2.157   1.294   2.951
    1TCM     h1  951   2.026   1.209   3.133
    1TCM    cl3  952   1.887   1.185   2.940
    1TCM     c1  953   1.924   2.225   5.146
    1TCM    cl1  954   2.026   2.275   5.284
    1TCM    cl2  955   1.908   2.048   5.145
    1TCM     h1  956   1.824   2.272   5.156
    1TCM    cl3  957   2.000   2.279   4.994
    1TCM     c1  958   2.133   1.752   1.560
    1TCM    cl1  959   2.206   1.913   1.565
    1TCM    cl2  960   2.257   1.629   1.592
    1TCM     h1  961   2.053   1.744   1.637
    1TCM    cl3  962   2.062   1.724   1.399
    1TCM     c1  963   2.684   2.650   0.860
    1TCM    cl1  964   2.842   2.699   0.924
    1TCM    cl2  965   2.701   2.603   0.689
    1TCM     h1  966   2.645   2.564   0.918
    1TCM    cl3  967   2.570   2.786   0.873
    1TCM     c1  968   3.040   1.477   1.996
    1TCM    cl1  969   3.124   1.331   1.940
    1TCM    cl2  970   3.130   1.622   1.944
    1TCM     h1  971   2.938   1.480   1.953
    1TCM    cl3  972   3.030   1.475   2.174
    1TCM     c1  973   4.640   4.588   2.749
    1TCM    cl1  974   4.539   4.733   2.776
    1TCM    cl2  975   4.695   4.585   2.580
    1TCM     h1  976   4.727   4.591   2.817
    1TCM    cl3  977   4.544   4.443   2.783
    1TCM     c1  978   3.243   0.404   4.834
    1TCM    cl1  979   3.135   0.307   4.937
    1TCM    cl2  980   3.182   0.406   4.668
    1TCM     h1  981   3.248   0.508   4.873
    1TCM    cl3  982   3.406   0.333   4.837
    1TCM     c1  983   3.972   3.990   4.126
    1TCM    cl1  984   4.119   4.022   4.220
    1TCM    cl2  985   3.911   4.142   4.057
    1TCM     h1  986   3.995   3.919   4.044
    1TCM    cl3  987   3.848   3.920   4.233
    1TCM     c1  988   2.017   1.427   2.632
    1TCM    cl1  989   2.163   1.331   2.599
    1TCM    cl2  990   2.062   1.597   2.655
    1TCM     h1  991   1.947   1.418   2.546
    1TCM    cl3  992   1.939   1.366   2.779
    1TCM     c1  993   2.676   0.474   0.140
    1TCM    cl1  994   2.514   0.541   0.108
    1TCM    cl2  995   2.710   0.484   0.314
    1TCM     h1  996   2.679   0.368   0.108
    1TCM    cl3  997   2.798   0.567   0.050
    1TCM     c1  998   2.410   2.953   2.045
    1TCM    cl1  999   2.548   3.062   2.020
    1TCM    cl2 1000   2.325   2.997   2.194
    1TCM     h1 1001   2.340   2.961   1.959
    1TCM    cl3 1002   2.468   2.785   2.057
    1TCM     c1 1003   1.091   4.947   1.608
    1TCM    cl1 1004   0.995   5.055   1.711
    1TCM    cl2 1005   1.088   5.007   1.440
    1TCM     h1 1006   1.196   4.945   1.644
    1TCM    cl3 1007   1.023   4.783   1.613
    1TCM     c1 1008   4.237   2.314   4.424
    1TCM    cl1 1009   4.335   2.450   4.485
    1TCM    cl2 1010   4.345   2.183   4.372
    1TCM     h1 1011   4.170   2.278   4.504
    1TCM    cl3 1012   4.140   2.369   4.285
    1TCM     c1 1013   1.890   5.087   5.191
    1TCM    cl1 1014   1.745   5.170   5.253
    1TCM    cl2 1015   1.841   4.938   5.106
    1TCM     h1 1016   1.943   5.153   5.121
    1TCM    cl3 1017   1.997   5.045   5.327
    1TCM     c1 1018   3.499   3.858   0.539
    1TCM    cl1 1019   3.433   3.853   0.374
    1TCM    cl2 1020   3.484   4.023   0.605
    1TCM     h1 1021   3.443   3.787   0.604
    1TCM    cl3 1022   3.671   3.812   0.536
    1TCM     c1 1023   4.665   0.992   1.072
    1TCM    cl1 1024   4.582   0.862   0.983
    1TCM    cl2 1025   4.747   0.923   1.214
    1TCM     h1 1026   4.739   1.040   1.006
    1TCM    cl3 1027   4.545   1.112   1.125
    1TCM     c1 1028   4.116   1.895   2.035
    1TCM    cl1 1029   4.284   1.949   2.058
    1TCM    cl2 1030   4.013   1.970   2.159
    1TCM     h1 1031   4.081   1.926   1.934
    1TCM    cl3 1032   4.108   1.718   2.050
    1TCM     c1 1033   4.121   1.731   0.148
    1TCM    cl1 1034   4.249   1.761   0.029
    1TCM    cl2 1035   4.074   1.885   0.224
    1TCM     h1 1036   4.033   1.686   0.098
    1TCM    cl3 1037   4.181   1.620   0.273
    1TCM     c1 1038   4.004   3.260   4.815
    1TCM    cl1 1039   4.064   3.100   4.865
    1TCM    cl2 1040   3.827   3.265   4.831
    1TCM     h1 1041   4.049   3.338   4.880
    1TCM    cl3 1042   4.050   3.291   4.646
    1TCM     c1 1043   1.221   0.527   3.848
    1TCM    cl1 1044   1.194   0.658   3.731
    1TCM    cl2 1045   1.207   0.591   4.013
    1TCM     h1 1046   1.145   0.447   3.833
    1TCM    cl3 1047   1.383   0.458   3.824
    1TCM     c1 1048   3.584   0.357   1.428
    1TCM    cl1 1049   3.558   0.190   1.482
    1TCM    cl2 1050   3.690   0.441   1.544
    1TCM     h1 1051   3.633   0.356   1.328
    1TCM    cl3 1052   3.428   0.441   1.418
    1TCM     c1 1053   1.278   0.173   4.249
    1TCM    cl1 1054   1.234   0.235   4.410
    1TCM    cl2 1055   1.240   0.295   4.126
    1TCM     h1 1056   1.387   0.151   4.247
    1TCM    cl3 1057   1.188   0.024   4.216
    1TCM     c1 1058   2.260   1.083   4.191
    1TCM    cl1 1059   2.364   1.223   4.222
    1TCM    cl2 1060   2.156   1.054   4.333
    1TCM     h1 1061   2.196   1.103   4.102
    1TCM    cl3 1062   2.360   0.939   4.161
    1TCM     c1 1063   3.352   0.784   0.418
    1TCM    cl1 1064   3.319   0.850   0.256
    1TCM    cl2 1065   3.219   0.828   0.528
    1TCM     h1 1066   3.359   0.673   0.412
    1TCM    cl3 1067   3.505   0.850   0.480
    1TCM     c1 1068   1.657   2.209   2.760
    1TCM    cl1 1069   1.705   2.072   2.863
    1TCM    cl2 1070   1.489   2.187   2.707
    1TCM     h1 1071   1.666   2.303   2.817
    1TCM    cl3 1072   1.763   2.215   2.617
    1TCM     c1 1073   4.954   4.027   4.668
    1TCM    cl1 1074   5.111   4.105   4.701
    1TCM    cl2 1075   4.954   3.863   4.736
    1TCM     h1 1076   4.873   4.086   4.714
    1TCM    cl3 1077   4.929   4.018   4.492
    1TCM     c1 1078   0.849   0.972   2.753
    1TCM    cl1 1079   0.834   1.117   2.854
    1TCM    cl2 1080   0.943   0.848   2.839
    1TCM     h1 1081   0.748   0.932   2.730
    1TCM    cl3 1082   0.932   1.014   2.601
    1TCM     c1 1083   4.715   0.979   3.664
    1TCM    cl1 1084   4.795   0.861   3.557
    1TCM    cl2 1085   4.620   1.093   3.565
    1TCM     h1 1086   4.648   0.925   3.734
    1TCM    cl3 1087   4.838   1.068   3.756
    1TCM     c1 1088   5.092   4.823   0.642
    1TCM    cl1 1089   4.947   4.917   0.600
    1TCM    cl2 1090   5.077   4.659   0.574
    1TCM     h1 1091   5.182   4.872   0.600
    1TCM    cl3 1092   5.107   4.813   0.819
    1TCM     c1 1093   0.719   3.388   0.351
    1TCM    cl1 1094   0.796   3.438   0.503
    1TCM    cl2 1095   0.783   3.485   0.217
    1TCM     h1 1096   0.740   3.280   0.332
    1TCM    cl3 1097   0.543   3.412   0.362
    1TCM     c1 1098   1.225   2.494   4.728
    1TCM    cl1 1099   1.300   2.363   4.821
    1TCM    cl2 1100   1.277   2.483   4.558
    1TCM     h1 1101   1.115   2.486   4.734
    1TCM    cl3 1102   1.276   2.651   4.795
    1TCM     c1 1103   1.609   4.119   0.106
    1TCM    cl1 1104   1.717   4.230   0.192
    1TCM    cl2 1105   1.448   4.122   0.183
    1TCM     h1 1106   1.600   4.150   0.000
    1TCM    cl3 1107   1.675   3.954   0.113
    1TCM     c1 1108   0.693   3.259   0.714
    1TCM    cl1 1109   0.693   3.118   0.823
    1TCM    cl2 1110   0.681   3.204   0.545
    1TCM     h1 1111   0.606   3.324   0.738
    1TCM    cl3 1112   0.843   3.351   0.736
    1TCM     c1 1113   4.258   1.650   2.609
    1TCM    cl1 1114   4.173   1.557   2.734
    1TCM    cl2 1115   4.203   1.598   2.449
    1TCM     h1 1116   4.237   1.758   2.623
    1TCM    cl3 1117   4.433   1.622   2.624
    1TCM     c1 1118   2.073   0.616   4.417
    1TCM    cl1 1119   2.013   0.761   4.334
    1TCM    cl2 1120   2.015   0.615   4.585
    1TCM     h1 1121   2.037   0.525   4.365
    1TCM    cl3 1122   2.251   0.617   4.416
    1TCM     c1 1123   0.451   0.140   2.558
    1TCM    cl1 1124   0.338   0.142   2.421
    1TCM    cl2 1125   0.361   0.130   2.710
    1TCM     h1 1126   0.519   0.053   2.549
    1TCM    cl3 1127   0.548   0.290   2.556
    1TCM     c1 1128   1.842   4.590   4.429
    1TCM    cl1 1129   1.899   4.440   4.506
    1TCM    cl2 1130   1.977   4.704   4.413
    1TCM     h1 1131   1.801   4.567   4.328
    1TCM    cl3 1132   1.714   4.663   4.529
    1TCM     c1 1133   4.248   4.656   1.493
    1TCM    cl1 1134   4.352   4.799   1.510
    1TCM    cl2 1135   4.176   4.617   1.651
    1TCM     h1 1136   4.167   4.678   1.420
    1TCM    cl3 1137   4.345   4.519   1.436
    1TCM     c1 1138   1.097   2.627   0.557
    1TCM    cl1 1139   0.927   2.584   0.584
    1TCM    cl2 1140   1.163   2.525   0.427
    1TCM     h1 1141   1.104   2.734   0.528
    1TCM    cl3 1142   1.190   2.599   0.706
    1TCM     c1 1143   1.422   1.064   4.303
    1TCM    cl1 1144   1.398   1.181   4.435
    1TCM    cl2 1145   1.418   1.150   4.147
    1TCM     h1 1146   1.520   1.014   4.315
    1TCM    cl3 1147   1.292   0.943   4.307
    1TCM     c1 1148   1.901   1.540   0.890
    1TCM    cl1 1149   1.855   1.419   1.012
    1TCM    cl2 1150   1.815   1.506   0.738
    1TCM     h1 1151   1.873   1.641   0.927
    1TCM    cl3 1152   2.076   1.533   0.862
    1TCM     c1 1153   1.270   4.604   1.444
    1TCM    cl1 1154   1.388   4.680   1.336
    1TCM    cl2 1155   1.273   4.685   1.603
    1TCM     h1 1156   1.168   4.613   1.400
    1TCM    cl3 1157   1.311   4.432   1.465
    1TCM     c1 1158   5.125   2.791   2.620
    1TCM    cl1 1159   4.954   2.772   2.575
    1TCM    cl2 1160   5.219   2.844   2.479
    1TCM     h1 1161   5.133   2.868   2.701
    1TCM    cl3 1162   5.188   2.636   2.679
    1TCM     c1 1163   0.912   2.457   0.221
    1TCM    cl1 1164   1.085   2.415   0.217
    1TCM    cl2 1165   0.848   2.463   0.055
    1TCM     h1 1166   0.857   2.380   0.280
    1TCM    cl3 1167   0.891   2.616   0.298
    1TCM     c1 1168   3.659   4.781   3.342
    1TCM    cl1 1169   3.580   4.828   3.190
    1TCM    cl2 1170   3.664   4.920   3.452
    1TCM     h1 1171   3.602   4.699   3.389
    1TCM    cl3 1172   3.825   4.726   3.308
    1TCM     c1 1173   2.151   1.041   2.445
    1TCM    cl1 1174   2.152   0.938   2.300
    1TCM    cl2 1175   2.151   0.938   2.590
    1TCM     h1 1176   2.241   1.105   2.446
    1TCM    cl3 1177   2.005   1.142   2.444
    1TCM     c1 1178   0.694   4.581   4.492
    1TCM    cl1 1179   0.864   4.620   4.458
    1TCM    cl2 1180   0.596   4.729   4.481
    1TCM     h1 1181   0.657   4.507   4.418
    1TCM    cl3 1182   0.680   4.514   4.656
    1TCM     c1 1183   2.056   4.868   3.924
    1TCM    cl1 1184   2.006   4.821   4.089
    1TCM    cl2 1185   1.928   4.824   3.809
    1TCM     h1 1186   2.073   4.977   3.921
    1TCM    cl3 1187   2.206   4.783   3.882
    1TCM     c1 1188   1.198   0.292   1.255
    1TCM    cl1 1189   1.349   0.386   1.255
    1TCM    cl2 1190   1.101   0.336   1.112
    1TCM     h1 1191   1.222   0.184   1.251
    1TCM    cl3 1192   1.105   0.327   1.403
    1TCM     c1 1193   2.549   3.123   1.092
    1TCM    cl1 1194   2.687   3.015   1.064
    1TCM    cl2 1195   2.509   3.125   1.266
    1TCM     h1 1196   2.575   3.226   1.060
    1TCM    cl3 1197   2.408   3.066   1.000
    1TCM     c1 1198   1.015   3.620   1.106
    1TCM    cl1 1199   0.852   3.668   1.158
    1TCM    cl2 1200   1.136   3.728   1.180
    1TCM     h1 1201   1.035   3.515   1.138
    1TCM    cl3 1202   1.027   3.631   0.929
    1TCM     c1 1203   3.771   2.386   2.047
    1TCM    cl1 1204   3.832   2.457   1.895
    1TCM    cl2 1205   3.679   2.238   2.011
    1TCM     h1 1206   3.857   2.362   2.113
    1TCM    cl3 1207   3.665   2.504   2.128
    1TCM     c1 1208   2.732   2.461   1.260
    1TCM    cl1 1209   2.810   2.610   1.203
    1TCM    cl2 1210   2.856   2.341   1.304
    1TCM     h1 1211   2.669   2.484   1.349
    1TCM    cl3 1212   2.629   2.395   1.131
    1TCM     c1 1213   2.747   3.498   4.295
    1TCM    cl1 1214   2.652   3.493   4.144
    1TCM    cl2 1215   2.754   3.666   4.354
    1TCM     h1 1216   2.698   3.434   4.371
    1TCM    cl3 1217   2.911   3.439   4.263
    1TCM     c1 1218   1.142   2.838   4.156
    1TCM    cl1 1219   1.273   2.951   4.113
    1TCM    cl2 1220   1.210   2.675   4.176
    1TCM     h1 1221   1.096   2.871   4.252
    1TCM    cl3 1222   1.020   2.837   4.028
    1TCM     c1 1223   1.533   2.988   3.475
    1TCM    cl1 1224   1.605   3.033   3.631
    1TCM    cl2 1225   1.366   2.932   3.500
    1TCM     h1 1226   1.533   3.076   3.407
    1TCM    cl3 1227   1.629   2.857   3.402
    1TCM     c1 1228   3.812   4.804   3.983
    1TCM    cl1 1229   3.821   4.649   4.069
    1TCM    cl2 1230   3.743   4.778   3.820
    1TCM     h1 1231   3.747   4.874   4.039
    1TCM    cl3 1232   3.975   4.873   3.967
    1TCM     c1 1233   0.184   3.225   0.511
    1TCM    cl1 1234   0.074   3.119   0.420
    1TCM    cl2 1235   0.188   3.175   0.681
    1TCM     h1 1236   0.287   3.218   0.468
    1TCM    cl3 1237   0.127   3.393   0.501
    1TCM     c1 1238   1.453   2.344   5.148
    1TCM    cl1 1239   1.485   2.251   5.296
    1TCM    cl2 1240   1.404   2.233   5.018
    1TCM     h1 1241   1.371   2.417   5.167
    1TCM    cl3 1242   1.600   2.431   5.099
    1TCM     c1 1243   0.294   1.906   3.057
    1TCM    cl1 1244   0.252   1.815   2.910
    1TCM    cl2 1245   0.253   1.809   3.201
    1TCM     h1 1246   0.402   1.929   3.058
    1TCM    cl3 1247   0.201   2.058   3.061
    1TCM     c1 1248   3.645   0.275   5.046
    1TCM    cl1 1249   3.609   0.170   4.907
    1TCM    cl2 1250   3.682   0.439   4.989
    1TCM     h1 1251   3.557   0.278   5.114
    1TCM    cl3 1252   3.785   0.210   5.134
    1TCM     c1 1253   1.773   2.763   2.149
    1TCM    cl1 1254   1.802   2.924   2.078
    1TCM    cl2 1255   1.599   2.730   2.152
    1TCM     h1 1256   1.824   2.686   2.088
    1TCM    cl3 1257   1.837   2.760   2.315
    1TCM     c1 1258   4.205   0.609   4.284
    1TCM    cl1 1259   4.218   0.706   4.432
    1TCM    cl2 1260   4.332   0.658   4.169
    1TCM     h1 1261   4.218   0.501   4.308
    1TCM    cl3 1262   4.045   0.634   4.209
    1TCM     c1 1263   0.345   3.835   1.612
    1TCM    cl1 1264   0.398   3.759   1.459
    1TCM    cl2 1265   0.221   3.733   1.688
    1TCM     h1 1266   0.431   3.845   1.680
    1TCM    cl3 1267   0.277   3.996   1.578
    1TCM     c1 1268   0.228   1.622   0.923
    1TCM    cl1 1269   0.326   1.743   0.837
    1TCM    cl2 1270   0.111   1.704   1.027
    1TCM     h1 1271   0.174   1.559   0.849
    1TCM    cl3 1272   0.334   1.519   1.022
    1TCM     c1 1273   3.757   2.622   2.795
    1TCM    cl1 1274   3.599   2.685   2.743
    1TCM    cl2 1275   3.778   2.650   2.969
    1TCM     h1 1276   3.761   2.513   2.773
    1TCM    cl3 1277   3.886   2.706   2.705
    1TCM     c1 1278   0.278   4.867   2.879
    1TCM    cl1 1279   0.214   5.031   2.854
    1TCM    cl2 1280   0.165   4.774   2.980
    1TCM     h1 1281   0.289   4.817   2.781
    1TCM    cl3 1282   0.436   4.877   2.960
    1TCM     c1 1283   0.124   4.634   2.457
    1TCM    cl1 1284   0.083   4.542   2.310
    1TCM    cl2 1285   0.033   4.568   2.594
    1TCM     h1 1286   0.233   4.625   2.476
    1TCM    cl3 1287   0.081   4.805   2.433
    1TCM     c1 1288   0.536   2.481   2.320
    1TCM    cl1 1289   0.396   2.409   2.402
    1TCM    cl2 1290   0.503   2.652   2.284
    1TCM     h1 1291   0.626   2.474   2.385
    1TCM    cl3 1292   0.567   2.394   2.168
    1TCM     c1 1293   0.667   4.058   2.905
    1TCM    cl1 1294   0.571   3.929   2.828
    1TCM    cl2 1295   0.791   4.115   2.791
    1TCM     h1 1296   0.600   4.142   2.932
    1TCM    cl3 1297   0.745   3.994   3.051
    1TCM     c1 1298   2.408   0.720   3.975
    1TCM    cl1 1299   2.259   0.695   4.069
    1TCM    cl2 1300   2.388   0.650   3.813
    1TCM     h1 1301   2.428   0.829   3.966
    1TCM    cl3 1302   2.544   0.641   4.058
    1TCM     c1 1303   1.855   2.104   2.175
    1TCM    cl1 1304   1.983   1.981   2.191
    1TCM    cl2 1305   1.807   2.160   2.337
    1TCM     h1 1306   1.893   2.190   2.117
    1TCM    cl3 1307   1.714   2.034   2.093
    1TCM     c1 1308   0.894   3.184   2.428
    1TCM    cl1 1309   0.992   3.208   2.281
    1TCM    cl2 1310   0.727   3.237   2.398
    1TCM     h1 1311   0.894   3.076   2.455
    1TCM    cl3 1312   0.963   3.279   2.561
    1TCM     c1 1313   4.719   3.701   3.116
    1TCM    cl1 1314   4.852   3.652   3.224
    1TCM    cl2 1315   4.734   3.874   3.079
    1TCM     h1 1316   4.724   3.642   3.023
    1TCM    cl3 1317   4.563   3.672   3.197
    1TCM     c1 1318   4.257   1.102   4.536
    1TCM    cl1 1319   4.186   1.198   4.404
    1TCM    cl2 1320   4.254   0.929   4.491
    1TCM     h1 1321   4.361   1.134   4.553
    1TCM    cl3 1322   4.162   1.126   4.684
    1TCM     c1 1323   0.150   3.142   4.661
    1TCM    cl1 1324   0.234   3.191   4.810
    1TCM    cl2 1325   0.255   3.172   4.521
    1TCM     h1 1326   0.125   3.034   4.666
    1TCM    cl3 1327   0.000   3.237   4.643
    1TCM     c1 1328   1.183   1.918   0.370
    1TCM    cl1 1329   1.294   1.936   0.233
    1TCM    cl2 1330   1.273   1.941   0.522
    1TCM     h1 1331   1.103   1.995   0.363
    1TCM    cl3 1332   1.111   1.756   0.368
    1TCM     c1 1333   1.899   2.194   1.777
    1TCM    cl1 1334   2.013   2.114   1.887
    1TCM    cl2 1335   1.932   2.369   1.775
    1TCM     h1 1336   1.912   2.153   1.674
    1TCM    cl3 1337   1.733   2.166   1.832
    1TCM     c1 1338   2.585   4.516   3.895
    1TCM    cl1 1339   2.409   4.496   3.884
    1TCM    cl2 1340   2.636   4.653   3.794
    1TCM     h1 1341   2.614   4.535   4.001
    1TCM    cl3 1342   2.665   4.367   3.839
    1TCM     c1 1343   3.315   0.577   1.753
    1TCM    cl1 1344   3.449   0.656   1.839
    1TCM    cl2 1345   3.341   0.592   1.577
    1TCM     h1 1346   3.310   0.470   1.780
    1TCM    cl3 1347   3.161   0.656   1.796
    1TCM     c1 1348   2.477   4.800   4.899
    1TCM    cl1 1349   2.573   4.929   4.974
    1TCM    cl2 1350   2.512   4.794   4.725
    1TCM     h1 1351   2.502   4.703   4.945
    1TCM    cl3 1352   2.304   4.834   4.922
    1TCM     c1 1353   2.664   1.874   3.435
    1TCM    cl1 1354   2.628   1.732   3.333
    1TCM    cl2 1355   2.810   1.955   3.375
    1TCM     h1 1356   2.578   1.944   3.431
    1TCM    cl3 1357   2.690   1.821   3.603
    1TCM     c1 1358   0.873   1.702   4.915
    1TCM    cl1 1359   1.029   1.677   4.997
    1TCM    cl2 1360   0.744   1.715   5.037
    1TCM     h1 1361   0.877   1.795   4.855
    1TCM    cl3 1362   0.840   1.564   4.808
    1TCM     c1 1363   3.148   1.158   3.115
    1TCM    cl1 1364   3.060   1.076   3.246
    1TCM    cl2 1365   3.321   1.118   3.127
    1TCM     h1 1366   3.109   1.123   3.017
    1TCM    cl3 1367   3.126   1.333   3.130
    1TCM     c1 1368   3.749   0.816   1.708
    1TCM    cl1 1369   3.671   0.688   1.804
    1TCM    cl2 1370   3.753   0.767   1.537
    1TCM     h1 1371   3.692   0.910   1.719
    1TCM    cl3 1372   3.915   0.840   1.767
    1TCM     c1 1373   0.479   0.382   0.687
    1TCM    cl1 1374   0.571   0.268   0.787
    1TCM    cl2 1375   0.585   0.516   0.636
    1TCM     h1 1376   0.440   0.330   0.597
    1TCM    cl3 1377   0.343   0.447   0.781
    1TCM     c1 1378   0.855   3.828   3.747
    1TCM    cl1 1379   1.013   3.859   3.824
    1TCM    cl2 1380   0.725   3.889   3.851
    1TCM     h1 1381   0.851   3.880   3.649
    1TCM    cl3 1382   0.835   3.653   3.723
    1TCM     c1 1383   5.229   4.245   4.442
    1TCM    cl1 1384   5.179   4.402   4.510
    1TCM    cl2 1385   5.339   4.165   4.556
    1TCM     h1 1386   5.139   4.182   4.426
    1TCM    cl3 1387   5.311   4.271   4.287
    1TCM     c1 1388   3.754   1.792   0.940
    1TCM    cl1 1389   3.864   1.848   1.068
    1TCM    cl2 1390   3.832   1.811   0.782
    1TCM     h1 1391   3.730   1.685   0.957
    1TCM    cl3 1392   3.605   1.888   0.945
    1TCM     c1 1393   3.430   4.487   3.775
    1TCM    cl1 1394   3.543   4.551   3.653
    1TCM    cl2 1395   3.521   4.438   3.920
    1TCM     h1 1396   3.356   4.565   3.802
    1TCM    cl3 1397   3.345   4.346   3.708
    1TCM     c1 1398   1.746   4.746   3.265
    1TCM    cl1 1399   1.735   4.604   3.371
    1TCM    cl2 1400   1.694   4.703   3.101
    1TCM     h1 1401   1.681   4.827   3.305
    1TCM    cl3 1402   1.914   4.804   3.261
    1TCM     c1 1403   2.554   0.567   2.622
    1TCM    cl1 1404   2.632   0.477   2.490
    1TCM    cl2 1405   2.543   0.739   2.578
    1TCM     h1 1406   2.452   0.527   2.638
    1TCM    cl3 1407   2.649   0.550   2.771
    1TCM     c1 1408   3.323   2.128   4.228
    1TCM    cl1 1409   3.422   2.213   4.349
    1TCM    cl2 1410   3.220   2.245   4.142
    1TCM     h1 1411   3.389   2.076   4.156
    1TCM    cl3 1412   3.220   2.008   4.310
    1TCM     c1 1413   2.970   2.480   0.595
    1TCM    cl1 1414   2.885   2.346   0.677
    1TCM    cl2 1415   3.062   2.573   0.715
    1TCM     h1 1416   3.039   2.439   0.518
    1TCM    cl3 1417   2.851   2.586   0.516
    1TCM     c1 1418   1.593   0.432   5.030
    1TCM    cl1 1419   1.726   0.518   4.948
    1TCM    cl2 1420   1.660   0.303   5.132
    1TCM     h1 1421   1.537   0.504   5.094
    1TCM    cl3 1422   1.484   0.362   4.909
    1TCM     c1 1423   0.751   1.635   1.667
    1TCM    cl1 1424   0.789   1.756   1.543
    1TCM    cl2 1425   0.679   1.716   1.808
    1TCM     h1 1426   0.679   1.561   1.627
    1TCM    cl3 1427   0.900   1.551   1.717
    1TCM     c1 1428   4.967   3.185   0.277
    1TCM    cl1 1429   4.887   3.212   0.434
    1TCM    cl2 1430   4.998   3.011   0.256
    1TCM     h1 1431   4.900   3.220   0.196
    1TCM    cl3 1432   5.121   3.273   0.273
    1TCM     c1 1433   0.679   1.717   4.023
    1TCM    cl1 1434   0.697   1.576   3.915
    1TCM    cl2 1435   0.511   1.728   4.078
    1TCM     h1 1436   0.747   1.704   4.110
    1TCM    cl3 1437   0.723   1.865   3.935
    1TCM     c1 1438   0.969   0.788   0.426
    1TCM    cl1 1439   1.077   0.673   0.508
    1TCM    cl2 1440   0.941   0.928   0.532
    1TCM     h1 1441   1.016   0.822   0.332
    1TCM    cl3 1442   0.814   0.709   0.391
    1TCM     c1 1443   3.490   4.930   4.866
    1TCM    cl1 1444   3.349   4.987   4.775
    1TCM    cl2 1445   3.453   4.774   4.942
    1TCM     h1 1446   3.576   4.918   4.797
    1TCM    cl3 1447   3.531   5.049   4.992
    1TCM     c1 1448   3.094   3.879   3.597
    1TCM    cl1 1449   3.018   3.851   3.755
    1TCM    cl2 1450   3.196   3.739   3.555
    1TCM     h1 1451   3.016   3.892   3.520
    1TCM    cl3 1452   3.195   4.025   3.605
    1TCM     c1 1453   2.921   4.275   3.260
    1TCM    cl1 1454   2.986   4.134   3.347
    1TCM    cl2 1455   2.969   4.266   3.089
    1TCM     h1 1456   2.810   4.274   3.267
    1TCM    cl3 1457   2.985   4.424   3.332
    1TCM     c1 1458   3.513   1.334   2.679
    1TCM    cl1 1459   3.545   1.503   2.632
    1TCM    cl2 1460   3.429   1.331   2.836
    1TCM     h1 1461   3.449   1.286   2.602
    1TCM    cl3 1462   3.667   1.246   2.693
    1TCM     c1 1463   4.570   2.102   5.140
    1TCM    cl1 1464   4.414   2.184   5.115
    1TCM    cl2 1465   4.574   2.031   5.303
    1TCM     h1 1466   4.582   2.022   5.064
    1TCM    cl3 1467   4.702   2.220   5.124
    1TCM     c1 1468   3.174   2.240   0.791
    1TCM    cl1 1469   3.206   2.279   0.961
    1TCM    cl2 1470   3.035   2.130   0.781
    1TCM     h1 1471   3.151   2.334   0.736
    1TCM    cl3 1472   3.316   2.163   0.719
    1TCM     c1 1473   4.644   4.838   1.533
    1TCM    cl1 1474   4.742   4.837   1.385
    1TCM    cl2 1475   4.736   4.915   1.664
    1TCM     h1 1476   4.550   4.895   1.515
    1TCM    cl3 1477   4.604   4.671   1.579
    1TCM     c1 1478   4.675   0.719   3.260
    1TCM    cl1 1479   4.573   0.636   3.140
    1TCM    cl2 1480   4.581   0.746   3.408
    1TCM     h1 1481   4.763   0.655   3.283
    1TCM    cl3 1482   4.730   0.875   3.194
    1TCM     c1 1483   3.557   2.219   0.447
    1TCM    cl1 1484   3.580   2.046   0.485
    1TCM    cl2 1485   3.503   2.235   0.278
    1TCM     h1 1486   3.480   2.261   0.514
    1TCM    cl3 1487   3.710   2.306   0.468
    1TCM     c1 1488   1.758   0.160   2.738
    1TCM    cl1 1489   1.875   0.293   2.727
    1TCM    cl2 1490   1.839   0.015   2.802
    1TCM     h1 1491   1.675   0.189   2.806
    1TCM    cl3 1492   1.693   0.124   2.577
    1TCM     c1 1493   1.318   4.631   5.113
    1TCM    cl1 1494   1.216   4.739   5.211
    1TCM    cl2 1495   1.488   4.682   5.128
    1TCM     h1 1496   1.307   4.527   5.149
    1TCM    cl3 1497   1.268   4.641   4.943
    1TCM     c1 1498   5.135   0.288   4.508
    1TCM    cl1 1499   5.081   0.154   4.405
    1TCM    cl2 1500   5.130   0.238   4.678
    1TCM     h1 1501   5.239   0.316   4.480
    1TCM    cl3 1502   5.028   0.428   4.484
    1TCM     c1 1503   4.328   4.871   0.273
    1TCM    cl1 1504   4.328   4.820   0.102
    1TCM    cl2 1505   4.319   4.727   0.377
    1TCM     h1 1506   4.422   4.926   0.295
    1TCM    cl3 1507   4.188   4.976   0.304
    1TCM     c1 1508   0.625   2.549   3.914
    1TCM    cl1 1509   0.512   2.638   3.810
    1TCM    cl2 1510   0.562   2.545   4.080
    1TCM     h1 1511   0.636   2.445   3.876
    1TCM    cl3 1512   0.784   2.629   3.913
    1TCM     c1 1513   4.161   1.318   1.674
    1TCM    cl1 1514   4.169   1.478   1.752
    1TCM    cl2 1515   4.190   1.192   1.796
    1TCM     h1 1516   4.061   1.304   1.629
    1TCM    cl3 1517   4.286   1.308   1.548
    1TCM     c1 1518   1.355   4.917   0.341
    1TCM    cl1 1519   1.523   4.866   0.369
    1TCM    cl2 1520   1.334   4.961   0.170
    1TCM     h1 1521   1.286   4.834   0.367
    1TCM    cl3 1522   1.318   5.058   0.443
    1TCM     c1 1523   3.300   1.041   4.029
    1TCM    cl1 1524   3.290   1.208   3.967
    1TCM    cl2 1525   3.269   1.042   4.204
    1TCM     h1 1526   3.224   0.978   3.978
    1TCM    cl3 1527   3.463   0.976   3.998
    1TCM     c1 1528   4.652   3.554   3.716
    1TCM    cl1 1529   4.537   3.648   3.619
    1TCM    cl2 1530   4.771   3.477   3.609
    1TCM     h1 1531   4.704   3.621   3.787
    1TCM    cl3 1532   4.564   3.428   3.806
    1TCM     c1 1533   1.352   0.891   0.626
    1TCM    cl1 1534   1.474   0.833   0.511
    1TCM    cl2 1535   1.335   0.773   0.758
    1TCM     h1 1536   1.383   0.988   0.668
    1TCM    cl3 1537   1.196   0.909   0.543
    1TCM     c1 1538   1.174   2.097   1.071
    1TCM    cl1 1539   1.211   2.233   1.181
    1TCM    cl2 1540   1.325   2.039   0.998
    1TCM     h1 1541   1.127   2.015   1.129
    1TCM    cl3 1542   1.064   2.152   0.944
    1TCM     c1 1543   3.621   2.924   2.501
    1TCM    cl1 1544   3.714   2.814   2.605
    1TCM    cl2 1545   3.724   3.060   2.452
    1TCM     h1 1546   3.587   2.869   2.411
    1TCM    cl3 1547   3.480   2.984   2.591
    1TCM     c1 1548   3.243   3.555   2.837
    1TCM    cl1 1549   3.332   3.677   2.744
    1TCM    cl2 1550   3.089   3.624   2.892
    1TCM     h1 1551   3.223   3.466   2.773
    1TCM    cl3 1552   3.339   3.505   2.978
    1TCM     c1 1553   1.353   1.161   0.255
    1TCM    cl1 1554   1.325   1.306   0.354
    1TCM    cl2 1555   1.250   1.028   0.312
    1TCM     h1 1556   1.329   1.184   0.149
    1TCM    cl3 1557   1.524   1.113   0.267
    1TCM     c1 1558   3.056   0.245   0.887
    1TCM    cl1 1559   3.094   0.096   0.976
    1TCM    cl2 1560   2.920   0.215   0.777
    1TCM     h1 1561   3.028   0.326   0.959
    1TCM    cl3 1562   3.198   0.296   0.793
    1TCM     c1 1563   1.925   3.385   1.066
    1TCM    cl1 1564   2.050   3.497   1.125
    1TCM    cl2 1565   1.881   3.272   1.196
    1TCM     h1 1566   1.835   3.443   1.036
    1TCM    cl3 1567   1.988   3.295   0.927
    1TCM     c1 1568   2.959   3.789   1.995
    1TCM    cl1 1569   2.867   3.937   1.957
    1TCM    cl2 1570   2.998   3.786   2.168
    1TCM     h1 1571   2.897   3.700   1.969
    1TCM    cl3 1572   3.109   3.786   1.900
    1TCM     c1 1573   4.655   0.588   4.120
    1TCM    cl1 1574   4.684   0.630   3.949
    1TCM    cl2 1575   4.690   0.729   4.222
    1TCM     h1 1576   4.549   0.558   4.133
    1TCM    cl3 1577   4.760   0.453   4.167
    1TCM     c1 1578   4.664   3.029   4.776
    1TCM    cl1 1579   4.587   2.895   4.864
    1TCM    cl2 1580   4.837   3.033   4.814
    1TCM     h1 1581   4.650   3.015   4.667
    1TCM    cl3 1582   4.589   3.183   4.825
    1TCM     c1 1583   1.073   4.712   2.393
    1TCM    cl1 1584   1.138   4.588   2.284
    1TCM    cl2 1585   1.093   4.659   2.562
    1TCM     h1 1586   1.128   4.807   2.378
    1TCM    cl3 1587   0.900   4.737   2.359
    1TCM     c1 1588   5.126   0.224   0.368
    1TCM    cl1 1589   5.037   0.332   0.257
    1TCM    cl2 1590   5.255   0.315   0.449
    1TCM     h1 1591   5.056   0.184   0.444
    1TCM    cl3 1592   5.196   0.090   0.275
    1TCM     c1 1593   4.622   0.500   3.676
    1TCM    cl1 1594   4.461   0.468   3.743
    1TCM    cl2 1595   4.607   0.538   3.502
    1TCM     h1 1596   4.668   0.587   3.728
    1TCM    cl3 1597   4.725   0.357   3.697
    1TCM     c1 1598   3.603   5.122   4.456
    1TCM    cl1 1599   3.605   5.011   4.317
    1TCM    cl2 1600   3.668   5.280   4.406
    1TCM     h1 1601   3.499   5.135   4.492
    1TCM    cl3 1602   3.704   5.056   4.587
    1TCM     c1 1603   1.474   1.923   1.655
    1TCM    cl1 1604   1.322   1.920   1.563
    1TCM    cl2 1605   1.484   2.075   1.747
    1TCM     h1 1606   1.477   1.837   1.725
    1TCM    cl3 1607   1.611   1.913   1.542
    1TCM     c1 1608   3.243   1.529   2.664
    1TCM    cl1 1609   3.326   1.531   2.507
    1TCM    cl2 1610   3.120   1.657   2.667
    1TCM     h1 1611   3.195   1.431   2.679
    1TCM    cl3 1612   3.362   1.558   2.793
    1TCM     c1 1613   3.623   0.427   0.533
    1TCM    cl1 1614   3.454   0.421   0.586
    1TCM    cl2 1615   3.630   0.433   0.356
    1TCM     h1 1616   3.672   0.517   0.575
    1TCM    cl3 1617   3.708   0.282   0.590
    1TCM     c1 1618   0.668   1.357   2.029
    1TCM    cl1 1619   0.535   1.380   1.912
    1TCM    cl2 1620   0.602   1.359   2.194
    1TCM     h1 1621   0.717   1.259   2.010
    1TCM    cl3 1622   0.786   1.488   2.010
    1TCM     c1 1623   2.794   3.800   1.353
    1TCM    cl1 1624   2.839   3.665   1.459
    1TCM    cl2 1625   2.620   3.794   1.319
    1TCM     h1 1626   2.819   3.896   1.403
    1TCM    cl3 1627   2.885   3.788   1.200
    1TCM     c1 1628   2.425   2.580   4.370
    1TCM    cl1 1629   2.297   2.531   4.257
    1TCM    cl2 1630   2.388   2.517   4.532
    1TCM     h1 1631   2.522   2.539   4.335
    1TCM    cl3 1632   2.434   2.758   4.376
    1TCM     c1 1633   0.610   2.359   0.912
    1TCM    cl1 1634   0.577   2.268   0.763
    1TCM    cl2 1635   0.544   2.272   1.051
    1TCM     h1 1636   0.720   2.371   0.924
    1TCM    cl3 1637   0.535   2.520   0.901
    1TCM     c1 1638   2.505   0.496   1.632
    1TCM    cl1 1639   2.338   0.461   1.582
    1TCM    cl2 1640   2.523   0.465   1.806
    1TCM     h1 1641   2.576   0.432   1.576
    1TCM    cl3 1642   2.542   0.667   1.599
    1TCM     c1 1643   2.453   3.638   0.156
    1TCM    cl1 1644   2.618   3.605   0.100
    1TCM    cl2 1645   2.349   3.676   0.017
    1TCM     h1 1646   2.414   3.549   0.209
    1TCM    cl3 1647   2.456   3.777   0.268
    1TCM     c1 1648   0.157   3.462   4.967
    1TCM    cl1 1649   0.325   3.462   5.028
    1TCM    cl2 1650   0.064   3.337   5.053
    1TCM     h1 1651   0.111   3.561   4.985
    1TCM    cl3 1652   0.158   3.427   4.793
    1TCM     c1 1653   3.965   1.937   1.637
    1TCM    cl1 1654   3.994   2.097   1.710
    1TCM    cl2 1655   3.797   1.928   1.580
    1TCM     h1 1656   4.034   1.922   1.552
    1TCM    cl3 1657   3.993   1.810   1.759
    1TCM     c1 1658   2.250   2.840   2.749
    1TCM    cl1 1659   2.311   2.674   2.735
    1TCM    cl2 1660   2.230   2.910   2.587
    1TCM     h1 1661   2.152   2.839   2.801
    1TCM    cl3 1662   2.366   2.938   2.842
    1TCM     c1 1663   4.325   2.965   0.600
    1TCM    cl1 1664   4.348   3.132   0.657
    1TCM    cl2 1665   4.482   2.882   0.596
    1TCM     h1 1666   4.256   2.912   0.669
    1TCM    cl3 1667   4.256   2.968   0.436
    1TCM     c1 1668   5.132   4.380   1.835
    1TCM    cl1 1669   4.965   4.429   1.870
    1TCM    cl2 1670   5.158   4.379   1.660
    1TCM     h1 1671   5.202   4.451   1.883
    1TCM    cl3 1672   5.161   4.217   1.900
    1TCM     c1 1673   3.259   1.722   3.799
    1TCM    cl1 1674   3.417   1.729   3.718
    1TCM    cl2 1675   3.272   1.796   3.960
    1TCM     h1 1676   3.184   1.777   3.739
    1TCM    cl3 1677   3.208   1.552   3.816
    1TCM     c1 1678   0.953   3.803   2.434
    1TCM    cl1 1679   0.997   3.640   2.488
    1TCM    cl2 1680   0.934   3.805   2.257
    1TCM     h1 1681   0.858   3.834   2.482
    1TCM    cl3 1682   1.082   3.917   2.481
    1TCM     c1 1683   3.054   4.176   2.281
    1TCM    cl1 1684   3.056   4.037   2.169
    1TCM    cl2 1685   3.062   4.117   2.448
    1TCM     h1 1686   3.142   4.241   2.260
    1TCM    cl3 1687   2.904   4.268   2.258
    1TCM     c1 1688   1.397   3.088   2.271
    1TCM    cl1 1689   1.366   2.947   2.167
    1TCM    cl2 1690   1.428   3.033   2.437
    1TCM     h1 1691   1.486   3.143   2.233
    1TCM    cl3 1692   1.255   3.195   2.269
    1TCM     c1 1693   4.608   0.170   5.175
    1TCM    cl1 1694   4.618   0.147   4.999
    1TCM    cl2 1695   4.752   0.099   5.253
    1TCM     h1 1696   4.603   0.278   5.199
    1TCM    cl3 1697   4.462   0.089   5.237
    1TCM     c1 1698   4.166   4.981   2.367
    1TCM    cl1 1699   4.141   5.134   2.280
    1TCM    cl2 1700   4.092   4.993   2.529
    1TCM     h1 1701   4.119   4.898   2.311
    1TCM    cl3 1702   4.341   4.950   2.384
    1TCM     c1 1703   1.372   5.060   3.076
    1TCM    cl1 1704   1.523   4.984   3.023
    1TCM    cl2 1705   1.399   5.146   3.229
    1TCM     h1 1706   1.338   5.132   2.999
    1TCM    cl3 1707   1.247   4.935   3.100
    1TCM     c1 1708   3.380   5.017   3.771
    1TCM    cl1 1709   3.322   4.860   3.711
    1TCM    cl2 1710   3.416   5.124   3.633
    1TCM     h1 1711   3.302   5.064   3.835
    1TCM    cl3 1712   3.528   4.993   3.867
    1TCM     c1 1713   3.633   2.188   4.872
    1TCM    cl1 1714   3.555   2.324   4.954
    1TCM    cl2 1715   3.792   2.157   4.946
    1TCM     h1 1716   3.569   2.098   4.881
    1TCM    cl3 1717   3.655   2.227   4.700
    1TCM     c1 1718   4.845   4.260   2.545
    1TCM    cl1 1719   4.953   4.357   2.442
    1TCM    cl2 1720   4.848   4.325   2.711
    1TCM     h1 1721   4.742   4.265   2.505
    1TCM    cl3 1722   4.901   4.091   2.546
    1TCM     c1 1723   5.001   3.118   2.453
    1TCM    cl1 1724   5.068   2.979   2.365
    1TCM    cl2 1725   5.049   3.109   2.624
    1TCM     h1 1726   5.039   3.212   2.409
    1TCM    cl3 1727   4.823   3.115   2.442
    1TCM     c1 1728   1.458   2.324   0.926
    1TCM    cl1 1729   1.329   2.373   0.813
    1TCM    cl2 1730   1.518   2.163   0.879
    1TCM     h1 1731   1.541   2.397   0.921
    1TCM    cl3 1732   1.393   2.317   1.091
    1TCM     c1 1733   1.120   1.981   4.050
    1TCM    cl1 1734   1.230   1.883   3.951
    1TCM    cl2 1735   1.180   1.985   4.218
    1TCM     h1 1736   1.116   2.084   4.010
    1TCM    cl3 1737   0.957   1.910   4.047
    1TCM     c1 1738   3.975   3.413   1.121
    1TCM    cl1 1739   3.997   3.250   1.190
    1TCM    cl2 1740   3.920   3.398   0.952
    1TCM     h1 1741   3.900   3.468   1.180
    1TCM    cl3 1742   4.130   3.500   1.125
    1TCM     c1 1743   0.244   5.172   2.132
    1TCM    cl1 1744   0.331   5.017   2.128
    1TCM    cl2 1745   0.338   5.294   2.043
    1TCM     h1 1746   0.145   5.160   2.084
    1TCM    cl3 1747   0.223   5.225   2.300
    1TCM     c1 1748   1.339   2.534   1.752
    1TCM    cl1 1749   1.367   2.709   1.742
    1TCM    cl2 1750   1.211   2.488   1.638
    1TCM     h1 1751   1.432   2.480   1.727
    1TCM    cl3 1752   1.289   2.492   1.918
    1TCM     c1 1753   0.912   2.373   4.154
    1TCM    cl1 1754   0.880   2.270   4.012
    1TCM    cl2 1755   0.947   2.270   4.294
    1TCM     h1 1756   0.999   2.438   4.133
    1TCM    cl3 1757   0.769   2.473   4.188
    1TCM     c1 1758   1.098   0.914   5.179
    1TCM    cl1 1759   1.215   0.894   5.047
    1TCM    cl2 1760   1.183   0.915   5.335
    1TCM     h1 1761   1.043   1.010   5.166
    1TCM    cl3 1762   0.982   0.779   5.176
    1TCM     c1 1763   3.674   2.979   1.027
    1TCM    cl1 1764   3.814   3.075   0.975
    1TCM    cl2 1765   3.721   2.808   1.039
    1TCM     h1 1766   3.640   3.015   1.127
    1TCM    cl3 1767   3.542   2.997   0.910
    1TCM     c1 1768   3.669   5.013   3.005
    1TCM    cl1 1769   3.503   5.055   2.959
    1TCM    cl2 1770   3.687   5.023   3.181
    1TCM     h1 1771   3.691   4.909   2.972
    1TCM    cl3 1772   3.783   5.125   2.927
    1TCM     c1 1773   4.637   3.188   5.174
    1TCM    cl1 1774   4.538   3.270   5.298
    1TCM    cl2 1775   4.709   3.310   5.066
    1TCM     h1 1776   4.718   3.130   5.223
    1TCM    cl3 1777   4.534   3.079   5.079
    1TCM     c1 1778   4.467   2.834   2.980
    1TCM    cl1 1779   4.376   2.983   3.015
    1TCM    cl2 1780   4.534   2.842   2.815
    1TCM     h1 1781   4.550   2.823   3.053
    1TCM    cl3 1782   4.358   2.694   2.993
    1TCM     c1 1783   2.277   4.524   3.627
    1TCM    cl1 1784   2.441   4.578   3.669
    1TCM    cl2 1785   2.168   4.555   3.764
    1TCM     h1 1786   2.241   4.580   3.538
    1TCM    cl3 1787   2.279   4.351   3.591
    1TCM     c1 1788   3.609   2.246   0.924
    1TCM    cl1 1789   3.546   2.265   0.759
    1TCM    cl2 1790   3.501   2.140   1.017
    1TCM     h1 1791   3.710   2.201   0.920
    1TCM    cl3 1792   3.618   2.405   1.002
    1TCM     c1 1793   1.951   2.165   3.112
    1TCM    cl1 1794   1.873   2.324   3.094
    1TCM    cl2 1795   2.084   2.177   3.230
    1TCM     h1 1796   1.877   2.091   3.148
    1TCM    cl3 1797   2.016   2.112   2.955
    1TCM     c1 1798   2.965   2.912   3.493
    1TCM    cl1 1799   3.103   2.890   3.603
    1TCM    cl2 1800   3.015   3.010   3.353
    1TCM     h1 1801   2.930   2.812   3.457
    1TCM    cl3 1802   2.833   2.994   3.579
    1TCM     c1 1803   5.032   1.933   1.665
    1TCM    cl1 1804   4.964   2.065   1.764
    1TCM    cl2 1805   5.054   1.991   1.498
    1TCM     h1 1806   5.130   1.902   1.707
    1TCM    cl3 1807   4.920   1.795   1.665
    1TCM     c1 1808   1.664   1.367   3.589
    1TCM    cl1 1809   1.656   1.544   3.569
    1TCM    cl2 1810   1.509   1.295   3.538
    1TCM     h1 1811   1.746   1.326   3.526
    1TCM    cl3 1812   1.694   1.328   3.760
    1TCM     c1 1813   3.408   4.200   2.237
    1TCM    cl1 1814   3.292   4.218   2.104
    1TCM    cl2 1815   3.377   4.047   2.322
    1TCM     h1 1816   3.511   4.201   2.197
    1TCM    cl3 1817   3.388   4.335   2.351
    1TCM     c1 1818   2.075   3.578   0.466
    1TCM    cl1 1819   1.964   3.478   0.561
    1TCM    cl2 1820   2.237   3.572   0.537
    1TCM     h1 1821   2.079   3.540   0.361
    1TCM    cl3 1822   2.017   3.746   0.465
    1TCM     c1 1823   4.650   2.157   3.245
    1TCM    cl1 1824   4.640   2.091   3.410
    1TCM    cl2 1825   4.521   2.276   3.221
    1TCM     h1 1826   4.749   2.205   3.231
    1TCM    cl3 1827   4.631   2.025   3.127
    1TCM     c1 1828   2.451   3.929   1.497
    1TCM    cl1 1829   2.324   3.844   1.407
    1TCM    cl2 1830   2.559   4.013   1.384
    1TCM     h1 1831   2.405   4.002   1.566
    1TCM    cl3 1832   2.546   3.810   1.591
    1TCM     c1 1833   1.030   4.933   4.694
    1TCM    cl1 1834   1.052   5.107   4.663
    1TCM    cl2 1835   0.925   4.864   4.567
    1TCM     h1 1836   1.128   4.882   4.692
    1TCM    cl3 1837   0.953   4.910   4.852
    1TCM     c1 1838   3.701   3.204   3.763
    1TCM    cl1 1839   3.774   3.051   3.818
    1TCM    cl2 1840   3.678   3.198   3.587
    1TCM     h1 1841   3.603   3.218   3.813
    1TCM    cl3 1842   3.809   3.339   3.804
    1TCM     c1 1843   3.820   3.849   1.229
    1TCM    cl1 1844   3.893   4.001   1.172
    1TCM    cl2 1845   3.743   3.875   1.387
    1TCM     h1 1846   3.744   3.815   1.156
    1TCM    cl3 1847   3.947   3.725   1.245
    1TCM     c1 1848   2.504   1.307   3.949
    1TCM    cl1 1849   2.644   1.399   4.008
    1TCM    cl2 1850   2.507   1.300   3.772
    1TCM     h1 1851   2.508   1.204   3.990
    1TCM    cl3 1852   2.354   1.387   4.003
    1TCM     c1 1853   2.152   3.680   4.871
    1TCM    cl1 1854   2.272   3.760   4.973
    1TCM    cl2 1855   2.043   3.582   4.972
    1TCM     h1 1856   2.092   3.757   4.816
    1TCM    cl3 1857   2.234   3.575   4.753
    1TCM     c1 1858   4.360   3.912   3.291
    1TCM    cl1 1859   4.352   4.072   3.369
    1TCM    cl2 1860   4.409   3.931   3.121
    1TCM     h1 1861   4.434   3.848   3.344
    1TCM    cl3 1862   4.200   3.835   3.297
    1TCM     c1 1863   3.084   1.581   4.980
    1TCM    cl1 1864   3.023   1.468   5.104
    1TCM    cl2 1865   3.260   1.598   4.998
    1TCM     h1 1866   3.060   1.541   4.879
    1TCM    cl3 1867   3.006   1.739   5.001
    1TCM     c1 1868   0.672   0.633   4.119
    1TCM    cl1 1869   0.559   0.624   3.981
    1TCM    cl2 1870   0.619   0.521   4.246
    1TCM     h1 1871   0.774   0.605   4.084
    1TCM    cl3 1872   0.675   0.799   4.183
    1TCM     c1 1873   3.509   0.937   1.963
    1TCM    cl1 1874   3.611   1.082   1.958
    1TCM    cl2 1875   3.345   0.978   1.907
    1TCM     h1 1876   3.552   0.859   1.896
    1TCM    cl3 1877   3.500   0.875   2.129
    1TCM     c1 1878   2.868   0.083   2.592
    1TCM    cl1 1879   2.884   0.016   2.428
    1TCM    cl2 1880   2.731   0.196   2.598
    1TCM     h1 1881   2.850   0.000   2.664
    1TCM    cl3 1882   3.017   0.169   2.636
    1TCM     c1 1883   2.726   4.592   2.457
    1TCM    cl1 1884   2.618   4.591   2.598
    1TCM    cl2 1885   2.665   4.477   2.335
    1TCM     h1 1886   2.728   4.694   2.414
    1TCM    cl3 1887   2.889   4.545   2.507
    1TCM     c1 1888   0.903   0.989   2.153
    1TCM    cl1 1889   0.905   0.814   2.122
    1TCM    cl2 1890   1.068   1.044   2.192
    1TCM     h1 1891   0.867   1.042   2.064
    1TCM    cl3 1892   0.796   1.023   2.291
    1TCM     c1 1893   2.391   4.324   3.082
    1TCM    cl1 1894   2.427   4.498   3.084
    1TCM    cl2 1895   2.365   4.271   2.914
    1TCM     h1 1896   2.477   4.268   3.125
    1TCM    cl3 1897   2.245   4.292   3.178
    1TCM     c1 1898   4.258   1.861   4.787
    1TCM    cl1 1899   4.222   1.856   4.961
    1TCM    cl2 1900   4.121   1.793   4.696
    1TCM     h1 1901   4.275   1.966   4.756
    1TCM    cl3 1902   4.404   1.765   4.754
    1TCM     c1 1903   0.340   0.559   0.259
    1TCM    cl1 1904   0.418   0.707   0.198
    1TCM    cl2 1905   0.288   0.458   0.122
    1TCM     h1 1906   0.412   0.502   0.322
    1TCM    cl3 1907   0.199   0.603   0.357
    1TCM     c1 1908   3.974   3.885   5.226
    1TCM    cl1 1909   3.960   4.052   5.285
    1TCM    cl2 1910   4.145   3.848   5.193
    1TCM     h1 1911   3.936   3.815   5.303
    1TCM    cl3 1912   3.880   3.867   5.076
    1TCM     c1 1913   1.979   2.446   2.790
    1TCM    cl1 1914   1.903   2.305   2.868
    1TCM    cl2 1915   1.896   2.483   2.638
    1TCM     h1 1916   1.972   2.534   2.858
    1TCM    cl3 1917   2.150   2.411   2.758
    1TCM     c1 1918   2.095   4.102   1.585
    1TCM    cl1 1919   2.027   4.248   1.510
    1TCM    cl2 1920   2.253   4.141   1.658
    1TCM     h1 1921   2.026   4.066   1.664
    1TCM    cl3 1922   2.116   3.976   1.461
    1TCM     c1 1923   4.006   3.530   1.807
    1TCM    cl1 1924   4.142   3.569   1.699
    1TCM    cl2 1925   4.052   3.567   1.975
    1TCM     h1 1926   3.918   3.591   1.779
    1TCM    cl3 1927   3.967   3.357   1.793
    1TCM     c1 1928   2.676   4.752   0.670
    1TCM    cl1 1929   2.582   4.775   0.521
    1TCM    cl2 1930   2.804   4.876   0.678
    1TCM     h1 1931   2.610   4.762   0.758
    1TCM    cl3 1932   2.750   4.591   0.669
    1TCM     c1 1933   2.817   2.358   4.711
    1TCM    cl1 1934   2.804   2.391   4.537
    1TCM    cl2 1935   2.940   2.465   4.782
    1TCM     h1 1936   2.719   2.376   4.760
    1TCM    cl3 1937   2.865   2.188   4.736
    1TCM     c1 1938   1.543   3.346   2.673
    1TCM    cl1 1939   1.715   3.367   2.633
    1TCM    cl2 1940   1.468   3.506   2.696
    1TCM     h1 1941   1.492   3.293   2.591
    1TCM    cl3 1942   1.528   3.253   2.823
    1TCM     c1 1943   0.713   4.158   4.854
    1TCM    cl1 1944   0.845   4.076   4.767
    1TCM    cl2 1945   0.771   4.213   5.013
    1TCM     h1 1946   0.678   4.246   4.795
    1TCM    cl3 1947   0.577   4.045   4.876
    1TCM     c1 1948   0.183   2.509   1.810
    1TCM    cl1 1949   0.257   2.493   1.971
    1TCM    cl2 1950   0.237   2.661   1.735
    1TCM     h1 1951   0.214   2.424   1.747
    1TCM    cl3 1952   0.006   2.510   1.826
    1TCM     c1 1953   4.423   0.924   4.253
    1TCM    cl1 1954   4.384   1.097   4.270
    1TCM    cl2 1955   4.513   0.869   4.396
    1TCM     h1 1956   4.329   0.866   4.243
    1TCM    cl3 1957   4.523   0.900   4.108
    1TCM     c1 1958   3.970   1.127   0.458
    1TCM    cl1 1959   4.079   1.134   0.598
    1TCM    cl2 1960   4.044   1.029   0.330
    1TCM     h1 1961   3.873   1.082   0.489
    1TCM    cl3 1962   3.941   1.292   0.397
    1TCM     c1 1963   1.956   1.810   3.927
    1TCM    cl1 1964   1.958   1.856   4.099
    1TCM    cl2 1965   2.086   1.896   3.841
    1TCM     h1 1966   1.971   1.701   3.917
    1TCM    cl3 1967   1.799   1.854   3.855
    1TCM     c1 1968   0.256   1.934   2.064
    1TCM    cl1 1969   0.289   1.760   2.051
    1TCM    cl2 1970   0.196   1.971   2.228
    1TCM     h1 1971   0.349   1.991   2.045
    1TCM    cl3 1972   0.133   1.980   1.944
    1TCM     c1 1973   1.637   0.592   3.460
    1TCM    cl1 1974   1.612   0.470   3.334
    1TCM    cl2 1975   1.760   0.533   3.575
    1TCM     h1 1976   1.673   0.687   3.414
    1TCM    cl3 1977   1.485   0.621   3.546
    1TCM     c1 1978   2.284   4.243   1.177
    1TCM    cl1 1979   2.170   4.121   1.117
    1TCM    cl2 1980   2.273   4.389   1.076
    1TCM     h1 1981   2.259   4.269   1.282
    1TCM    cl3 1982   2.450   4.178   1.170
    1TCM     c1 1983   3.425   1.776   4.328
    1TCM    cl1 1984   3.454   1.938   4.397
    1TCM    cl2 1985   3.263   1.720   4.376
    1TCM     h1 1986   3.432   1.781   4.218
    1TCM    cl3 1987   3.547   1.663   4.390
    1TCM     c1 1988   2.260   3.728   4.211
    1TCM    cl1 1989   2.273   3.826   4.063
    1TCM    cl2 1990   2.186   3.826   4.340
    1TCM     h1 1991   2.197   3.639   4.191
    1TCM    cl3 1992   2.422   3.676   4.262
    1TCM     c1 1993   3.174   0.983   4.962
    1TCM    cl1 1994   3.294   1.040   4.845
    1TCM    cl2 1995   3.116   0.822   4.915
    1TCM     h1 1996   3.220   0.978   5.063
    1TCM    cl3 1997   3.036   1.096   4.966
    1TCM     c1 1998   3.276   3.294   2.103
    1TCM    cl1 1999   3.226   3.137   2.172
    1TCM    cl2 2000   3.161   3.343   1.977
    1TCM     h1 2001   3.278   3.370   2.183
    1TCM    cl3 2002   3.438   3.278   2.032
    1TCM     c1 2003   4.714   4.261   0.868
    1TCM    cl1 2004   4.824   4.121   0.863
    1TCM    cl2 2005   4.749   4.359   1.012
    1TCM     h1 2006   4.730   4.323   0.777
    1TCM    cl3 2007   4.546   4.204   0.873
    1TCM     c1 2008   2.152   2.913   4.522
    1TCM    cl1 2009   2.079   2.791   4.415
    1TCM    cl2 2010   2.139   2.859   4.691
    1TCM     h1 2011   2.260   2.926   4.496
    1TCM    cl3 2012   2.068   3.068   4.502
    1TCM     c1 2013   2.549   4.128   4.489
    1TCM    cl1 2014   2.419   4.057   4.587
    1TCM    cl2 2015   2.494   4.145   4.320
    1TCM     h1 2016   2.576   4.228   4.529
    1TCM    cl3 2017   2.692   4.022   4.494
    1TCM     c1 2018   4.400   5.154   2.678
    1TCM    cl1 2019   4.485   5.092   2.534
    1TCM    cl2 2020   4.498   5.280   2.755
    1TCM     h1 2021   4.302   5.196   2.647
    1TCM    cl3 2022   4.374   5.021   2.793
    1TCM     c1 2023   1.912   3.617   2.029
    1TCM    cl1 2024   1.816   3.710   1.913
    1TCM    cl2 2025   2.003   3.729   2.134
    1TCM     h1 2026   1.845   3.555   2.091
    1TCM    cl3 2027   2.026   3.512   1.941
    1TCM     c1 2028   3.513   0.791   0.949
    1TCM    cl1 2029   3.592   0.634   0.915
    1TCM    cl2 2030   3.596   0.871   1.084
    1TCM     h1 2031   3.519   0.855   0.858
    1TCM    cl3 2032   3.343   0.763   0.991
    1TCM     c1 2033   0.254   3.722   3.005
    1TCM    cl1 2034   0.124   3.814   2.925
    1TCM    cl2 2035   0.270   3.776   3.173
    1TCM     h1 2036   0.229   3.614   3.003
    1TCM    cl3 2037   0.407   3.750   2.918
    1TCM     c1 2038   2.876   2.743   4.923
    1TCM    cl1 2039   2.849   2.750   4.747
    1TCM    cl2 2040   3.050   2.742   4.956
    1TCM     h1 2041   2.830   2.833   4.970
    1TCM    cl3 2042   2.801   2.596   4.989
    1TCM     c1 2043   2.272   0.678   0.681
    1TCM    cl1 2044   2.267   0.761   0.839
    1TCM    cl2 2045   2.132   0.570   0.667
    1TCM     h1 2046   2.270   0.753   0.600
    1TCM    cl3 2047   2.422   0.582   0.669
    1TCM     c1 2048   2.951   0.273   2.226
    1TCM    cl1 2049   2.822   0.295   2.106
    1TCM    cl2 2050   2.881   0.281   2.389
    1TCM     h1 2051   2.999   0.174   2.211
    1TCM    cl3 2052   3.072   0.402   2.207
    1TCM     c1 2053   1.760   3.530   4.664
    1TCM    cl1 2054   1.644   3.575   4.790
    1TCM    cl2 2055   1.706   3.595   4.508
    1TCM     h1 2056   1.860   3.572   4.689
    1TCM    cl3 2057   1.772   3.353   4.654
    1TCM     c1 2058   0.822   2.815   0.744
    1TCM    cl1 2059   0.909   2.930   0.848
    1TCM    cl2 2060   0.883   2.828   0.578
    1TCM     h1 2061   0.839   2.711   0.782
    1TCM    cl3 2062   0.648   2.852   0.747
    1TCM     c1 2063   3.022   0.211   3.330
    1TCM    cl1 2064   3.019   0.202   3.153
    1TCM    cl2 2065   2.945   0.065   3.398
    1TCM     h1 2066   3.127   0.217   3.365
    1TCM    cl3 2067   2.933   0.355   3.384
    1TCM     c1 2068   2.124   3.018   1.137
    1TCM    cl1 2069   2.115   3.077   0.970
    1TCM    cl2 2070   1.963   3.027   1.212
    1TCM     h1 2071   2.159   2.913   1.137
    1TCM    cl3 2072   2.238   3.119   1.230
    1TCM     c1 2073   3.129   5.241   4.031
    1TCM    cl1 2074   3.116   5.201   4.204
    1TCM    cl2 2075   3.046   5.117   3.935
    1TCM     h1 2076   3.083   5.340   4.013
    1TCM    cl3 2077   3.301   5.246   3.985
    1TCM     c1 2078   2.983   3.316   0.107
    1TCM    cl1 2079   3.111   3.391   0.009
    1TCM    cl2 2080   3.057   3.206   0.225
    1TCM     h1 2081   2.926   3.395   0.160
    1TCM    cl3 2082   2.873   3.224   0.001
    1TCM     c1 2083   0.250   0.517   4.240
    1TCM    cl1 2084   0.402   0.497   4.149
    1TCM    cl2 2085   0.286   0.588   4.399
    1TCM     h1 2086   0.182   0.583   4.185
    1TCM    cl3 2087   0.174   0.358   4.263
    1TCM     c1 2088   2.471   2.658   3.942
    1TCM    cl1 2089   2.365   2.780   4.014
    1TCM    cl2 2090   2.471   2.512   4.043
    1TCM     h1 2091   2.435   2.632   3.840
    1TCM    cl3 2092   2.637   2.722   3.931
    1TCM     c1 2093   0.687   1.478   0.171
    1TCM    cl1 2094   0.676   1.552   0.333
    1TCM    cl2 2095   0.523   1.457   0.105
    1TCM     h1 2096   0.746   1.544   0.105
    1TCM    cl3 2097   0.766   1.319   0.184
    1TCM     c1 2098   4.714   2.948   1.964
    1TCM    cl1 2099   4.581   2.857   2.036
    1TCM    cl2 2100   4.727   2.908   1.791
    1TCM     h1 2101   4.695   3.057   1.975
    1TCM    cl3 2102   4.866   2.906   2.045
    1TCM     c1 2103   3.115   3.264   0.630
    1TCM    cl1 2104   2.973   3.249   0.524
    1TCM    cl2 2105   3.251   3.330   0.537
    1TCM     h1 2106   3.091   3.331   0.715
    1TCM    cl3 2107   3.159   3.103   0.693
    1TCM     c1 2108   2.541   4.937   1.576
    1TCM    cl1 2109   2.595   4.787   1.496
    1TCM    cl2 2110   2.592   4.935   1.746
    1TCM     h1 2111   2.587   5.024   1.525
    1TCM    cl3 2112   2.364   4.949   1.567
    1TCM     c1 2113   2.727   4.030   4.887
    1TCM    cl1 2114   2.854   4.046   4.764
    1TCM    cl2 2115   2.800   4.039   5.049
    1TCM     h1 2116   2.653   4.112   4.875
    1TCM    cl3 2117   2.645   3.873   4.868
    1TCM     c1 2118   3.995   4.030   2.758
    1TCM    cl1 2119   3.954   4.182   2.841
    1TCM    cl2 2120   4.001   4.058   2.583
    1TCM     h1 2121   4.094   3.994   2.793
    1TCM    cl3 2122   3.871   3.908   2.794
    1TCM     c1 2123   2.383   1.512   2.516
    1TCM    cl1 2124   2.545   1.584   2.523
    1TCM    cl2 2125   2.390   1.343   2.572
    1TCM     h1 2126   2.314   1.569   2.582
    1TCM    cl3 2127   2.323   1.517   2.349
    1TCM     c1 2128   5.085   2.160   0.704
    1TCM    cl1 2129   5.221   2.123   0.812
    1TCM    cl2 2130   5.125   2.109   0.539
    1TCM     h1 2131   4.994   2.106   0.739
    1TCM    cl3 2132   5.054   2.336   0.706
    1TCM     c1 2133   4.220   0.587   3.229
    1TCM    cl1 2134   4.097   0.623   3.353
    1TCM    cl2 2135   4.381   0.632   3.291
    1TCM     h1 2136   4.219   0.479   3.206
    1TCM    cl3 2137   4.185   0.681   3.082
    1TCM     c1 2138   4.855   2.338   0.170
    1TCM    cl1 2139   4.778   2.219   0.063
    1TCM    cl2 2140   4.819   2.296   0.340
    1TCM     h1 2141   4.964   2.336   0.154
    1TCM    cl3 2142   4.792   2.500   0.134
    1TCM     c1 2143   3.376   1.238   1.143
    1TCM    cl1 2144   3.248   1.332   1.223
    1TCM    cl2 2145   3.380   1.280   0.970
    1TCM     h1 2146   3.474   1.263   1.189
    1TCM    cl3 2147   3.344   1.065   1.162
    1TCM     c1 2148   2.752   4.421   4.659
    1TCM    cl1 2149   2.867   4.324   4.754
    1TCM    cl2 2150   2.586   4.385   4.710
    1TCM     h1 2151   2.773   4.529   4.674
    1TCM    cl3 2152   2.771   4.381   4.486
    1TCM     c1 2153   1.618   5.237   0.675
    1TCM    cl1 2154   1.651   5.124   0.542
    1TCM    cl2 2155   1.479   5.339   0.633
    1TCM     h1 2156   1.595   5.180   0.768
    1TCM    cl3 2157   1.761   5.340   0.702
    1TCM     c1 2158   1.420   3.298   4.493
    1TCM    cl1 2159   1.318   3.374   4.369
    1TCM    cl2 2160   1.358   3.341   4.654
    1TCM     h1 2161   1.417   3.188   4.481
    1TCM    cl3 2162   1.587   3.356   4.477
    1TCM     c1 2163   1.190   2.349   2.391
    1TCM    cl1 2164   1.368   2.346   2.376
    1TCM    cl2 2165   1.132   2.188   2.439
    1TCM     h1 2166   1.161   2.424   2.468
    1TCM    cl3 2167   1.119   2.394   2.234
    1TCM     c1 2168   1.373   1.284   0.664
    1TCM    cl1 2169   1.326   1.455   0.670
    1TCM    cl2 2170   1.343   1.209   0.822
    1TCM     h1 2171   1.314   1.232   0.586
    1TCM    cl3 2172   1.546   1.272   0.625
    1TCM     c1 2173   0.356   5.217   3.204
    1TCM    cl1 2174   0.226   5.338   3.198
    1TCM    cl2 2175   0.295   5.062   3.143
    1TCM     h1 2176   0.440   5.251   3.140
    1TCM    cl3 2177   0.412   5.198   3.372
    1TCM     c1 2178   2.813   3.984   0.332
    1TCM    cl1 2179   2.714   4.123   0.284
    1TCM    cl2 2180   2.924   3.942   0.200
    1TCM     h1 2181   2.872   4.010   0.423
    1TCM    cl3 2182   2.708   3.845   0.368
    1TCM     c1 2183   5.109   1.850   0.929
    1TCM    cl1 2184   5.204   1.934   1.054
    1TCM    cl2 2185   5.168   1.896   0.768
    1TCM     h1 2186   5.118   1.740   0.942
    1TCM    cl3 2187   4.938   1.897   0.944
    1TCM     c1 2188   0.082   2.548   0.775
    1TCM    cl1 2189   0.243   2.508   0.837
    1TCM    cl2 2190   0.021   2.413   0.676
    1TCM     h1 2191   0.013   2.566   0.860
    1TCM    cl3 2192   0.092   2.695   0.675
    1TCM     c1 2193   3.195   4.754   4.127
    1TCM    cl1 2194   3.094   4.885   4.191
    1TCM    cl2 2195   3.280   4.811   3.981
    1TCM     h1 2196   3.269   4.723   4.204
    1TCM    cl3 2197   3.093   4.615   4.085
    1TCM     c1 2198   0.501   3.264   3.494
    1TCM    cl1 2199   0.523   3.118   3.593
    1TCM    cl2 2200   0.469   3.217   3.325
    1TCM     h1 2201   0.415   3.323   3.533
    1TCM    cl3 2202   0.649   3.363   3.500
    1TCM     c1 2203   2.870   0.561   1.989
    1TCM    cl1 2204   2.888   0.418   1.884
    1TCM    cl2 2205   2.708   0.631   1.966
    1TCM     h1 2206   2.882   0.530   2.095
    1TCM    cl3 2207   2.993   0.682   1.947
    1TCM     c1 2208   4.828   5.019   4.348
    1TCM    cl1 2209   4.937   4.994   4.486
    1TCM    cl2 2210   4.834   4.878   4.240
    1TCM     h1 2211   4.724   5.033   4.385
    1TCM    cl3 2212   4.879   5.164   4.258
    1TCM     c1 2213   4.099   0.949   2.058
    1TCM    cl1 2214   4.022   1.075   1.959
    1TCM    cl2 2215   4.062   0.789   1.990
    1TCM     h1 2216   4.209   0.964   2.059
    1TCM    cl3 2217   4.036   0.958   2.224
    1TCM     c1 2218   2.324   4.789   2.398
    1TCM    cl1 2219   2.397   4.676   2.514
    1TCM    cl2 2220   2.381   4.752   2.234
    1TCM     h1 2221   2.213   4.780   2.401
    1TCM    cl3 2222   2.370   4.956   2.440
    1TCM     c1 2223   2.262   2.638   0.891
    1TCM    cl1 2224   2.311   2.768   1.002
    1TCM    cl2 2225   2.169   2.516   0.980
    1TCM     h1 2226   2.199   2.680   0.810
    1TCM    cl3 2227   2.407   2.562   0.821
    1TCM     c1 2228   2.163   4.739   0.394
    1TCM    cl1 2229   2.168   4.701   0.568
    1TCM    cl2 2230   2.109   4.595   0.304
    1TCM     h1 2231   2.092   4.822   0.377
    1TCM    cl3 2232   2.326   4.786   0.339
    1TCM     c1 2233   3.633   1.224   2.336
    1TCM    cl1 2234   3.658   1.105   2.466
    1TCM    cl2 2235   3.593   1.382   2.408
    1TCM     h1 2236   3.725   1.233   2.276
    1TCM    cl3 2237   3.499   1.171   2.232
    1TCM     c1 2238   3.713   4.063   0.853
    1TCM    cl1 2239   3.707   3.918   0.750
    1TCM    cl2 2240   3.708   4.015   1.024
    1TCM     h1 2241   3.807   4.119   0.833
    1TCM    cl3 2242   3.573   4.167   0.816
    1TCM     c1 2243   1.664   4.335   2.116
    1TCM    cl1 2244   1.748   4.256   1.981
    1TCM    cl2 2245   1.780   4.367   2.247
    1TCM     h1 2246   1.621   4.431   2.081
    1TCM    cl3 2247   1.535   4.229   2.175
    1TCM     c1 2248   4.979   2.792   3.040
    1TCM    cl1 2249   5.152   2.826   3.065
    1TCM    cl2 2250   4.938   2.819   2.869
    1TCM     h1 2251   4.958   2.687   3.068
    1TCM    cl3 2252   4.882   2.901   3.142
    1TCM     c1 2253   1.599   1.290   2.284
    1TCM    cl1 2254   1.628   1.138   2.372
    1TCM    cl2 2255   1.479   1.263   2.156
    1TCM     h1 2256   1.561   1.367   2.355
    1TCM    cl3 2257   1.751   1.347   2.212
    1TCM     c1 2258   0.996   4.476   0.298
    1TCM    cl1 2259   1.003   4.514   0.124
    1TCM    cl2 2260   1.068   4.316   0.326
    1TCM     h1 2261   1.052   4.553   0.355
    1TCM    cl3 2262   0.826   4.474   0.351
    1TCM     c1 2263   3.174   2.720   0.940
    1TCM    cl1 2264   3.344   2.728   0.891
    1TCM    cl2 2265   3.153   2.806   1.095
    1TCM     h1 2266   3.111   2.769   0.862
    1TCM    cl3 2267   3.125   2.551   0.959
    1TCM     c1 2268   0.633   2.029   2.545
    1TCM    cl1 2269   0.482   2.028   2.453
    1TCM    cl2 2270   0.632   1.895   2.663
    1TCM     h1 2271   0.719   2.016   2.476
    1TCM    cl3 2272   0.649   2.184   2.631
    1TCM     c1 2273   2.632   0.769   4.985
    1TCM    cl1 2274   2.732   0.887   5.072
    1TCM    cl2 2275   2.521   0.855   4.876
    1TCM     h1 2276   2.697   0.702   4.926
    1TCM    cl3 2277   2.538   0.673   5.102
    1TCM     c1 2278   0.387   4.385   4.228
    1TCM    cl1 2279   0.496   4.262   4.161
    1TCM    cl2 2280   0.437   4.425   4.394
    1TCM     h1 2281   0.392   4.477   4.165
    1TCM    cl3 2282   0.221   4.323   4.229
    1TCM     c1 2283   5.193   3.992   1.583
    1TCM    cl1 2284   5.306   3.888   1.673
    1TCM    cl2 2285   5.194   3.946   1.411
    1TCM     h1 2286   5.091   3.979   1.624
    1TCM    cl3 2287   5.244   4.161   1.599
    1TCM     c1 2288   2.597   2.266   0.461
    1TCM    cl1 2289   2.497   2.389   0.381
    1TCM    cl2 2290   2.552   2.255   0.633
    1TCM     h1 2291   2.581   2.167   0.412
    1TCM    cl3 2292   2.769   2.311   0.447
    1TCM     c1 2293   5.194   5.056   3.605
    1TCM    cl1 2294   5.203   5.108   3.435
    1TCM    cl2 2295   5.319   5.141   3.699
    1TCM     h1 2296   5.094   5.081   3.646
    1TCM    cl3 2297   5.221   4.881   3.615
    1TCM     c1 2298   3.383   2.562   2.048
    1TCM    cl1 2299   3.420   2.588   1.875
    1TCM    cl2 2300   3.211   2.519   2.066
    1TCM     h1 2301   3.446   2.480   2.087
    1TCM    cl3 2302   3.417   2.711   2.138
    1TCM     c1 2303   4.049   1.204   5.176
    1TCM    cl1 2304   4.098   1.361   5.245
    1TCM    cl2 2305   4.165   1.079   5.224
    1TCM     h1 2306   3.948   1.178   5.213
    1TCM    cl3 2307   4.045   1.216   4.998
    1TCM     c1 2308   1.191   2.160   4.452
    1TCM    cl1 2309   1.316   2.170   4.578
    1TCM    cl2 2310   1.132   1.992   4.441
    1TCM     h1 2311   1.107   2.227   4.478
    1TCM    cl3 2312   1.260   2.209   4.296
    1TCM     c1 2313   0.430   0.290   2.118
    1TCM    cl1 2314   0.439   0.208   1.961
    1TCM    cl2 2315   0.537   0.208   2.234
    1TCM     h1 2316   0.461   0.395   2.107
    1TCM    cl3 2317   0.262   0.284   2.179
    1TCM     c1 2318   3.820   0.432   1.085
    1TCM    cl1 2319   3.933   0.557   1.143
    1TCM    cl2 2320   3.655   0.496   1.087
    1TCM     h1 2321   3.848   0.403   0.981
    1TCM    cl3 2322   3.830   0.290   1.191
    1TCM     c1 2323   3.358   2.290   3.827
    1TCM    cl1 2324   3.418   2.419   3.720
    1TCM    cl2 2325   3.342   2.353   3.993
    1TCM     h1 2326   3.259   2.256   3.791
    1TCM    cl3 2327   3.471   2.153   3.826
    1TCM     c1 2328   3.746   2.912   3.549
    1TCM    cl1 2329   3.895   3.006   3.519
    1TCM    cl2 2330   3.789   2.742   3.576
    1TCM     h1 2331   3.694   2.952   3.638
    1TCM    cl3 2332   3.639   2.924   3.407
    1TCM     c1 2333   3.240   4.442   1.767
    1TCM    cl1 2334   3.197   4.611   1.800
    1TCM    cl2 2335   3.235   4.412   1.591
    1TCM     h1 2336   3.342   4.421   1.805
    1TCM    cl3 2337   3.123   4.334   1.848
    1TCM     c1 2338   0.517   1.330   4.229
    1TCM    cl1 2339   0.431   1.174   4.230
    1TCM    cl2 2340   0.511   1.401   4.066
    1TCM     h1 2341   0.468   1.400   4.301
    1TCM    cl3 2342   0.686   1.305   4.277
    1TCM     c1 2343   0.364   1.865   1.575
    1TCM    cl1 2344   0.535   1.830   1.614
    1TCM    cl2 2345   0.278   1.712   1.548
    1TCM     h1 2346   0.318   1.919   1.660
    1TCM    cl3 2347   0.356   1.965   1.429
    1TCM     c1 2348   0.077   2.909   1.379
    1TCM    cl1 2349   0.195   2.859   1.256
    1TCM    cl2 2350   0.000   3.061   1.328
    1TCM     h1 2351   0.000   2.831   1.391
    1TCM    cl3 2352   0.161   2.935   1.534
    1TCM     c1 2353   0.787   3.709   0.083
    1TCM    cl1 2354   0.740   3.553   0.011
    1TCM    cl2 2355   0.685   3.838   0.017
    1TCM     h1 2356   0.774   3.704   0.193
    1TCM    cl3 2357   0.958   3.743   0.045
    1TCM     c1 2358   3.533   1.312   1.478
    1TCM    cl1 2359   3.529   1.161   1.385
    1TCM    cl2 2360   3.675   1.313   1.584
    1TCM     h1 2361   3.538   1.399   1.409
    1TCM    cl3 2362   3.385   1.324   1.577
    1TCM     c1 2363   3.552   1.716   4.774
    1TCM    cl1 2364   3.377   1.682   4.780
    1TCM    cl2 2365   3.626   1.668   4.928
    1TCM     h1 2366   3.598   1.658   4.691
    1TCM    cl3 2367   3.578   1.890   4.747
    1TCM     c1 2368   0.723   3.964   4.300
    1TCM    cl1 2369   0.567   4.049   4.305
    1TCM    cl2 2370   0.848   4.074   4.236
    1TCM     h1 2371   0.751   3.932   4.402
    1TCM    cl3 2372   0.710   3.822   4.194
    1TCM     c1 2373   3.626   3.223   5.182
    1TCM    cl1 2374   3.589   3.135   5.032
    1TCM    cl2 2375   3.515   3.171   5.311
    1TCM     h1 2376   3.730   3.202   5.213
    1TCM    cl3 2377   3.607   3.398   5.155
    1TCM     c1 2378   0.984   2.724   1.514
    1TCM    cl1 2379   0.923   2.573   1.587
    1TCM    cl2 2380   1.160   2.712   1.493
    1TCM     h1 2381   0.936   2.740   1.416
    1TCM    cl3 2382   0.946   2.861   1.622
    1TCM     c1 2383   4.402   5.082   5.200
    1TCM    cl1 2384   4.282   5.103   5.330
    1TCM    cl2 2385   4.563   5.127   5.262
    1TCM     h1 2386   4.403   4.977   5.167
    1TCM    cl3 2387   4.360   5.188   5.063
    1TCM     c1 2388   4.408   1.115   0.302
    1TCM    cl1 2389   4.250   1.125   0.220
    1TCM    cl2 2390   4.385   1.053   0.467
    1TCM     h1 2391   4.475   1.047   0.246
    1TCM    cl3 2392   4.481   1.277   0.309
    1TCM     c1 2393   3.087   0.848   3.486
    1TCM    cl1 2394   3.044   0.827   3.314
    1TCM    cl2 2395   3.195   0.988   3.503
    1TCM     h1 2396   2.994   0.865   3.545
    1TCM    cl3 2397   3.169   0.702   3.545
    1TCM     c1 2398   4.363   1.452   4.884
    1TCM    cl1 2399   4.502   1.538   4.813
    1TCM    cl2 2400   4.351   1.290   4.811
    1TCM     h1 2401   4.377   1.442   4.993
    1TCM    cl3 2402   4.214   1.543   4.851
    1TCM     c1 2403   4.770   2.158   3.824
    1TCM    cl1 2404   4.675   2.008   3.823
    1TCM    cl2 2405   4.687   2.282   3.728
    1TCM     h1 2406   4.782   2.193   3.929
    1TCM    cl3 2407   4.931   2.126   3.754
    1TCM     c1 2408   0.106   4.937   3.852
    1TCM    cl1 2409   0.007   4.906   3.707
    1TCM    cl2 2410   0.241   4.821   3.857
    1TCM     h1 2411   0.146   5.041   3.848
    1TCM    cl3 2412   0.006   4.918   3.998
    1TCM     c1 2413   3.380   0.746   3.825
    1TCM    cl1 2414   3.224   0.688   3.762
    1TCM    cl2 2415   3.510   0.698   3.714
    1TCM     h1 2416   3.377   0.857   3.833
    1TCM    cl3 2417   3.409   0.676   3.986
    1TCM     c1 2418   3.521   3.942   1.548
    1TCM    cl1 2419   3.384   3.875   1.458
    1TCM    cl2 2420   3.643   3.816   1.574
    1TCM     h1 2421   3.566   4.026   1.491
    1TCM    cl3 2422   3.464   4.002   1.706
    1TCM     c1 2423   0.539   0.175   1.379
    1TCM    cl1 2424   0.636   0.045   1.452
    1TCM    cl2 2425   0.396   0.105   1.301
    1TCM     h1 2426   0.508   0.247   1.458
    1TCM    cl3 2427   0.637   0.261   1.257
    1TCM     c1 2428   2.164   3.974   3.691
    1TCM    cl1 2429   2.294   3.947   3.809
    1TCM    cl2 2430   2.210   3.904   3.534
    1TCM     h1 2431   2.070   3.925   3.727
    1TCM    cl3 2432   2.136   4.148   3.672
    1TCM     c1 2433   4.739   4.047   1.177
    1TCM    cl1 2434   4.667   4.093   1.333
    1TCM    cl2 2435   4.831   3.896   1.197
    1TCM     h1 2436   4.659   4.032   1.102
    1TCM    cl3 2437   4.848   4.176   1.122
    1TCM     c1 2438   3.162   4.366   4.625
    1TCM    cl1 2439   3.118   4.331   4.794
    1TCM    cl2 2440   3.175   4.214   4.535
    1TCM     h1 2441   3.083   4.430   4.579
    1TCM    cl3 2442   3.318   4.452   4.621
    1TCM     c1 2443   2.076   1.873   4.792
    1TCM    cl1 2444   1.938   1.979   4.828
    1TCM    cl2 2445   2.048   1.790   4.637
    1TCM     h1 2446   2.169   1.933   4.785
    1TCM    cl3 2447   2.093   1.752   4.921
    1TCM     c1 2448   1.538   3.529   2.031
    1TCM    cl1 2449   1.629   3.578   1.886
    1TCM    cl2 2450   1.542   3.660   2.151
    1TCM     h1 2451   1.433   3.506   2.003
    1TCM    cl3 2452   1.613   3.383   2.101
    1TCM     c1 2453   1.827   0.112   1.519
    1TCM    cl1 2454   1.898   0.105   1.682
    1TCM    cl2 2455   1.949   0.172   1.404
    1TCM     h1 2456   1.794   0.010   1.488
    1TCM    cl3 2457   1.687   0.221   1.520
    1TCM     c1 2458   4.169   4.357   3.799
    1TCM    cl1 2459   4.098   4.421   3.649
    1TCM    cl2 2460   4.084   4.426   3.939
    1TCM     h1 2461   4.160   4.247   3.800
    1TCM    cl3 2462   4.341   4.402   3.806
    1TCM     c1 2463   0.661   1.032   3.743
    1TCM    cl1 2464   0.628   1.032   3.568
    1TCM    cl2 2465   0.582   0.892   3.818
    1TCM     h1 2466   0.771   1.026   3.759
    1TCM    cl3 2467   0.599   1.182   3.815
    1TCM     c1 2468   1.688   4.465   0.702
    1TCM    cl1 2469   1.815   4.588   0.679
    1TCM    cl2 2470   1.576   4.519   0.829
    1TCM     h1 2471   1.632   4.452   0.607
    1TCM    cl3 2472   1.763   4.311   0.750
    1TCM     c1 2473   3.243   0.376   0.131
    1TCM    cl1 2474   3.118   0.302   0.233
    1TCM    cl2 2475   3.288   0.262   0.001
    1TCM     h1 2476   3.205   0.470   0.086
    1TCM    cl3 2477   3.387   0.412   0.230
    1TCM     c1 2478   3.779   0.934   3.279
    1TCM    cl1 2479   3.766   0.960   3.104
    1TCM    cl2 2480   3.951   0.924   3.324
    1TCM     h1 2481   3.732   1.018   3.333
    1TCM    cl3 2482   3.698   0.782   3.323
    1TCM     c1 2483   0.148   4.597   4.009
    1TCM    cl1 2484   0.286   4.512   3.937
    1TCM    cl2 2485   0.206   4.712   4.132
    1TCM     h1 2486   0.093   4.653   3.930
    1TCM    cl3 2487   0.039   4.479   4.085
    1TCM     c1 2488   4.443   1.698   5.242
    1TCM    cl1 2489   4.576   1.689   5.125
    1TCM    cl2 2490   4.287   1.701   5.155
    1TCM     h1 2491   4.446   1.610   5.309
    1TCM    cl3 2492   4.459   1.847   5.339
    1TCM     c1 2493   0.507   0.658   2.779
    1TCM    cl1 2494   0.653   0.609   2.689
    1TCM    cl2 2495   0.365   0.576   2.709
    1TCM     h1 2496   0.518   0.630   2.885
    1TCM    cl3 2497   0.486   0.834   2.766
    1TCM     c1 2498   0.534   1.869   2.189
    1TCM    cl1 2499   0.641   1.761   2.281
    1TCM    cl2 2500   0.537   1.823   2.017
    1TCM     h1 2501   0.430   1.860   2.228
    1TCM    cl3 2502   0.590   2.037   2.207
    1TCM     c1 2503   3.619   2.220   1.629
    1TCM    cl1 2504   3.540   2.216   1.470
    1TCM    cl2 2505   3.618   2.057   1.700
    1TCM     h1 2506   3.724   2.255   1.618
    1TCM    cl3 2507   3.531   2.332   1.737
    1TCM     c1 2508   2.712   0.907   4.420
    1TCM    cl1 2509   2.600   0.968   4.296
    1TCM    cl2 2510   2.627   0.791   4.525
    1TCM     h1 2511   2.798   0.857   4.370
    1TCM    cl3 2512   2.772   1.043   4.518
    1TCM     c1 2513   4.631   2.549   4.915
    1TCM    cl1 2514   4.617   2.678   5.036
    1TCM    cl2 2515   4.524   2.414   4.959
    1TCM     h1 2516   4.602   2.588   4.815
    1TCM    cl3 2517   4.799   2.491   4.909
    1TCM     c1 2518   3.821   0.756   2.846
    1TCM    cl1 2519   3.714   0.762   2.703
    1TCM    cl2 2520   3.888   0.918   2.876
    1TCM     h1 2521   3.762   0.723   2.934
    1TCM    cl3 2522   3.953   0.641   2.816
    1TCM     c1 2523   2.907   2.229   3.351
    1TCM    cl1 2524   2.832   2.289   3.500
    1TCM    cl2 2525   3.003   2.359   3.276
    1TCM     h1 2526   2.973   2.143   3.374
    1TCM    cl3 2527   2.780   2.177   3.237
    1TCM     c1 2528   3.830   1.610   1.536
    1TCM    cl1 2529   3.885   1.747   1.437
    1TCM    cl2 2530   3.798   1.666   1.702
    1TCM     h1 2531   3.737   1.567   1.493
    1TCM    cl3 2532   3.957   1.485   1.540
    1TCM     c1 2533   0.416   3.448   1.596
    1TCM    cl1 2534   0.254   3.414   1.661
    1TCM    cl2 2535   0.449   3.342   1.457
    1TCM     h1 2536   0.421   3.554   1.564
    1TCM    cl3 2537   0.538   3.419   1.723
    1TCM     c1 2538   2.475   3.690   4.601
    1TCM    cl1 2539   2.442   3.651   4.772
    1TCM    cl2 2540   2.382   3.834   4.555
    1TCM     h1 2541   2.583   3.711   4.589
    1TCM    cl3 2542   2.428   3.553   4.498
    1TCM     c1 2543   1.764   1.700   2.099
    1TCM    cl1 2544   1.679   1.743   2.250
    1TCM    cl2 2545   1.851   1.843   2.038
    1TCM     h1 2546   1.836   1.618   2.119
    1TCM    cl3 2547   1.645   1.647   1.978
    1TCM     c1 2548   4.491   2.489   0.308
    1TCM    cl1 2549   4.639   2.582   0.341
    1TCM    cl2 2550   4.507   2.325   0.376
    1TCM     h1 2551   4.404   2.540   0.354
    1TCM    cl3 2552   4.466   2.478   0.132
    1TCM     c1 2553   3.109   4.612   3.597
    1TCM    cl1 2554   2.942   4.580   3.545
    1TCM    cl2 2555   3.214   4.478   3.544
    1TCM     h1 2556   3.144   4.707   3.552
    1TCM    cl3 2557   3.114   4.625   3.774
    1TCM     c1 2558   4.999   3.903   5.242
    1TCM    cl1 2559   4.868   3.798   5.299
    1TCM    cl2 2560   4.973   4.069   5.301
    1TCM     h1 2561   5.096   3.865   5.280
    1TCM    cl3 2562   5.001   3.903   5.064
    1TCM     c1 2563   1.172   2.675   3.335
    1TCM    cl1 2564   1.051   2.581   3.424
    1TCM    cl2 2565   1.146   2.655   3.160
    1TCM     h1 2566   1.163   2.783   3.361
    1TCM    cl3 2567   1.335   2.618   3.378
    1TCM     c1 2568   2.503   2.832   1.326
    1TCM    cl1 2569   2.373   2.882   1.215
    1TCM    cl2 2570   2.524   2.656   1.318
    1TCM     h1 2571   2.598   2.882   1.297
    1TCM    cl3 2572   2.461   2.879   1.492
    1TCM     c1 2573   0.134   3.567   3.581
    1TCM    cl1 2574   0.248   3.567   3.444
    1TCM    cl2 2575   0.001   3.454   3.548
    1TCM     h1 2576   0.187   3.536   3.673
    1TCM    cl3 2577   0.069   3.731   3.603
    1TCM     c1 2578   2.482   4.846   3.309
    1TCM    cl1 2579   2.638   4.849   3.395
    1TCM    cl2 2580   2.349   4.840   3.428
    1TCM     h1 2581   2.472   4.937   3.247
    1TCM    cl3 2582   2.474   4.702   3.205
    1TCM     c1 2583   5.001   2.735   4.194
    1TCM    cl1 2584   5.171   2.785   4.202
    1TCM    cl2 2585   4.897   2.879   4.188
    1TCM     h1 2586   4.984   2.673   4.104
    1TCM    cl3 2587   4.961   2.639   4.339
    1TCM     c1 2588   2.576   2.263   3.557
    1TCM    cl1 2589   2.436   2.157   3.530
    1TCM    cl2 2590   2.635   2.325   3.401
    1TCM     h1 2591   2.546   2.348   3.622
    1TCM    cl3 2592   2.706   2.170   3.636
    1TCM     c1 2593   2.022   0.875   3.958
    1TCM    cl1 2594   2.073   0.831   4.123
    1TCM    cl2 2595   1.945   1.036   3.962
    1TCM     h1 2596   2.110   0.877   3.891
    1TCM    cl3 2597   1.905   0.755   3.899
    1TCM     c1 2598   0.915   0.384   0.869
    1TCM    cl1 2599   0.873   0.541   0.942
    1TCM    cl2 2600   0.927   0.402   0.693
    1TCM     h1 2601   1.013   0.350   0.910
    1TCM    cl3 2602   0.789   0.265   0.908
    1TCM     c1 2603   4.157   1.432   3.661
    1TCM    cl1 2604   4.053   1.575   3.675
    1TCM    cl2 2605   4.192   1.368   3.823
    1TCM     h1 2606   4.105   1.354   3.601
    1TCM    cl3 2607   4.309   1.477   3.580
    1TCM     c1 2608   3.256   4.977   3.366
    1TCM    cl1 2609   3.422   4.998   3.427
    1TCM    cl2 2610   3.152   4.922   3.499
    1TCM     h1 2611   3.218   5.074   3.328
    1TCM    cl3 2612   3.255   4.857   3.236
    1TCM     c1 2613   2.211   2.537   3.113
    1TCM    cl1 2614   2.136   2.449   2.978
    1TCM    cl2 2615   2.118   2.685   3.146
    1TCM     h1 2616   2.211   2.472   3.204
    1TCM    cl3 2617   2.378   2.580   3.071
    1TCM     c1 2618   1.476   0.719   5.257
    1TCM    cl1 2619   1.520   0.875   5.330
    1TCM    cl2 2620   1.483   0.733   5.080
    1TCM     h1 2621   1.547   0.641   5.291
    1TCM    cl3 2622   1.311   0.675   5.306
    1TCM     c1 2623   2.315   4.367   4.343
    1TCM    cl1 2624   2.198   4.480   4.271
    1TCM    cl2 2625   2.264   4.328   4.509
    1TCM     h1 2626   2.319   4.274   4.282
    1TCM    cl3 2627   2.476   4.443   4.346
    1TCM     c1 2628   0.778   3.746   5.077
    1TCM    cl1 2629   0.759   3.885   4.968
    1TCM    cl2 2630   0.617   3.686   5.124
    1TCM     h1 2631   0.834   3.666   5.026
    1TCM    cl3 2632   0.866   3.798   5.223
    1TCM     c1 2633   5.093   3.059   1.872
    1TCM    cl1 2634   5.076   3.202   1.767
    1TCM    cl2 2635   5.087   3.109   2.042
    1TCM     h1 2636   5.010   2.988   1.851
    1TCM    cl3 2637   5.249   2.980   1.839
    1TCM     c1 2638   3.349   1.217   3.621
    1TCM    cl1 2639   3.400   1.360   3.713
    1TCM    cl2 2640   3.391   1.240   3.449
    1TCM     h1 2641   3.401   1.127   3.660
    1TCM    cl3 2642   3.173   1.196   3.636
    1TCM     c1 2643   0.077   1.325   1.829
    1TCM    cl1 2644   0.252   1.292   1.842
    1TCM    cl2 2645   0.005   1.322   1.992
    1TCM     h1 2646   0.062   1.426   1.785
    1TCM    cl3 2647   0.000   1.202   1.727
    1TCM     c1 2648   1.532   0.098   1.311
    1TCM    cl1 2649   1.395   0.020   1.230
    1TCM    cl2 2650   1.682   0.058   1.224
    1TCM     h1 2651   1.518   0.208   1.310
    1TCM    cl3 2652   1.544   0.041   1.479
    1TCM     c1 2653   2.754   2.944   3.898
    1TCM    cl1 2654   2.829   2.817   3.997
    1TCM    cl2 2655   2.875   3.070   3.863
    1TCM     h1 2656   2.718   2.901   3.803
    1TCM    cl3 2657   2.618   3.016   3.988
    1TCM     c1 2658   5.220   3.323   1.244
    1TCM    cl1 2659   5.269   3.459   1.141
    1TCM    cl2 2660   5.203   3.378   1.412
    1TCM     h1 2661   5.123   3.283   1.208
    1TCM    cl3 2662   5.343   3.195   1.236
    1TCM     c1 2663   1.888   0.289   0.187
    1TCM    cl1 2664   1.756   0.170   0.197
    1TCM    cl2 2665   2.014   0.229   0.076
    1TCM     h1 2666   1.848   0.385   0.150
    1TCM    cl3 2667   1.959   0.313   0.349
    1TCM     c1 2668   1.129   1.996   3.011
    1TCM    cl1 2669   1.161   1.841   2.931
    1TCM    cl2 2670   1.262   2.033   3.124
    1TCM     h1 2671   1.123   2.076   2.934
    1TCM    cl3 2672   0.976   1.987   3.100
    1TCM     c1 2673   2.673   3.867   2.493
    1TCM    cl1 2674   2.824   3.825   2.408
    1TCM    cl2 2675   2.706   3.998   2.609
    1TCM     h1 2676   2.598   3.902   2.419
    1TCM    cl3 2677   2.612   3.724   2.579
    1TCM     c1 2678   1.516   0.640   2.918
    1TCM    cl1 2679   1.396   0.761   2.866
    1TCM    cl2 2680   1.510   0.622   3.095
    1TCM     h1 2681   1.494   0.543   2.870
    1TCM    cl3 2682   1.679   0.694   2.870
    1TCM     c1 2683   5.128   5.034   2.858
    1TCM    cl1 2684   5.050   4.875   2.836
    1TCM    cl2 2685   5.175   5.053   3.028
    1TCM     h1 2686   5.218   5.040   2.793
    1TCM    cl3 2687   5.014   5.162   2.813
    1TCM     c1 2688   2.603   3.894   3.213
    1TCM    cl1 2689   2.483   3.969   3.321
    1TCM    cl2 2690   2.622   3.995   3.068
    1TCM     h1 2691   2.700   3.886   3.266
    1TCM    cl3 2692   2.547   3.732   3.166
    1TCM     c1 2693   5.124   5.001   0.216
    1TCM    cl1 2694   4.947   4.999   0.227
    1TCM    cl2 2695   5.173   4.965   0.048
    1TCM     h1 2696   5.162   5.101   0.245
    1TCM    cl3 2697   5.192   4.878   0.325
    1TCM     c1 2698   1.541   4.073   5.167
    1TCM    cl1 2699   1.392   4.058   5.072
    1TCM    cl2 2700   1.631   3.919   5.161
    1TCM     h1 2701   1.604   4.154   5.126
    1TCM    cl3 2702   1.500   4.110   5.336
    1TCM     c1 2703   0.448   2.053   3.475
    1TCM    cl1 2704   0.353   2.155   3.364
    1TCM    cl2 2705   0.381   1.889   3.477
    1TCM     h1 2706   0.553   2.050   3.440
    1TCM    cl3 2707   0.442   2.122   3.639
    1TCM     c1 2708   4.658   0.447   4.875
    1TCM    cl1 2709   4.678   0.454   5.051
    1TCM    cl2 2710   4.660   0.612   4.808
    1TCM     h1 2711   4.741   0.389   4.831
    1TCM    cl3 2712   4.503   0.369   4.836
    1TCM     c1 2713   4.363   2.424   2.472
    1TCM    cl1 2714   4.256   2.299   2.541
    1TCM    cl2 2715   4.498   2.454   2.584
    1TCM     h1 2716   4.403   2.388   2.375
    1TCM    cl3 2717   4.271   2.574   2.447
    1TCM     c1 2718   3.496   4.738   1.648
    1TCM    cl1 2719   3.518   4.576   1.720
    1TCM    cl2 2720   3.562   4.739   1.483
    1TCM     h1 2721   3.388   4.762   1.645
    1TCM    cl3 2722   3.582   4.858   1.747
    1TCM     c1 2723   5.219   5.192   0.758
    1TCM    cl1 2724   5.279   5.340   0.836
    1TCM    cl2 2725   5.042   5.202   0.741
    1TCM     h1 2726   5.265   5.182   0.658
    1TCM    cl3 2727   5.261   5.051   0.857
    1TCM     c1 2728   3.975   5.156   0.254
    1TCM    cl1 2729   4.019   5.096   0.416
    1TCM    cl2 2730   4.122   5.194   0.163
    1TCM     h1 2731   3.917   5.077   0.200
    1TCM    cl3 2732   3.875   5.302   0.271
    1TCM     c1 2733   0.690   5.242   2.411
    1TCM    cl1 2734   0.578   5.332   2.516
    1TCM    cl2 2735   0.652   5.277   2.241
    1TCM     h1 2736   0.794   5.273   2.432
    1TCM    cl3 2737   0.672   5.068   2.441
    1TCM     c1 2738   2.881   5.162   4.397
    1TCM    cl1 2739   2.815   5.260   4.264
    1TCM    cl2 2740   2.982   5.032   4.330
    1TCM     h1 2741   2.943   5.227   4.462
    1TCM    cl3 2742   2.748   5.092   4.491
    1TCM     c1 2743   4.331   4.240   1.740
    1TCM    cl1 2744   4.223   4.266   1.601
    1TCM    cl2 2745   4.274   4.336   1.878
    1TCM     h1 2746   4.331   4.132   1.767
    1TCM    cl3 2747   4.496   4.290   1.697
    1TCM     c1 2748   3.250   3.714   4.875
    1TCM    cl1 2749   3.352   3.710   5.022
    1TCM    cl2 2750   3.342   3.647   4.739
    1TCM     h1 2751   3.159   3.654   4.892
    1TCM    cl3 2752   3.205   3.882   4.839
    1TCM     c1 2753   2.772   0.541   4.347
    1TCM    cl1 2754   2.673   0.542   4.494
    1TCM    cl2 2755   2.709   0.419   4.234
    1TCM     h1 2756   2.769   0.641   4.299
    1TCM    cl3 2757   2.940   0.501   4.389
    1TCM     c1 2758   3.333   3.389   1.765
    1TCM    cl1 2759   3.450   3.474   1.661
    1TCM    cl2 2760   3.347   3.451   1.931
    1TCM     h1 2761   3.230   3.406   1.727
    1TCM    cl3 2762   3.369   3.215   1.764
    1TCM     c1 2763   0.167   3.113   3.448
    1TCM    cl1 2764   0.261   3.087   3.300
    1TCM    cl2 2765   0.275   3.105   3.589
    1TCM     h1 2766   0.118   3.212   3.445
    1TCM    cl3 2767   0.043   2.986   3.462
    1TCM     c1 2768   1.510   3.846   3.102
    1TCM    cl1 2769   1.601   3.875   3.252
    1TCM    cl2 2770   1.515   3.993   3.001
    1TCM     h1 2771   1.556   3.762   3.046
    1TCM    cl3 2772   1.342   3.806   3.141
    1TCM     c1 2773   2.835   4.217   1.756
    1TCM    cl1 2774   2.693   4.111   1.740
    1TCM    cl2 2775   2.888   4.222   1.926
    1TCM     h1 2776   2.918   4.178   1.693
    1TCM    cl3 2777   2.793   4.381   1.702
    1TCM     c1 2778   5.144   1.665   2.950
    1TCM    cl1 2779   5.090   1.661   2.780
    1TCM    cl2 2780   5.320   1.689   2.955
    1TCM     h1 2781   5.093   1.748   3.002
    1TCM    cl3 2782   5.103   1.511   3.029
    1TCM     c1 2783   4.472   3.380   2.908
    1TCM    cl1 2784   4.299   3.384   2.869
    1TCM    cl2 2785   4.495   3.310   3.070
    1TCM     h1 2786   4.525   3.318   2.833
    1TCM    cl3 2787   4.537   3.546   2.906
    1TCM     c1 2788   2.701   4.911   2.643
    1TCM    cl1 2789   2.830   4.790   2.639
    1TCM    cl2 2790   2.714   5.007   2.793
    1TCM     h1 2791   2.710   4.979   2.556
    1TCM    cl3 2792   2.543   4.831   2.639
    1TCM     c1 2793   3.016   3.263   2.503
    1TCM    cl1 2794   3.028   3.103   2.580
    1TCM    cl2 2795   3.156   3.288   2.397
    1TCM     h1 2796   2.923   3.268   2.443
    1TCM    cl3 2797   3.012   3.389   2.627
    1TCM     c1 2798   1.917   3.515   4.155
    1TCM    cl1 2799   1.903   3.659   4.052
    1TCM    cl2 2800   1.942   3.564   4.324
    1TCM     h1 2801   1.824   3.455   4.147
    1TCM    cl3 2802   2.056   3.417   4.100
    1TCM     c1 2803   4.949   1.890   0.563
    1TCM    cl1 2804   4.900   1.794   0.422
    1TCM    cl2 2805   4.883   1.815   0.711
    1TCM     h1 2806   5.060   1.892   0.570
    1TCM    cl3 2807   4.887   2.055   0.547
    1TCM     c1 2808   2.052   3.107   2.070
    1TCM    cl1 2809   2.180   3.163   2.180
    1TCM    cl2 2810   2.124   3.009   1.940
    1TCM     h1 2811   1.979   3.046   2.126
    1TCM    cl3 2812   1.970   3.248   1.998
    1TCM     c1 2813   1.992   0.951   4.969
    1TCM    cl1 2814   2.041   1.119   4.935
    1TCM    cl2 2815   2.112   0.839   4.899
    1TCM     h1 2816   1.987   0.936   5.079
    1TCM    cl3 2817   1.833   0.920   4.897
    1TCM     c1 2818   0.323   5.104   4.006
    1TCM    cl1 2819   0.446   5.171   4.116
    1TCM    cl2 2820   0.350   5.166   3.842
    1TCM     h1 2821   0.331   4.993   4.006
    1TCM    cl3 2822   0.162   5.152   4.062
    1TCM     c1 2823   1.660   4.502   1.725
    1TCM    cl1 2824   1.651   4.636   1.609
    1TCM    cl2 2825   1.827   4.485   1.784
    1TCM     h1 2826   1.593   4.522   1.810
    1TCM    cl3 2827   1.611   4.351   1.645
    1TCM     c1 2828   4.912   1.011   4.251
    1TCM    cl1 2829   4.840   0.884   4.352
    1TCM    cl2 2830   4.853   0.993   4.084
    1TCM     h1 2831   4.882   1.110   4.290
    1TCM    cl3 2832   5.089   0.996   4.254
    1TCM     c1 2833   2.342   3.249   0.238
    1TCM    cl1 2834   2.405   3.333   0.095
    1TCM    cl2 2835   2.299   3.367   0.363
    1TCM     h1 2836   2.253   3.190   0.210
    1TCM    cl3 2837   2.467   3.139   0.301
    1TCM     c1 2838   2.624   4.406   1.405
    1TCM    cl1 2839   2.543   4.558   1.450
    1TCM    cl2 2840   2.594   4.373   1.232
    1TCM     h1 2841   2.733   4.415   1.423
    1TCM    cl3 2842   2.558   4.273   1.503
    1TCM     c1 2843   1.611   0.897   4.007
    1TCM    cl1 2844   1.719   0.826   4.129
    1TCM    cl2 2845   1.640   1.073   3.998
    1TCM     h1 2846   1.631   0.851   3.909
    1TCM    cl3 2847   1.442   0.868   4.053
    1TCM     c1 2848   1.571   1.135   2.835
    1TCM    cl1 2849   1.587   1.072   2.669
    1TCM    cl2 2850   1.566   0.999   2.949
    1TCM     h1 2851   1.658   1.199   2.859
    1TCM    cl3 2852   1.421   1.230   2.849
    1TCM     c1 2853   1.991   3.198   3.478
    1TCM    cl1 2854   1.962   3.177   3.304
    1TCM    cl2 2855   2.034   3.368   3.510
    1TCM     h1 2856   1.899   3.172   3.534
    1TCM    cl3 2857   2.124   3.093   3.530
    1TCM     c1 2858   3.868   4.310   3.012
    1TCM    cl1 2859   3.785   4.411   3.133
    1TCM    cl2 2860   3.880   4.400   2.859
    1TCM     h1 2861   3.970   4.285   3.048
    1TCM    cl3 2862   3.776   4.161   2.985
    1TCM     c1 2863   2.734   5.192   0.550
    1TCM    cl1 2864   2.851   5.272   0.443
    1TCM    cl2 2865   2.577   5.273   0.538
    1TCM     h1 2866   2.723   5.085   0.520
    1TCM    cl3 2867   2.792   5.200   0.718
    1TCM     c1 2868   1.651   3.813   4.112
    1TCM    cl1 2869   1.773   3.942   4.104
    1TCM    cl2 2870   1.699   3.695   4.236
    1TCM     h1 2871   1.553   3.857   4.138
    1TCM    cl3 2872   1.640   3.732   3.954
    1TCM     c1 2873   2.355   2.253   1.337
    1TCM    cl1 2874   2.503   2.340   1.383
    1TCM    cl2 2875   2.256   2.357   1.232
    1TCM     h1 2876   2.382   2.160   1.282
    1TCM    cl3 2877   2.263   2.211   1.483
    1TCM     c1 2878   3.058   0.134   3.806
    1TCM    cl1 2879   3.214   0.069   3.862
    1TCM    cl2 2880   2.979   0.222   3.939
    1TCM     h1 2881   3.075   0.203   3.721
    1TCM    cl3 2882   2.954   0.000   3.754
    1TCM     c1 2883   1.804   0.909   2.221
    1TCM    cl1 2884   1.861   0.885   2.054
    1TCM    cl2 2885   1.828   1.079   2.268
    1TCM     h1 2886   1.696   0.884   2.227
    1TCM    cl3 2887   1.895   0.803   2.331
    1TCM     c1 2888   2.312   2.830   0.271
    1TCM    cl1 2889   2.295   2.827   0.448
    1TCM    cl2 2890   2.266   2.672   0.204
    1TCM     h1 2891   2.247   2.909   0.228
    1TCM    cl3 2892   2.482   2.864   0.229
    1TCM     c1 2893   3.605   2.514   4.371
    1TCM    cl1 2894   3.688   2.666   4.411
    1TCM    cl2 2895   3.724   2.395   4.314
    1TCM     h1 2896   3.554   2.474   4.461
    1TCM    cl3 2897   3.485   2.543   4.243
    1TCM     c1 2898   0.784   0.445   1.992
    1TCM    cl1 2899   0.646   0.401   1.889
    1TCM    cl2 2900   0.747   0.405   2.161
    1TCM     h1 2901   0.874   0.388   1.959
    1TCM    cl3 2902   0.816   0.619   1.977
    1TCM     c1 2903   0.075   2.887   3.906
    1TCM    cl1 2904   0.231   2.972   3.915
    1TCM    cl2 2905   0.018   2.849   4.070
    1TCM     h1 2906   0.001   2.952   3.855
    1TCM    cl3 2907   0.096   2.736   3.814
    1TCM     c1 2908   4.295   4.868   0.793
    1TCM    cl1 2909   4.326   4.867   0.968
    1TCM    cl2 2910   4.333   5.028   0.726
    1TCM     h1 2911   4.358   4.791   0.744
    1TCM    cl3 2912   4.123   4.831   0.763
    1TCM     c1 2913   0.269   4.334   1.077
    1TCM    cl1 2914   0.278   4.160   1.042
    1TCM    cl2 2915   0.111   4.396   1.026
    1TCM     h1 2916   0.283   4.350   1.186
    1TCM    cl3 2917   0.398   4.419   0.988
    1TCM     c1 2918   2.173   2.380   3.781
    1TCM    cl1 2919   2.234   2.458   3.633
    1TCM    cl2 2920   2.299   2.385   3.907
    1TCM     h1 2921   2.083   2.434   3.817
    1TCM    cl3 2922   2.130   2.211   3.746
    1TCM     c1 2923   0.600   4.079   1.318
    1TCM    cl1 2924   0.530   4.134   1.164
    1TCM    cl2 2925   0.572   4.202   1.444
    1TCM     h1 2926   0.551   3.984   1.349
    1TCM    cl3 2927   0.774   4.053   1.299
    1TCM     c1 2928   1.565   3.850   0.437
    1TCM    cl1 2929   1.551   3.700   0.343
    1TCM    cl2 2930   1.730   3.865   0.501
    1TCM     h1 2931   1.543   3.937   0.371
    1TCM    cl3 2932   1.449   3.847   0.571
    1TCM     c1 2933   3.051   1.687   2.385
    1TCM    cl1 2934   3.221   1.711   2.337
    1TCM    cl2 2935   2.995   1.829   2.476
    1TCM     h1 2936   2.989   1.673   2.294
    1TCM    cl3 2937   3.039   1.542   2.487
    1TCM     c1 2938   1.915   2.742   2.532
    1TCM    cl1 2939   1.968   2.709   2.699
    1TCM    cl2 2940   1.739   2.721   2.520
    1TCM     h1 2941   1.941   2.847   2.505
    1TCM    cl3 2942   1.996   2.630   2.421
    1TCM     c1 2943   3.414   5.135   2.095
    1TCM    cl1 2944   3.349   5.253   1.979
    1TCM    cl2 2945   3.280   5.050   2.175
    1TCM     h1 2946   3.478   5.062   2.041
    1TCM    cl3 2947   3.511   5.220   2.217
    1TCM     c1 2948   1.037   2.529   4.454
    1TCM    cl1 2949   1.128   2.668   4.516
    1TCM    cl2 2950   1.128   2.453   4.321
    1TCM     h1 2951   1.022   2.455   4.535
    1TCM    cl3 2952   0.879   2.584   4.393
    1TCM     c1 2953   4.592   3.914   4.944
    1TCM    cl1 2954   4.671   3.781   5.032
    1TCM    cl2 2955   4.650   3.916   4.775
    1TCM     h1 2956   4.482   3.899   4.945
    1TCM    cl3 2957   4.632   4.069   5.022
    1TCM     c1 2958   4.921   1.883   4.163
    1TCM    cl1 2959   5.087   1.825   4.184
    1TCM    cl2 2960   4.870   1.858   3.994
    1TCM     h1 2961   4.853   1.828   4.231
    1TCM    cl3 2962   4.913   2.057   4.202
    1TCM     c1 2963   4.126   2.300   2.924
    1TCM    cl1 2964   4.035   2.148   2.929
    1TCM    cl2 2965   4.021   2.433   2.978
    1TCM     h1 2966   4.214   2.293   2.991
    1TCM    cl3 2967   4.181   2.332   2.758
    1TCM     c1 2968   1.468   2.834   5.169
    1TCM    cl1 2969   1.451   3.003   5.221
    1TCM    cl2 2970   1.311   2.751   5.185
    1TCM     h1 2971   1.501   2.831   5.063
    1TCM    cl3 2972   1.589   2.752   5.270
    1TCM     c1 2973   3.871   2.190   3.211
    1TCM    cl1 2974   3.971   2.333   3.174
    1TCM    cl2 2975   3.970   2.070   3.297
    1TCM     h1 2976   3.786   2.220   3.274
    1TCM    cl3 2977   3.811   2.119   3.059
    1TCM     c1 2978   2.824   4.976   0.974
    1TCM    cl1 2979   2.815   5.153   0.982
    1TCM    cl2 2980   2.660   4.909   0.961
    1TCM     h1 2981   2.883   4.946   0.885
    1TCM    cl3 2982   2.902   4.913   1.120
    1TCM     c1 2983   1.659   3.852   0.888
    1TCM    cl1 2984   1.822   3.798   0.934
    1TCM    cl2 2985   1.620   3.791   0.726
    1TCM     h1 2986   1.585   3.813   0.961
    1TCM    cl3 2987   1.653   4.030   0.888
    1TCM     c1 2988   5.072   3.226   5.124
    1TCM    cl1 2989   5.004   3.348   5.234
    1TCM    cl2 2990   4.957   3.091   5.107
    1TCM     h1 2991   5.091   3.271   5.025
    1TCM    cl3 2992   5.225   3.164   5.191
    1TCM     c1 2993   2.928   5.049   3.111
    1TCM    cl1 2994   3.092   5.112   3.137
    1TCM    cl2 2995   2.902   5.021   2.938
    1TCM     h1 2996   2.916   4.953   3.167
    1TCM    cl3 2997   2.809   5.167   3.171
    1TCM     c1 2998   4.818   3.855   3.640
    1TCM    cl1 2999   4.708   3.845   3.780
    1TCM    cl2 3000   4.724   3.889   3.493
    1TCM     h1 3001   4.891   3.936   3.657
    1TCM    cl3 3002   4.903   3.700   3.621
    1TCM     c1 3003   1.696   0.864   3.165
    1TCM    cl1 3004   1.841   0.801   3.246
    1TCM    cl2 3005   1.702   1.042   3.163
    1TCM     h1 3006   1.692   0.826   3.061
    1TCM    cl3 3007   1.551   0.811   3.253
    1TCM     c1 3008   3.313   2.741   4.565
    1TCM    cl1 3009   3.288   2.917   4.568
    1TCM    cl2 3010   3.302   2.682   4.398
    1TCM     h1 3011   3.414   2.717   4.606
    1TCM    cl3 3012   3.189   2.661   4.665
    1TCM     c1 3013   2.384   4.213   0.583
    1TCM    cl1 3014   2.247   4.175   0.476
    1TCM    cl2 3015   2.339   4.177   0.752
    1TCM     h1 3016   2.471   4.151   0.555
    1TCM    cl3 3017   2.425   4.385   0.568
    1TCM     c1 3018   3.241   1.595   0.296
    1TCM    cl1 3019   3.356   1.689   0.199
    1TCM    cl2 3020   3.158   1.477   0.192
    1TCM     h1 3021   3.295   1.541   0.377
    1TCM    cl3 3022   3.121   1.705   0.369
    1TCM     c1 3023   2.395   1.821   4.124
    1TCM    cl1 3024   2.426   1.780   4.295
    1TCM    cl2 3025   2.225   1.867   4.104
    1TCM     h1 3026   2.460   1.905   4.094
    1TCM    cl3 3027   2.430   1.679   4.022
    1TCM     c1 3028   1.253   0.989   2.675
    1TCM    cl1 3029   1.416   0.940   2.622
    1TCM    cl2 3030   1.184   1.103   2.556
    1TCM     h1 3031   1.188   0.900   2.682
    1TCM    cl3 3032   1.263   1.068   2.834
    1TCM     c1 3033   2.834   4.405   5.139
    1TCM    cl1 3034   2.861   4.293   5.275
    1TCM    cl2 3035   2.669   4.382   5.075
    1TCM     h1 3036   2.845   4.509   5.175
    1TCM    cl3 3037   2.952   4.372   5.011
    1TCM     c1 3038   2.252   4.487   1.647
    1TCM    cl1 3039   2.307   4.619   1.753
    1TCM    cl2 3040   2.277   4.534   1.477
    1TCM     h1 3041   2.310   4.395   1.669
    1TCM    cl3 3042   2.079   4.457   1.675
    1TCM     c1 3043   0.981   2.538   5.120
    1TCM    cl1 3044   0.826   2.504   5.200
    1TCM    cl2 3045   1.007   2.419   4.990
    1TCM     h1 3046   0.979   2.640   5.077
    1TCM    cl3 3047   1.113   2.525   5.239
    1TCM     c1 3048   1.714   1.186   1.839
    1TCM    cl1 3049   1.665   1.330   1.746
    1TCM    cl2 3050   1.571   1.110   1.911
    1TCM     h1 3051   1.765   1.114   1.772
    1TCM    cl3 3052   1.826   1.236   1.968
    1TCM     c1 3053   0.531   3.642   3.666
    1TCM    cl1 3054   0.368   3.709   3.689
    1TCM    cl2 3055   0.572   3.644   3.493
    1TCM     h1 3056   0.604   3.703   3.722
    1TCM    cl3 3057   0.535   3.474   3.726
    1TCM     c1 3058   2.290   0.126   1.400
    1TCM    cl1 3059   2.180   0.052   1.281
    1TCM    cl2 3060   2.404   0.234   1.316
    1TCM     h1 3061   2.231   0.185   1.473
    1TCM    cl3 3062   2.381  -0.001   1.485
    1TCM     c1 3063   0.256   0.058   3.748
    1TCM    cl1 3064   0.390   0.003   3.850
    1TCM    cl2 3065   0.282   0.001   3.581
    1TCM     h1 3066   0.161   0.018   3.786
    1TCM    cl3 3067   0.250   0.236   3.749
    1TCM     c1 3068   3.240   4.041   1.563
    1TCM    cl1 3069   3.379   4.152   1.568
    1TCM    cl2 3070   3.279   3.894   1.656
    1TCM     h1 3071   3.152   4.091   1.607
    1TCM    cl3 3072   3.205   3.997   1.395
    1TCM     c1 3073   4.679   4.337   3.839
    1TCM    cl1 3074   4.617   4.481   3.922
    1TCM    cl2 3075   4.777   4.240   3.953
    1TCM     h1 3076   4.594   4.276   3.802
    1TCM    cl3 3077   4.780   4.386   3.702
    1TCM     c1 3078   0.961   3.662   0.394
    1TCM    cl1 3079   1.041   3.629   0.549
    1TCM    cl2 3080   1.049   3.580   0.263
    1TCM     h1 3081   0.857   3.625   0.398
    1TCM    cl3 3082   0.960   3.838   0.364
    1TCM     c1 3083   5.132   2.336   5.098
    1TCM    cl1 3084   5.063   2.268   5.248
    1TCM    cl2 3085   5.309   2.347   5.114
    1TCM     h1 3086   5.106   2.271   5.012
    1TCM    cl3 3087   5.065   2.499   5.071
    1TCM     c1 3088   1.011   5.036   2.508
    1TCM    cl1 3089   0.984   5.138   2.651
    1TCM    cl2 3090   1.030   5.138   2.364
    1TCM     h1 3091   1.103   4.976   2.523
    1TCM    cl3 3092   0.872   4.927   2.486
    1TCM     c1 3093   1.033   1.247   4.217
    1TCM    cl1 3094   0.929   1.337   4.331
    1TCM    cl2 3095   0.998   1.301   4.051
    1TCM     h1 3096   1.139   1.267   4.241
    1TCM    cl3 3097   0.999   1.073   4.232
    1TCM     c1 3098   3.915   2.704   4.212
    1TCM    cl1 3099   3.793   2.631   4.104
    1TCM    cl2 3100   3.911   2.622   4.370
    1TCM     h1 3101   4.016   2.693   4.167
    1TCM    cl3 3102   3.878   2.877   4.234
    1TCM     c1 3103   2.322   3.530   5.205
    1TCM    cl1 3104   2.455   3.429   5.147
    1TCM    cl2 3105   2.171   3.483   5.123
    1TCM     h1 3106   2.310   3.517   5.314
    1TCM    cl3 3107   2.357   3.701   5.169
    1TCM     c1 3108   1.291   0.571   1.003
    1TCM    cl1 3109   1.296   0.502   0.839
    1TCM    cl2 3110   1.263   0.746   0.992
    1TCM     h1 3111   1.209   0.524   1.060
    1TCM    cl3 3112   1.446   0.540   1.084
    1TCM     c1 3113   0.409   3.677   0.564
    1TCM    cl1 3114   0.472   3.672   0.398
    1TCM    cl2 3115   0.406   3.513   0.631
    1TCM     h1 3116   0.474   3.742   0.627
    1TCM    cl3 3117   0.244   3.743   0.563
    1TCM     c1 3118   3.207   1.596   3.500
    1TCM    cl1 3119   3.286   1.751   3.462
    1TCM    cl2 3120   3.198   1.496   3.353
    1TCM     h1 3121   3.265   1.543   3.577
    1TCM    cl3 3122   3.042   1.627   3.560
    1TCM     c1 3123   2.740   4.687   0.295
    1TCM    cl1 3124   2.707   4.857   0.253
    1TCM    cl2 3125   2.821   4.607   0.158
    1TCM     h1 3126   2.806   4.683   0.384
    1TCM    cl3 3127   2.587   4.604   0.330
    1TCM     c1 3128   3.670   3.474   3.344
    1TCM    cl1 3129   3.800   3.354   3.360
    1TCM    cl2 3130   3.739   3.638   3.350
    1TCM     h1 3131   3.618   3.460   3.247
    1TCM    cl3 3132   3.554   3.454   3.477
    1TCM     c1 3133   2.993   3.959   0.914
    1TCM    cl1 3134   2.890   4.088   0.845
    1TCM    cl2 3135   2.890   3.829   0.978
    1TCM     h1 3136   3.059   3.918   0.834
    1TCM    cl3 3137   3.093   4.027   1.044
    1TCM     c1 3138   4.468   4.365   1.190
    1TCM    cl1 3139   4.456   4.487   1.061
    1TCM    cl2 3140   4.615   4.268   1.166
    1TCM     h1 3141   4.473   4.416   1.288
    1TCM    cl3 3142   4.326   4.259   1.185
    1TCM     c1 3143   4.536   3.100   0.260
    1TCM    cl1 3144   4.376   3.145   0.321
    1TCM    cl2 3145   4.630   3.023   0.390
    1TCM     h1 3146   4.525   3.028   0.176
    1TCM    cl3 3147   4.622   3.245   0.203
    1TCM     c1 3148   2.926   1.035   2.211
    1TCM    cl1 3149   2.906   0.859   2.219
    1TCM    cl2 3150   2.795   1.104   2.112
    1TCM     h1 3151   2.921   1.077   2.313
    1TCM    cl3 3152   3.083   1.074   2.137
    1TCM     c1 3153   3.450   4.600   2.978
    1TCM    cl1 3154   3.397   4.737   2.878
    1TCM    cl2 3155   3.406   4.629   3.147
    1TCM     h1 3156   3.401   4.507   2.942
    1TCM    cl3 3157   3.627   4.582   2.964
    1TCM     c1 3158   3.710   3.561   3.967
    1TCM    cl1 3159   3.818   3.647   4.079
    1TCM    cl2 3160   3.716   3.386   4.002
    1TCM     h1 3161   3.606   3.598   3.979
    1TCM    cl3 3162   3.764   3.590   3.800
    1TCM     c1 3163   4.170   0.315   0.213
    1TCM    cl1 3164   4.319   0.304   0.310
    1TCM    cl2 3165   4.200   0.249   0.051
    1TCM     h1 3166   4.090   0.257   0.262
    1TCM    cl3 3167   4.122   0.485   0.199
    1TCM     c1 3168   3.186   3.290   3.645
    1TCM    cl1 3169   3.192   3.139   3.738
    1TCM    cl2 3170   3.348   3.327   3.582
    1TCM     h1 3171   3.116   3.278   3.560
    1TCM    cl3 3172   3.131   3.422   3.750
    1TCM     c1 3173   0.603   2.721   1.869
    1TCM    cl1 3174   0.753   2.656   1.800
    1TCM    cl2 3175   0.487   2.589   1.898
    1TCM     h1 3176   0.625   2.772   1.965
    1TCM    cl3 3177   0.531   2.839   1.756
    1TCM     c1 3178   5.193   4.304   3.021
    1TCM    cl1 3179   5.202   4.463   2.942
    1TCM    cl2 3180   5.245   4.318   3.191
    1TCM     h1 3181   5.088   4.267   3.017
    1TCM    cl3 3182   5.299   4.189   2.936
    1TCM     c1 3183   2.295   3.510   1.520
    1TCM    cl1 3184   2.380   3.445   1.379
    1TCM    cl2 3185   2.378   3.459   1.669
    1TCM     h1 3186   2.293   3.620   1.515
    1TCM    cl3 3187   2.128   3.447   1.523
    1TCM     c1 3188   5.075   1.388   2.443
    1TCM    cl1 3189   5.188   1.493   2.356
    1TCM    cl2 3190   5.128   1.219   2.427
    1TCM     h1 3191   5.073   1.416   2.550
    1TCM    cl3 3192   4.912   1.405   2.374
    1TCM     c1 3193   4.193   3.125   3.998
    1TCM    cl1 3194   4.036   3.067   4.058
    1TCM    cl2 3195   4.315   2.998   4.019
    1TCM     h1 3196   4.184   3.151   3.891
    1TCM    cl3 3197   4.241   3.270   4.090
    1TCM     c1 3198   1.605   3.561   3.467
    1TCM    cl1 3199   1.692   3.652   3.342
    1TCM    cl2 3200   1.616   3.387   3.432
    1TCM     h1 3201   1.650   3.581   3.566
    1TCM    cl3 3202   1.434   3.610   3.468
    1TCM     c1 3203   2.572   3.273   2.637
    1TCM    cl1 3204   2.441   3.210   2.739
    1TCM    cl2 3205   2.729   3.229   2.708
    1TCM     h1 3206   2.565   3.230   2.535
    1TCM    cl3 3207   2.560   3.450   2.628
    1TCM     c1 3208   1.895   2.912   0.189
    1TCM    cl1 3209   1.868   2.774   0.299
    1TCM    cl2 3210   1.917   2.851   0.023
    1TCM     h1 3211   1.807   2.979   0.192
    1TCM    cl3 3212   2.040   3.001   0.239
    1TCM     c1 3213   4.822   0.838   2.890
    1TCM    cl1 3214   4.776   0.673   2.937
    1TCM    cl2 3215   4.722   0.890   2.752
    1TCM     h1 3216   4.806   0.906   2.975
    1TCM    cl3 3217   4.994   0.840   2.843
    1TCM     c1 3218   4.871   2.046   1.253
    1TCM    cl1 3219   4.761   2.070   1.115
    1TCM    cl2 3220   4.841   2.171   1.375
    1TCM     h1 3221   4.853   1.946   1.297
    1TCM    cl3 3222   5.039   2.056   1.197
    1TCM     c1 3223   3.146   4.017   0.485
    1TCM    cl1 3224   3.271   3.937   0.582
    1TCM    cl2 3225   3.222   4.141   0.382
    1TCM     h1 3226   3.095   3.943   0.421
    1TCM    cl3 3227   3.027   4.095   0.592
    1TCM     c1 3228   2.672   4.103   3.644
    1TCM    cl1 3229   2.814   4.160   3.734
    1TCM    cl2 3230   2.717   4.074   3.474
    1TCM     h1 3231   2.635   4.008   3.688
    1TCM    cl3 3232   2.544   4.226   3.651
    1TCM     c1 3233   2.099   4.515   2.275
    1TCM    cl1 3234   2.239   4.455   2.367
    1TCM    cl2 3235   1.956   4.521   2.381
    1TCM     h1 3236   2.121   4.617   2.237
    1TCM    cl3 3237   2.067   4.406   2.138
    1TCM     c1 3238   1.605   1.763   0.674
    1TCM    cl1 3239   1.444   1.781   0.746
    1TCM    cl2 3240   1.729   1.769   0.802
    1TCM     h1 3241   1.612   1.665   0.621
    1TCM    cl3 3242   1.634   1.895   0.558
    1TCM     c1 3243   0.274   2.797   4.363
    1TCM    cl1 3244   0.381   2.862   4.237
    1TCM    cl2 3245   0.254   2.622   4.340
    1TCM     h1 3246   0.318   2.816   4.463
    1TCM    cl3 3247   0.115   2.877   4.353
    1TCM     c1 3248   0.524   1.638   4.715
    1TCM    cl1 3249   0.634   1.774   4.680
    1TCM    cl2 3250   0.582   1.552   4.859
    1TCM     h1 3251   0.422   1.677   4.734
    1TCM    cl3 3252   0.521   1.527   4.576
    1TCM     c1 3253   5.106   2.914   0.675
    1TCM    cl1 3254   5.170   2.812   0.806
    1TCM    cl2 3255   5.120   2.828   0.520
    1TCM     h1 3256   5.000   2.938   0.695
    1TCM    cl3 3257   5.200   3.065   0.668
    1TCM     c1 3258   2.200   4.267   4.833
    1TCM    cl1 3259   2.231   4.120   4.927
    1TCM    cl2 3260   2.193   4.407   4.942
    1TCM     h1 3261   2.281   4.282   4.758
    1TCM    cl3 3262   2.044   4.251   4.748
    1TCM     c1 3263   3.006   3.499   3.219
    1TCM    cl1 3264   2.895   3.496   3.080
    1TCM    cl2 3265   3.116   3.637   3.204
    1TCM     h1 3266   2.947   3.508   3.313
    1TCM    cl3 3267   3.100   3.348   3.224
    1TCM     c1 3268   2.975   4.394   0.365
    1TCM    cl1 3269   3.013   4.396   0.539
    1TCM    cl2 3270   3.030   4.546   0.291
    1TCM     h1 3271   3.027   4.309   0.317
    1TCM    cl3 3272   2.800   4.377   0.342
    1TCM     c1 3273   3.462   4.484   0.474
    1TCM    cl1 3274   3.523   4.376   0.347
    1TCM    cl2 3275   3.534   4.438   0.630
    1TCM     h1 3276   3.490   4.589   0.450
    1TCM    cl3 3277   3.285   4.470   0.484
    1TCM     c1 3278   2.400   3.732   1.029
    1TCM    cl1 3279   2.563   3.787   1.076
    1TCM    cl2 3280   2.355   3.592   1.129
    1TCM     h1 3281   2.327   3.814   1.045
    1TCM    cl3 3282   2.400   3.685   0.858
    1TCM     c1 3283   4.084   3.946   3.750
    1TCM    cl1 3284   4.194   3.915   3.614
    1TCM    cl2 3285   4.178   3.990   3.894
    1TCM     h1 3286   4.016   4.029   3.724
    1TCM    cl3 3287   3.989   3.800   3.783
    1TCM     c1 3288   5.218   4.790   4.201
    1TCM    cl1 3289   5.064   4.752   4.121
    1TCM    cl2 3290   5.186   4.849   4.366
    1TCM     h1 3291   5.281   4.699   4.206
    1TCM    cl3 3292   5.303   4.916   4.109
    1TCM     c1 3293   4.181   0.290   3.514
    1TCM    cl1 3294   4.176   0.266   3.690
    1TCM    cl2 3295   4.036   0.379   3.463
    1TCM     h1 3296   4.271   0.348   3.487
    1TCM    cl3 3297   4.185   0.132   3.432
    1TCM     c1 3298   2.430   2.675   3.469
    1TCM    cl1 3299   2.333   2.807   3.400
    1TCM    cl2 3300   2.367   2.633   3.630
    1TCM     h1 3301   2.424   2.586   3.403
    1TCM    cl3 3302   2.599   2.727   3.483
    1TCM     c1 3303   5.022   4.622   2.599
    1TCM    cl1 3304   5.014   4.782   2.521
    1TCM    cl2 3305   4.998   4.640   2.774
    1TCM     h1 3306   4.943   4.556   2.557
    1TCM    cl3 3307   5.181   4.549   2.568
    1TCM     c1 3308   2.396   0.828   2.045
    1TCM    cl1 3309   2.267   0.724   1.980
    1TCM    cl2 3310   2.405   0.808   2.221
    1TCM     h1 3311   2.493   0.800   1.999
    1TCM    cl3 3312   2.359   0.998   2.007
    1TCM     c1 3313   0.268   2.399   3.028
    1TCM    cl1 3314   0.120   2.477   2.968
    1TCM    cl2 3315   0.303   2.255   2.930
    1TCM     h1 3316   0.353   2.471   3.021
    1TCM    cl3 3317   0.245   2.352   3.198
    1TCM     c1 3318   1.099   4.064   1.112
    1TCM    cl1 3319   1.103   4.065   0.935
    1TCM    cl2 3320   1.233   3.964   1.174
    1TCM     h1 3321   1.110   4.167   1.150
    1TCM    cl3 3322   0.945   3.996   1.168
    1TCM     c1 3323   2.631   3.055   0.687
    1TCM    cl1 3324   2.682   3.118   0.529
    1TCM    cl2 3325   2.570   3.189   0.787
    1TCM     h1 3326   2.550   2.980   0.673
    1TCM    cl3 3327   2.770   2.979   0.767
    1TCM     c1 3328   0.692   0.664   0.865
    1TCM    cl1 3329   0.773   0.563   0.744
    1TCM    cl2 3330   0.622   0.561   0.992
    1TCM     h1 3331   0.766   0.734   0.910
    1TCM    cl3 3332   0.562   0.758   0.787
    1TCM     c1 3333   5.029   2.215   3.266
    1TCM    cl1 3334   4.918   2.345   3.316
    1TCM    cl2 3335   5.086   2.247   3.101
    1TCM     h1 3336   5.115   2.212   3.335
    1TCM    cl3 3337   4.943   2.060   3.270
    1TCM     c1 3338   2.510   1.006   3.503
    1TCM    cl1 3339   2.637   1.042   3.385
    1TCM    cl2 3340   2.555   1.075   3.661
    1TCM     h1 3341   2.414   1.051   3.469
    1TCM    cl3 3342   2.490   0.830   3.518
    1TCM     c1 3343   5.130   1.010   2.240
    1TCM    cl1 3344   5.115   1.181   2.196
    1TCM    cl2 3345   5.265   0.937   2.150
    1TCM     h1 3346   5.150   1.001   2.349
    1TCM    cl3 3347   4.979   0.925   2.200
    1TCM     c1 3348   3.931   0.521   4.502
    1TCM    cl1 3349   3.906   0.444   4.660
    1TCM    cl2 3350   3.951   0.697   4.524
    1TCM     h1 3351   4.022   0.480   4.454
    1TCM    cl3 3352   3.790   0.491   4.398
    1TCM     c1 3353   5.109   0.886   5.066
    1TCM    cl1 3354   5.204   0.804   4.940
    1TCM    cl2 3355   5.187   0.862   5.224
    1TCM     h1 3356   5.104   0.995   5.043
    1TCM    cl3 3357   4.945   0.818   5.070
    1TCM     c1 3358   2.940   0.523   1.487
    1TCM    cl1 3359   3.088   0.538   1.585
    1TCM    cl2 3360   2.805   0.601   1.572
    1TCM     h1 3361   2.955   0.572   1.389
    1TCM    cl3 3362   2.903   0.351   1.462
    1TCM     c1 3363   2.073   1.344   3.835
    1TCM    cl1 3364   2.011   1.441   3.971
    1TCM    cl2 3365   1.943   1.319   3.716
    1TCM     h1 3366   2.157   1.398   3.786
    1TCM    cl3 3367   2.130   1.187   3.895
   5.54000   5.54000   5.54000
