[ defaults ]
; nbfunc	comb-rule	gen-pairs	fudgeLJ	fudgeQQ
     1	     2	yes   	0.500000	0.833333

[ atomtypes ]
;type, bondingtype, atomic_number, mass, charge, ptype, sigma, epsilon
pom_tetramer.pdb_0	     6	12.01078	0.0000000000000000	A    	0.337953176162662	0.4553891161106184
pom_tetramer.pdb_1	     8	15.99943	0.0000000000000000	A    	0.3025106490435313	0.7048581468486769
pom_tetramer.pdb_2	     6	12.01078	0.0000000000000000	A    	0.3480646886945065	0.3635030558377792
pom_tetramer.pdb_3	     6	12.01078	0.0000000000000000	A    	0.3480646886945065	0.3635030558377792
pom_tetramer.pdb_4	     6	12.01078	0.0000000000000000	A    	0.3480646886945065	0.3635030558377792
pom_tetramer.pdb_5	     6	12.01078	0.0000000000000000	A    	0.3480646886945065	0.3635030558377792
pom_tetramer.pdb_6	     6	12.01078	0.0000000000000000	A    	0.3480646886945065	0.3635030558377792
pom_tetramer.pdb_7	     6	12.01078	0.0000000000000000	A    	0.3480646886945065	0.3635030558377792
pom_tetramer.pdb_8	     6	12.01078	0.0000000000000000	A    	0.3480646886945065	0.3635030558377792
pom_tetramer.pdb_9	     6	12.01078	0.0000000000000000	A    	0.3480646886945065	0.3635030558377792
pom_tetramer.pdb_10	     6	12.01078	0.0000000000000000	A    	0.3480646886945065	0.3635030558377792
pom_tetramer.pdb_11	     6	12.01078	0.0000000000000000	A    	0.3480646886945065	0.3635030558377792
pom_tetramer.pdb_12	     8	15.99943	0.0000000000000000	A    	0.3039812205065809	0.8795023257036865
pom_tetramer.pdb_13	     6	12.01078	0.0000000000000000	A    	0.3480646886945065	0.3635030558377792
pom_tetramer.pdb_14	     6	12.01078	0.0000000000000000	A    	0.3480646886945065	0.3635030558377792
pom_tetramer.pdb_15	     6	12.01078	0.0000000000000000	A    	0.3480646886945065	0.3635030558377792
pom_tetramer.pdb_16	     6	12.01078	0.0000000000000000	A    	0.3480646886945065	0.3635030558377792
pom_tetramer.pdb_17	     6	12.01078	0.0000000000000000	A    	0.3480646886945065	0.3635030558377792
pom_tetramer.pdb_18	     6	12.01078	0.0000000000000000	A    	0.3480646886945065	0.3635030558377792
pom_tetramer.pdb_19	     6	12.01078	0.0000000000000000	A    	0.337953176162662	0.4553891161106184
pom_tetramer.pdb_20	     6	12.01078	0.0000000000000000	A    	0.337953176162662	0.4553891161106184
pom_tetramer.pdb_21	     7	14.00672	0.0000000000000000	A    	0.3206876023663901	0.7016212989374017
pom_tetramer.pdb_22	     6	12.01078	0.0000000000000000	A    	0.3480646886945065	0.3635030558377792
pom_tetramer.pdb_23	     6	12.01078	0.0000000000000000	A    	0.3480646886945065	0.3635030558377792
pom_tetramer.pdb_24	     6	12.01078	0.0000000000000000	A    	0.3480646886945065	0.3635030558377792
pom_tetramer.pdb_25	     1	1.007947	0.0000000000000000	A    	0.2583225710839196	0.068656285380106
pom_tetramer.pdb_26	     1	1.007947	0.0000000000000000	A    	0.2583225710839196	0.068656285380106
pom_tetramer.pdb_27	     1	1.007947	0.0000000000000000	A    	0.2583225710839196	0.068656285380106
pom_tetramer.pdb_28	     1	1.007947	0.0000000000000000	A    	0.2572581535063279	0.06531785996356952
pom_tetramer.pdb_29	     1	1.007947	0.0000000000000000	A    	0.2572581535063279	0.06531785996356952
pom_tetramer.pdb_30	     1	1.007947	0.0000000000000000	A    	0.2572581535063279	0.06531785996356952
pom_tetramer.pdb_31	     1	1.007947	0.0000000000000000	A    	0.2572581535063279	0.06531785996356952
pom_tetramer.pdb_32	     1	1.007947	0.0000000000000000	A    	0.2572581535063279	0.06531785996356952
pom_tetramer.pdb_33	     1	1.007947	0.0000000000000000	A    	0.2572581535063279	0.06531785996356952
pom_tetramer.pdb_34	     1	1.007947	0.0000000000000000	A    	0.2572581535063279	0.06531785996356952
pom_tetramer.pdb_35	     1	1.007947	0.0000000000000000	A    	0.2572581535063279	0.06531785996356952
pom_tetramer.pdb_36	     1	1.007947	0.0000000000000000	A    	0.2583225710839196	0.068656285380106
pom_tetramer.pdb_37	     1	1.007947	0.0000000000000000	A    	0.2644543413268124	0.06602135607582665
pom_tetramer.pdb_38	     1	1.007947	0.0000000000000000	A    	0.2644543413268124	0.06602135607582665
pom_tetramer.pdb_39	     1	1.007947	0.0000000000000000	A    	0.2644543413268124	0.06602135607582665
pom_tetramer.pdb_40	     1	1.007947	0.0000000000000000	A    	0.1103427677297317	0.05895596890015097
pom_tetramer.pdb_41	     1	1.007947	0.0000000000000000	A    	0.2572581535063279	0.06531785996356952
pom_tetramer.pdb_42	     1	1.007947	0.0000000000000000	A    	0.2572581535063279	0.06531785996356952
pom_tetramer.pdb_43	     1	1.007947	0.0000000000000000	A    	0.2572581535063279	0.06531785996356952
pom_tetramer.pdb_44	     6	12.01078	0.0000000000000000	A    	0.337953176162662	0.4553891161106184
pom_tetramer.pdb_45	     8	15.99943	0.0000000000000000	A    	0.3025106490435313	0.7048581468486769
pom_tetramer.pdb_46	     6	12.01078	0.0000000000000000	A    	0.3480646886945065	0.3635030558377792
pom_tetramer.pdb_47	     6	12.01078	0.0000000000000000	A    	0.3480646886945065	0.3635030558377792
pom_tetramer.pdb_48	     6	12.01078	0.0000000000000000	A    	0.3480646886945065	0.3635030558377792
pom_tetramer.pdb_49	     6	12.01078	0.0000000000000000	A    	0.3480646886945065	0.3635030558377792
pom_tetramer.pdb_50	     6	12.01078	0.0000000000000000	A    	0.3480646886945065	0.3635030558377792
pom_tetramer.pdb_51	     6	12.01078	0.0000000000000000	A    	0.3480646886945065	0.3635030558377792
pom_tetramer.pdb_52	     6	12.01078	0.0000000000000000	A    	0.3480646886945065	0.3635030558377792
pom_tetramer.pdb_53	     6	12.01078	0.0000000000000000	A    	0.3480646886945065	0.3635030558377792
pom_tetramer.pdb_54	     6	12.01078	0.0000000000000000	A    	0.3480646886945065	0.3635030558377792
pom_tetramer.pdb_55	     6	12.01078	0.0000000000000000	A    	0.3480646886945065	0.3635030558377792
pom_tetramer.pdb_56	     8	15.99943	0.0000000000000000	A    	0.3039812205065809	0.8795023257036865
pom_tetramer.pdb_57	     6	12.01078	0.0000000000000000	A    	0.3480646886945065	0.3635030558377792
pom_tetramer.pdb_58	     6	12.01078	0.0000000000000000	A    	0.3480646886945065	0.3635030558377792
pom_tetramer.pdb_59	     6	12.01078	0.0000000000000000	A    	0.3480646886945065	0.3635030558377792
pom_tetramer.pdb_60	     6	12.01078	0.0000000000000000	A    	0.3480646886945065	0.3635030558377792
pom_tetramer.pdb_61	     6	12.01078	0.0000000000000000	A    	0.3480646886945065	0.3635030558377792
pom_tetramer.pdb_62	     6	12.01078	0.0000000000000000	A    	0.3480646886945065	0.3635030558377792
pom_tetramer.pdb_63	     6	12.01078	0.0000000000000000	A    	0.337953176162662	0.4553891161106184
pom_tetramer.pdb_64	     6	12.01078	0.0000000000000000	A    	0.337953176162662	0.4553891161106184
pom_tetramer.pdb_65	     7	14.00672	0.0000000000000000	A    	0.3206876023663901	0.7016212989374017
pom_tetramer.pdb_66	     6	12.01078	0.0000000000000000	A    	0.3480646886945065	0.3635030558377792
pom_tetramer.pdb_67	     6	12.01078	0.0000000000000000	A    	0.3480646886945065	0.3635030558377792
pom_tetramer.pdb_68	     6	12.01078	0.0000000000000000	A    	0.3480646886945065	0.3635030558377792
pom_tetramer.pdb_69	     1	1.007947	0.0000000000000000	A    	0.2583225710839196	0.068656285380106
pom_tetramer.pdb_70	     1	1.007947	0.0000000000000000	A    	0.2583225710839196	0.068656285380106
pom_tetramer.pdb_71	     1	1.007947	0.0000000000000000	A    	0.2583225710839196	0.068656285380106
pom_tetramer.pdb_72	     1	1.007947	0.0000000000000000	A    	0.2572581535063279	0.06531785996356952
pom_tetramer.pdb_73	     1	1.007947	0.0000000000000000	A    	0.2572581535063279	0.06531785996356952
pom_tetramer.pdb_74	     1	1.007947	0.0000000000000000	A    	0.2572581535063279	0.06531785996356952
pom_tetramer.pdb_75	     1	1.007947	0.0000000000000000	A    	0.2572581535063279	0.06531785996356952
pom_tetramer.pdb_76	     1	1.007947	0.0000000000000000	A    	0.2572581535063279	0.06531785996356952
pom_tetramer.pdb_77	     1	1.007947	0.0000000000000000	A    	0.2572581535063279	0.06531785996356952
pom_tetramer.pdb_78	     1	1.007947	0.0000000000000000	A    	0.2572581535063279	0.06531785996356952
pom_tetramer.pdb_79	     1	1.007947	0.0000000000000000	A    	0.2572581535063279	0.06531785996356952
pom_tetramer.pdb_80	     1	1.007947	0.0000000000000000	A    	0.2583225710839196	0.068656285380106
pom_tetramer.pdb_81	     1	1.007947	0.0000000000000000	A    	0.2644543413268124	0.06602135607582665
pom_tetramer.pdb_82	     1	1.007947	0.0000000000000000	A    	0.2644543413268124	0.06602135607582665
pom_tetramer.pdb_83	     1	1.007947	0.0000000000000000	A    	0.2644543413268124	0.06602135607582665
pom_tetramer.pdb_84	     1	1.007947	0.0000000000000000	A    	0.1103427677297317	0.05895596890015097
pom_tetramer.pdb_85	     1	1.007947	0.0000000000000000	A    	0.2572581535063279	0.06531785996356952
pom_tetramer.pdb_86	     1	1.007947	0.0000000000000000	A    	0.2572581535063279	0.06531785996356952
pom_tetramer.pdb_87	     1	1.007947	0.0000000000000000	A    	0.2572581535063279	0.06531785996356952
pom_tetramer.pdb_88	     6	12.01078	0.0000000000000000	A    	0.337953176162662	0.4553891161106184
pom_tetramer.pdb_89	     8	15.99943	0.0000000000000000	A    	0.3025106490435313	0.7048581468486769
pom_tetramer.pdb_90	     6	12.01078	0.0000000000000000	A    	0.3480646886945065	0.3635030558377792
pom_tetramer.pdb_91	     6	12.01078	0.0000000000000000	A    	0.3480646886945065	0.3635030558377792
pom_tetramer.pdb_92	     6	12.01078	0.0000000000000000	A    	0.3480646886945065	0.3635030558377792
pom_tetramer.pdb_93	     6	12.01078	0.0000000000000000	A    	0.3480646886945065	0.3635030558377792
pom_tetramer.pdb_94	     6	12.01078	0.0000000000000000	A    	0.3480646886945065	0.3635030558377792
pom_tetramer.pdb_95	     6	12.01078	0.0000000000000000	A    	0.3480646886945065	0.3635030558377792
pom_tetramer.pdb_96	     6	12.01078	0.0000000000000000	A    	0.3480646886945065	0.3635030558377792
pom_tetramer.pdb_97	     6	12.01078	0.0000000000000000	A    	0.3480646886945065	0.3635030558377792
pom_tetramer.pdb_98	     6	12.01078	0.0000000000000000	A    	0.3480646886945065	0.3635030558377792
pom_tetramer.pdb_99	     6	12.01078	0.0000000000000000	A    	0.3480646886945065	0.3635030558377792
pom_tetramer.pdb_100	     8	15.99943	0.0000000000000000	A    	0.3039812205065809	0.8795023257036865
pom_tetramer.pdb_101	     6	12.01078	0.0000000000000000	A    	0.3480646886945065	0.3635030558377792
pom_tetramer.pdb_102	     6	12.01078	0.0000000000000000	A    	0.3480646886945065	0.3635030558377792
pom_tetramer.pdb_103	     6	12.01078	0.0000000000000000	A    	0.3480646886945065	0.3635030558377792
pom_tetramer.pdb_104	     6	12.01078	0.0000000000000000	A    	0.3480646886945065	0.3635030558377792
pom_tetramer.pdb_105	     6	12.01078	0.0000000000000000	A    	0.3480646886945065	0.3635030558377792
pom_tetramer.pdb_106	     6	12.01078	0.0000000000000000	A    	0.3480646886945065	0.3635030558377792
pom_tetramer.pdb_107	     6	12.01078	0.0000000000000000	A    	0.337953176162662	0.4553891161106184
pom_tetramer.pdb_108	     6	12.01078	0.0000000000000000	A    	0.337953176162662	0.4553891161106184
pom_tetramer.pdb_109	     7	14.00672	0.0000000000000000	A    	0.3206876023663901	0.7016212989374017
pom_tetramer.pdb_110	     6	12.01078	0.0000000000000000	A    	0.3480646886945065	0.3635030558377792
pom_tetramer.pdb_111	     6	12.01078	0.0000000000000000	A    	0.3480646886945065	0.3635030558377792
pom_tetramer.pdb_112	     6	12.01078	0.0000000000000000	A    	0.3480646886945065	0.3635030558377792
pom_tetramer.pdb_113	     1	1.007947	0.0000000000000000	A    	0.2583225710839196	0.068656285380106
pom_tetramer.pdb_114	     1	1.007947	0.0000000000000000	A    	0.2583225710839196	0.068656285380106
pom_tetramer.pdb_115	     1	1.007947	0.0000000000000000	A    	0.2583225710839196	0.068656285380106
pom_tetramer.pdb_116	     1	1.007947	0.0000000000000000	A    	0.2572581535063279	0.06531785996356952
pom_tetramer.pdb_117	     1	1.007947	0.0000000000000000	A    	0.2572581535063279	0.06531785996356952
pom_tetramer.pdb_118	     1	1.007947	0.0000000000000000	A    	0.2572581535063279	0.06531785996356952
pom_tetramer.pdb_119	     1	1.007947	0.0000000000000000	A    	0.2572581535063279	0.06531785996356952
pom_tetramer.pdb_120	     1	1.007947	0.0000000000000000	A    	0.2572581535063279	0.06531785996356952
pom_tetramer.pdb_121	     1	1.007947	0.0000000000000000	A    	0.2572581535063279	0.06531785996356952
pom_tetramer.pdb_122	     1	1.007947	0.0000000000000000	A    	0.2572581535063279	0.06531785996356952
pom_tetramer.pdb_123	     1	1.007947	0.0000000000000000	A    	0.2572581535063279	0.06531785996356952
pom_tetramer.pdb_124	     1	1.007947	0.0000000000000000	A    	0.2583225710839196	0.068656285380106
pom_tetramer.pdb_125	     1	1.007947	0.0000000000000000	A    	0.2644543413268124	0.06602135607582665
pom_tetramer.pdb_126	     1	1.007947	0.0000000000000000	A    	0.2644543413268124	0.06602135607582665
pom_tetramer.pdb_127	     1	1.007947	0.0000000000000000	A    	0.2644543413268124	0.06602135607582665
pom_tetramer.pdb_128	     1	1.007947	0.0000000000000000	A    	0.1103427677297317	0.05895596890015097
pom_tetramer.pdb_129	     1	1.007947	0.0000000000000000	A    	0.2572581535063279	0.06531785996356952
pom_tetramer.pdb_130	     1	1.007947	0.0000000000000000	A    	0.2572581535063279	0.06531785996356952
pom_tetramer.pdb_131	     1	1.007947	0.0000000000000000	A    	0.2572581535063279	0.06531785996356952
pom_tetramer.pdb_132	     6	12.01078	0.0000000000000000	A    	0.337953176162662	0.4553891161106184
pom_tetramer.pdb_133	     8	15.99943	0.0000000000000000	A    	0.3025106490435313	0.7048581468486769
pom_tetramer.pdb_134	     6	12.01078	0.0000000000000000	A    	0.3480646886945065	0.3635030558377792
pom_tetramer.pdb_135	     6	12.01078	0.0000000000000000	A    	0.3480646886945065	0.3635030558377792
pom_tetramer.pdb_136	     6	12.01078	0.0000000000000000	A    	0.3480646886945065	0.3635030558377792
pom_tetramer.pdb_137	     6	12.01078	0.0000000000000000	A    	0.3480646886945065	0.3635030558377792
pom_tetramer.pdb_138	     6	12.01078	0.0000000000000000	A    	0.3480646886945065	0.3635030558377792
pom_tetramer.pdb_139	     6	12.01078	0.0000000000000000	A    	0.3480646886945065	0.3635030558377792
pom_tetramer.pdb_140	     6	12.01078	0.0000000000000000	A    	0.3480646886945065	0.3635030558377792
pom_tetramer.pdb_141	     6	12.01078	0.0000000000000000	A    	0.3480646886945065	0.3635030558377792
pom_tetramer.pdb_142	     6	12.01078	0.0000000000000000	A    	0.3480646886945065	0.3635030558377792
pom_tetramer.pdb_143	     6	12.01078	0.0000000000000000	A    	0.3480646886945065	0.3635030558377792
pom_tetramer.pdb_144	     8	15.99943	0.0000000000000000	A    	0.3039812205065809	0.8795023257036865
pom_tetramer.pdb_145	     6	12.01078	0.0000000000000000	A    	0.3480646886945065	0.3635030558377792
pom_tetramer.pdb_146	     6	12.01078	0.0000000000000000	A    	0.3480646886945065	0.3635030558377792
pom_tetramer.pdb_147	     6	12.01078	0.0000000000000000	A    	0.3480646886945065	0.3635030558377792
pom_tetramer.pdb_148	     6	12.01078	0.0000000000000000	A    	0.3480646886945065	0.3635030558377792
pom_tetramer.pdb_149	     6	12.01078	0.0000000000000000	A    	0.3480646886945065	0.3635030558377792
pom_tetramer.pdb_150	     6	12.01078	0.0000000000000000	A    	0.3480646886945065	0.3635030558377792
pom_tetramer.pdb_151	     6	12.01078	0.0000000000000000	A    	0.337953176162662	0.4553891161106184
pom_tetramer.pdb_152	     6	12.01078	0.0000000000000000	A    	0.337953176162662	0.4553891161106184
pom_tetramer.pdb_153	     7	14.00672	0.0000000000000000	A    	0.3206876023663901	0.7016212989374017
pom_tetramer.pdb_154	     6	12.01078	0.0000000000000000	A    	0.3480646886945065	0.3635030558377792
pom_tetramer.pdb_155	     6	12.01078	0.0000000000000000	A    	0.3480646886945065	0.3635030558377792
pom_tetramer.pdb_156	     6	12.01078	0.0000000000000000	A    	0.3480646886945065	0.3635030558377792
pom_tetramer.pdb_157	     1	1.007947	0.0000000000000000	A    	0.2583225710839196	0.068656285380106
pom_tetramer.pdb_158	     1	1.007947	0.0000000000000000	A    	0.2583225710839196	0.068656285380106
pom_tetramer.pdb_159	     1	1.007947	0.0000000000000000	A    	0.2583225710839196	0.068656285380106
pom_tetramer.pdb_160	     1	1.007947	0.0000000000000000	A    	0.2572581535063279	0.06531785996356952
pom_tetramer.pdb_161	     1	1.007947	0.0000000000000000	A    	0.2572581535063279	0.06531785996356952
pom_tetramer.pdb_162	     1	1.007947	0.0000000000000000	A    	0.2572581535063279	0.06531785996356952
pom_tetramer.pdb_163	     1	1.007947	0.0000000000000000	A    	0.2572581535063279	0.06531785996356952
pom_tetramer.pdb_164	     1	1.007947	0.0000000000000000	A    	0.2572581535063279	0.06531785996356952
pom_tetramer.pdb_165	     1	1.007947	0.0000000000000000	A    	0.2572581535063279	0.06531785996356952
pom_tetramer.pdb_166	     1	1.007947	0.0000000000000000	A    	0.2572581535063279	0.06531785996356952
pom_tetramer.pdb_167	     1	1.007947	0.0000000000000000	A    	0.2572581535063279	0.06531785996356952
pom_tetramer.pdb_168	     1	1.007947	0.0000000000000000	A    	0.2583225710839196	0.068656285380106
pom_tetramer.pdb_169	     1	1.007947	0.0000000000000000	A    	0.2644543413268124	0.06602135607582665
pom_tetramer.pdb_170	     1	1.007947	0.0000000000000000	A    	0.2644543413268124	0.06602135607582665
pom_tetramer.pdb_171	     1	1.007947	0.0000000000000000	A    	0.2644543413268124	0.06602135607582665
pom_tetramer.pdb_172	     1	1.007947	0.0000000000000000	A    	0.1103427677297317	0.05895596890015097
pom_tetramer.pdb_173	     1	1.007947	0.0000000000000000	A    	0.2572581535063279	0.06531785996356952
pom_tetramer.pdb_174	     1	1.007947	0.0000000000000000	A    	0.2572581535063279	0.06531785996356952
pom_tetramer.pdb_175	     1	1.007947	0.0000000000000000	A    	0.2572581535063279	0.06531785996356952
pom_tetramer.pdb_176	     6	12.01078	0.0000000000000000	A    	0.337953176162662	0.4553891161106184
pom_tetramer.pdb_177	     8	15.99943	0.0000000000000000	A    	0.3025106490435313	0.7048581468486769
pom_tetramer.pdb_178	     1	1.007947	0.0000000000000000	A    	0.2583225710839196	0.068656285380106
pom_tetramer.pdb_179	     1	1.007947	0.0000000000000000	A    	0.2583225710839196	0.068656285380106
pom_tetramer.pdb_180	     1	1.007947	0.0000000000000000	A    	0.2583225710839196	0.068656285380106
pom_tetramer.pdb_181	     6	12.01078	0.0000000000000000	A    	0.337953176162662	0.4553891161106184
pom_tetramer.pdb_182	     6	12.01078	0.0000000000000000	A    	0.337953176162662	0.4553891161106184
pom_tetramer.pdb_183	     6	12.01078	0.0000000000000000	A    	0.337953176162662	0.4553891161106184
pom_tetramer.pdb_184	     6	12.01078	0.0000000000000000	A    	0.337953176162662	0.4553891161106184
pom_tetramer.pdb_185	     8	15.99943	0.0000000000000000	A    	0.3025106490435313	0.7048581468486769
pom_tetramer.pdb_186	     6	12.01078	0.0000000000000000	A    	0.3480646886945065	0.3635030558377792
pom_tetramer.pdb_187	     8	15.99943	0.0000000000000000	A    	0.3039812205065809	0.8795023257036865
pom_tetramer.pdb_188	     1	1.007947	0.0000000000000000	A    	0.2644543413268124	0.06602135607582665
pom_tetramer.pdb_189	     1	1.007947	0.0000000000000000	A    	0.2644543413268124	0.06602135607582665
pom_tetramer.pdb_190	     1	1.007947	0.0000000000000000	A    	0.2644543413268124	0.06602135607582665
pom_tetramer.pdb_191	     1	1.007947	0.0000000000000000	A    	0.2644543413268124	0.06602135607582665
pom_tetramer.pdb_192	     1	1.007947	0.0000000000000000	A    	0.2644543413268124	0.06602135607582665
pom_tetramer.pdb_193	     1	1.007947	0.0000000000000000	A    	0.2644543413268124	0.06602135607582665
pom_tetramer.pdb_194	     1	1.007947	0.0000000000000000	A    	0.2644543413268124	0.06602135607582665
pom_tetramer.pdb_195	     1	1.007947	0.0000000000000000	A    	0.2644543413268124	0.06602135607582665
pom_tetramer.pdb_196	     1	1.007947	0.0000000000000000	A    	0.2644543413268124	0.06602135607582665
MOL1_0     	    17	35.4532	0.0000000000000000	A    	0.3307527806460624	1.111270837866897
MOL1_1     	     6	12.01078	0.0000000000000000	A    	0.337953176162662	0.4553891161106184
MOL1_2     	    17	35.4532	0.0000000000000000	A    	0.3307527806460624	1.111270837866897
MOL1_3     	    17	35.4532	0.0000000000000000	A    	0.3307527806460624	1.111270837866897
MOL1_4     	     1	1.007947	0.0000000000000000	A    	0.2114993556865165	0.06568879999999999

[ moleculetype ]
pom_tetramer.pdb	         3

[ atoms ]
;index, atom type, resnum, resname, name, cgnr, charge, mass
     1 pom_tetramer.pdb_0       1 pom_tetramer.pdb C          1      0.107060000300     12.010780000000
     2 pom_tetramer.pdb_1       1 pom_tetramer.pdb O          1     -0.318170011044     15.999430000000
     3 pom_tetramer.pdb_2       1 pom_tetramer.pdb C          1      0.121409997344     12.010780000000
     4 pom_tetramer.pdb_3       1 pom_tetramer.pdb C          1     -0.201639994979     12.010780000000
     5 pom_tetramer.pdb_4       1 pom_tetramer.pdb C          1     -0.083930000663     12.010780000000
     6 pom_tetramer.pdb_5       1 pom_tetramer.pdb C          1     -0.071209996939     12.010780000000
     7 pom_tetramer.pdb_6       1 pom_tetramer.pdb C          1     -0.052080001682     12.010780000000
     8 pom_tetramer.pdb_7       1 pom_tetramer.pdb C          1     -0.083089999855     12.010780000000
     9 pom_tetramer.pdb_8       1 pom_tetramer.pdb C          1     -0.147829994559     12.010780000000
    10 pom_tetramer.pdb_9       1 pom_tetramer.pdb C          1     -0.069849997759     12.010780000000
    11 pom_tetramer.pdb_10       1 pom_tetramer.pdb C          1     -0.134959995747     12.010780000000
    12 pom_tetramer.pdb_11       1 pom_tetramer.pdb C          1      0.643959999084     12.010780000000
    13 pom_tetramer.pdb_12       1 pom_tetramer.pdb O          1     -0.542219996452     15.999430000000
    14 pom_tetramer.pdb_13       1 pom_tetramer.pdb C          1     -0.058720000088     12.010780000000
    15 pom_tetramer.pdb_14       1 pom_tetramer.pdb C          1      0.005280000158     12.010780000000
    16 pom_tetramer.pdb_15       1 pom_tetramer.pdb C          1     -0.039030000567     12.010780000000
    17 pom_tetramer.pdb_16       1 pom_tetramer.pdb C          1     -0.111210003495     12.010780000000
    18 pom_tetramer.pdb_17       1 pom_tetramer.pdb C          1     -0.123219996691     12.010780000000
    19 pom_tetramer.pdb_18       1 pom_tetramer.pdb C          1     -0.091540001333     12.010780000000
    20 pom_tetramer.pdb_19       1 pom_tetramer.pdb C          1      0.151510000229     12.010780000000
    21 pom_tetramer.pdb_20       1 pom_tetramer.pdb C          1     -0.111380003393     12.010780000000
    22 pom_tetramer.pdb_21       1 pom_tetramer.pdb N          1     -0.569670021534     14.006720000000
    23 pom_tetramer.pdb_22       1 pom_tetramer.pdb C          1     -0.123219996691     12.010780000000
    24 pom_tetramer.pdb_23       1 pom_tetramer.pdb C          1     -0.111210003495     12.010780000000
    25 pom_tetramer.pdb_24       1 pom_tetramer.pdb C          1     -0.145280003548     12.010780000000
    26 pom_tetramer.pdb_25       1 pom_tetramer.pdb H          1      0.045779999346      1.007947000000
    27 pom_tetramer.pdb_26       1 pom_tetramer.pdb H          1      0.045779999346      1.007947000000
    28 pom_tetramer.pdb_27       1 pom_tetramer.pdb H          1      0.045779999346      1.007947000000
    29 pom_tetramer.pdb_28       1 pom_tetramer.pdb H          1      0.142810001969      1.007947000000
    30 pom_tetramer.pdb_29       1 pom_tetramer.pdb H          1      0.141900002956      1.007947000000
    31 pom_tetramer.pdb_30       1 pom_tetramer.pdb H          1      0.140359997749      1.007947000000
    32 pom_tetramer.pdb_31       1 pom_tetramer.pdb H          1      0.142440006137      1.007947000000
    33 pom_tetramer.pdb_32       1 pom_tetramer.pdb H          1      0.157419994473      1.007947000000
    34 pom_tetramer.pdb_33       1 pom_tetramer.pdb H          1      0.157969996333      1.007947000000
    35 pom_tetramer.pdb_34       1 pom_tetramer.pdb H          1      0.137250006199      1.007947000000
    36 pom_tetramer.pdb_35       1 pom_tetramer.pdb H          1      0.136109992862      1.007947000000
    37 pom_tetramer.pdb_36       1 pom_tetramer.pdb H          1      0.089100003242      1.007947000000
    38 pom_tetramer.pdb_37       1 pom_tetramer.pdb H          1      0.044840000570      1.007947000000
    39 pom_tetramer.pdb_38       1 pom_tetramer.pdb H          1      0.044840000570      1.007947000000
    40 pom_tetramer.pdb_39       1 pom_tetramer.pdb H          1      0.044840000570      1.007947000000
    41 pom_tetramer.pdb_40       1 pom_tetramer.pdb H          1      0.310649991035      1.007947000000
    42 pom_tetramer.pdb_41       1 pom_tetramer.pdb H          1      0.136109992862      1.007947000000
    43 pom_tetramer.pdb_42       1 pom_tetramer.pdb H          1      0.137250006199      1.007947000000
    44 pom_tetramer.pdb_43       1 pom_tetramer.pdb H          1      0.158050000668      1.007947000000
    45 pom_tetramer.pdb_44       1 pom_tetramer.pdb C          1      0.112000003457     12.010780000000
    46 pom_tetramer.pdb_45       1 pom_tetramer.pdb O          1     -0.323500007391     15.999430000000
    47 pom_tetramer.pdb_46       1 pom_tetramer.pdb C          1      0.124279998243     12.010780000000
    48 pom_tetramer.pdb_47       1 pom_tetramer.pdb C          1     -0.206579998136     12.010780000000
    49 pom_tetramer.pdb_48       1 pom_tetramer.pdb C          1     -0.086819998920     12.010780000000
    50 pom_tetramer.pdb_49       1 pom_tetramer.pdb C          1     -0.072849996388     12.010780000000
    51 pom_tetramer.pdb_50       1 pom_tetramer.pdb C          1     -0.040399998426     12.010780000000
    52 pom_tetramer.pdb_51       1 pom_tetramer.pdb C          1     -0.090099997818     12.010780000000
    53 pom_tetramer.pdb_52       1 pom_tetramer.pdb C          1     -0.140680000186     12.010780000000
    54 pom_tetramer.pdb_53       1 pom_tetramer.pdb C          1     -0.076580002904     12.010780000000
    55 pom_tetramer.pdb_54       1 pom_tetramer.pdb C          1     -0.143979996443     12.010780000000
    56 pom_tetramer.pdb_55       1 pom_tetramer.pdb C          1      0.672280013561     12.010780000000
    57 pom_tetramer.pdb_56       1 pom_tetramer.pdb O          1     -0.606459975243     15.999430000000
    58 pom_tetramer.pdb_57       1 pom_tetramer.pdb C          1     -0.092859998345     12.010780000000
    59 pom_tetramer.pdb_58       1 pom_tetramer.pdb C          1      0.012559999712     12.010780000000
    60 pom_tetramer.pdb_59       1 pom_tetramer.pdb C          1     -0.045370001346     12.010780000000
    61 pom_tetramer.pdb_60       1 pom_tetramer.pdb C          1     -0.110689997673     12.010780000000
    62 pom_tetramer.pdb_61       1 pom_tetramer.pdb C          1     -0.118009999394     12.010780000000
    63 pom_tetramer.pdb_62       1 pom_tetramer.pdb C          1     -0.090819999576     12.010780000000
    64 pom_tetramer.pdb_63       1 pom_tetramer.pdb C          1      0.151759997010     12.010780000000
    65 pom_tetramer.pdb_64       1 pom_tetramer.pdb C          1     -0.114160001278     12.010780000000
    66 pom_tetramer.pdb_65       1 pom_tetramer.pdb N          1     -0.570089995861     14.006720000000
    67 pom_tetramer.pdb_66       1 pom_tetramer.pdb C          1     -0.118009999394     12.010780000000
    68 pom_tetramer.pdb_67       1 pom_tetramer.pdb C          1     -0.110689997673     12.010780000000
    69 pom_tetramer.pdb_68       1 pom_tetramer.pdb C          1     -0.145769998431     12.010780000000
    70 pom_tetramer.pdb_69       1 pom_tetramer.pdb H          1      0.045239999890      1.007947000000
    71 pom_tetramer.pdb_70       1 pom_tetramer.pdb H          1      0.045239999890      1.007947000000
    72 pom_tetramer.pdb_71       1 pom_tetramer.pdb H          1      0.045239999890      1.007947000000
    73 pom_tetramer.pdb_72       1 pom_tetramer.pdb H          1      0.139550000429      1.007947000000
    74 pom_tetramer.pdb_73       1 pom_tetramer.pdb H          1      0.137349992990      1.007947000000
    75 pom_tetramer.pdb_74       1 pom_tetramer.pdb H          1      0.141230002046      1.007947000000
    76 pom_tetramer.pdb_75       1 pom_tetramer.pdb H          1      0.138380005956      1.007947000000
    77 pom_tetramer.pdb_76       1 pom_tetramer.pdb H          1      0.154109999537      1.007947000000
    78 pom_tetramer.pdb_77       1 pom_tetramer.pdb H          1      0.140750005841      1.007947000000
    79 pom_tetramer.pdb_78       1 pom_tetramer.pdb H          1      0.136099994183      1.007947000000
    80 pom_tetramer.pdb_79       1 pom_tetramer.pdb H          1      0.138019993901      1.007947000000
    81 pom_tetramer.pdb_80       1 pom_tetramer.pdb H          1      0.083910003304      1.007947000000
    82 pom_tetramer.pdb_81       1 pom_tetramer.pdb H          1      0.046670001000      1.007947000000
    83 pom_tetramer.pdb_82       1 pom_tetramer.pdb H          1      0.046670001000      1.007947000000
    84 pom_tetramer.pdb_83       1 pom_tetramer.pdb H          1      0.046670001000      1.007947000000
    85 pom_tetramer.pdb_84       1 pom_tetramer.pdb H          1      0.312620013952      1.007947000000
    86 pom_tetramer.pdb_85       1 pom_tetramer.pdb H          1      0.138019993901      1.007947000000
    87 pom_tetramer.pdb_86       1 pom_tetramer.pdb H          1      0.136099994183      1.007947000000
    88 pom_tetramer.pdb_87       1 pom_tetramer.pdb H          1      0.159050002694      1.007947000000
    89 pom_tetramer.pdb_88       1 pom_tetramer.pdb C          1      0.114940002561     12.010780000000
    90 pom_tetramer.pdb_89       1 pom_tetramer.pdb O          1     -0.327910006046     15.999430000000
    91 pom_tetramer.pdb_90       1 pom_tetramer.pdb C          1      0.153720006347     12.010780000000
    92 pom_tetramer.pdb_91       1 pom_tetramer.pdb C          1     -0.192029997706     12.010780000000
    93 pom_tetramer.pdb_92       1 pom_tetramer.pdb C          1     -0.079630002379     12.010780000000
    94 pom_tetramer.pdb_93       1 pom_tetramer.pdb C          1     -0.072999998927     12.010780000000
    95 pom_tetramer.pdb_94       1 pom_tetramer.pdb C          1     -0.040679998696     12.010780000000
    96 pom_tetramer.pdb_95       1 pom_tetramer.pdb C          1     -0.093290001154     12.010780000000
    97 pom_tetramer.pdb_96       1 pom_tetramer.pdb C          1     -0.142690002918     12.010780000000
    98 pom_tetramer.pdb_97       1 pom_tetramer.pdb C          1     -0.076629996300     12.010780000000
    99 pom_tetramer.pdb_98       1 pom_tetramer.pdb C          1     -0.143790006638     12.010780000000
   100 pom_tetramer.pdb_99       1 pom_tetramer.pdb C          1      0.676559984684     12.010780000000
   101 pom_tetramer.pdb_100       1 pom_tetramer.pdb O          1     -0.610759973526     15.999430000000
   102 pom_tetramer.pdb_101       1 pom_tetramer.pdb C          1     -0.090999998152     12.010780000000
   103 pom_tetramer.pdb_102       1 pom_tetramer.pdb C          1      0.000639999984     12.010780000000
   104 pom_tetramer.pdb_103       1 pom_tetramer.pdb C          1     -0.030419999734     12.010780000000
   105 pom_tetramer.pdb_104       1 pom_tetramer.pdb C          1     -0.118019998074     12.010780000000
   106 pom_tetramer.pdb_105       1 pom_tetramer.pdb C          1     -0.119730003178     12.010780000000
   107 pom_tetramer.pdb_106       1 pom_tetramer.pdb C          1     -0.105400003493     12.010780000000
   108 pom_tetramer.pdb_107       1 pom_tetramer.pdb C          1      0.162630006671     12.010780000000
   109 pom_tetramer.pdb_108       1 pom_tetramer.pdb C          1     -0.110359996557     12.010780000000
   110 pom_tetramer.pdb_109       1 pom_tetramer.pdb N          1     -0.574620008469     14.006720000000
   111 pom_tetramer.pdb_110       1 pom_tetramer.pdb C          1     -0.119730003178     12.010780000000
   112 pom_tetramer.pdb_111       1 pom_tetramer.pdb C          1     -0.118019998074     12.010780000000
   113 pom_tetramer.pdb_112       1 pom_tetramer.pdb C          1     -0.138980001211     12.010780000000
   114 pom_tetramer.pdb_113       1 pom_tetramer.pdb H          1      0.043579999357      1.007947000000
   115 pom_tetramer.pdb_114       1 pom_tetramer.pdb H          1      0.043579999357      1.007947000000
   116 pom_tetramer.pdb_115       1 pom_tetramer.pdb H          1      0.043579999357      1.007947000000
   117 pom_tetramer.pdb_116       1 pom_tetramer.pdb H          1      0.137250006199      1.007947000000
   118 pom_tetramer.pdb_117       1 pom_tetramer.pdb H          1      0.137510001659      1.007947000000
   119 pom_tetramer.pdb_118       1 pom_tetramer.pdb H          1      0.137850001454      1.007947000000
   120 pom_tetramer.pdb_119       1 pom_tetramer.pdb H          1      0.137030005455      1.007947000000
   121 pom_tetramer.pdb_120       1 pom_tetramer.pdb H          1      0.154359996319      1.007947000000
   122 pom_tetramer.pdb_121       1 pom_tetramer.pdb H          1      0.145019993186      1.007947000000
   123 pom_tetramer.pdb_122       1 pom_tetramer.pdb H          1      0.140249997377      1.007947000000
   124 pom_tetramer.pdb_123       1 pom_tetramer.pdb H          1      0.137290000916      1.007947000000
   125 pom_tetramer.pdb_124       1 pom_tetramer.pdb H          1      0.063179999590      1.007947000000
   126 pom_tetramer.pdb_125       1 pom_tetramer.pdb H          1      0.049550000578      1.007947000000
   127 pom_tetramer.pdb_126       1 pom_tetramer.pdb H          1      0.049550000578      1.007947000000
   128 pom_tetramer.pdb_127       1 pom_tetramer.pdb H          1      0.049550000578      1.007947000000
   129 pom_tetramer.pdb_128       1 pom_tetramer.pdb H          1      0.317000001669      1.007947000000
   130 pom_tetramer.pdb_129       1 pom_tetramer.pdb H          1      0.137290000916      1.007947000000
   131 pom_tetramer.pdb_130       1 pom_tetramer.pdb H          1      0.140249997377      1.007947000000
   132 pom_tetramer.pdb_131       1 pom_tetramer.pdb H          1      0.144209995866      1.007947000000
   133 pom_tetramer.pdb_132       1 pom_tetramer.pdb C          1      0.112750001252     12.010780000000
   134 pom_tetramer.pdb_133       1 pom_tetramer.pdb O          1     -0.325969994068     15.999430000000
   135 pom_tetramer.pdb_134       1 pom_tetramer.pdb C          1      0.126010000706     12.010780000000
   136 pom_tetramer.pdb_135       1 pom_tetramer.pdb C          1     -0.203349992633     12.010780000000
   137 pom_tetramer.pdb_136       1 pom_tetramer.pdb C          1     -0.081550002098     12.010780000000
   138 pom_tetramer.pdb_137       1 pom_tetramer.pdb C          1     -0.069159999490     12.010780000000
   139 pom_tetramer.pdb_138       1 pom_tetramer.pdb C          1     -0.043349999934     12.010780000000
   140 pom_tetramer.pdb_139       1 pom_tetramer.pdb C          1     -0.093280002475     12.010780000000
   141 pom_tetramer.pdb_140       1 pom_tetramer.pdb C          1     -0.141420006752     12.010780000000
   142 pom_tetramer.pdb_141       1 pom_tetramer.pdb C          1     -0.105640001595     12.010780000000
   143 pom_tetramer.pdb_142       1 pom_tetramer.pdb C          1     -0.143649995327     12.010780000000
   144 pom_tetramer.pdb_143       1 pom_tetramer.pdb C          1      0.673259973526     12.010780000000
   145 pom_tetramer.pdb_144       1 pom_tetramer.pdb O          1     -0.611810028553     15.999430000000
   146 pom_tetramer.pdb_145       1 pom_tetramer.pdb C          1     -0.059820000082     12.010780000000
   147 pom_tetramer.pdb_146       1 pom_tetramer.pdb C          1      0.006279999856     12.010780000000
   148 pom_tetramer.pdb_147       1 pom_tetramer.pdb C          1     -0.038159999996     12.010780000000
   149 pom_tetramer.pdb_148       1 pom_tetramer.pdb C          1     -0.113410003483     12.010780000000
   150 pom_tetramer.pdb_149       1 pom_tetramer.pdb C          1     -0.114370003343     12.010780000000
   151 pom_tetramer.pdb_150       1 pom_tetramer.pdb C          1     -0.110660001636     12.010780000000
   152 pom_tetramer.pdb_151       1 pom_tetramer.pdb C          1      0.158769994974     12.010780000000
   153 pom_tetramer.pdb_152       1 pom_tetramer.pdb C          1     -0.101620003581     12.010780000000
   154 pom_tetramer.pdb_153       1 pom_tetramer.pdb N          1     -0.552370011806     14.006720000000
   155 pom_tetramer.pdb_154       1 pom_tetramer.pdb C          1     -0.114370003343     12.010780000000
   156 pom_tetramer.pdb_155       1 pom_tetramer.pdb C          1     -0.113410003483     12.010780000000
   157 pom_tetramer.pdb_156       1 pom_tetramer.pdb C          1     -0.146640002728     12.010780000000
   158 pom_tetramer.pdb_157       1 pom_tetramer.pdb H          1      0.045310001820      1.007947000000
   159 pom_tetramer.pdb_158       1 pom_tetramer.pdb H          1      0.045310001820      1.007947000000
   160 pom_tetramer.pdb_159       1 pom_tetramer.pdb H          1      0.045310001820      1.007947000000
   161 pom_tetramer.pdb_160       1 pom_tetramer.pdb H          1      0.139719992876      1.007947000000
   162 pom_tetramer.pdb_161       1 pom_tetramer.pdb H          1      0.141479998827      1.007947000000
   163 pom_tetramer.pdb_162       1 pom_tetramer.pdb H          1      0.137270003557      1.007947000000
   164 pom_tetramer.pdb_163       1 pom_tetramer.pdb H          1      0.136519998312      1.007947000000
   165 pom_tetramer.pdb_164       1 pom_tetramer.pdb H          1      0.136260002851      1.007947000000
   166 pom_tetramer.pdb_165       1 pom_tetramer.pdb H          1      0.162369996309      1.007947000000
   167 pom_tetramer.pdb_166       1 pom_tetramer.pdb H          1      0.138469994068      1.007947000000
   168 pom_tetramer.pdb_167       1 pom_tetramer.pdb H          1      0.135480001569      1.007947000000
   169 pom_tetramer.pdb_168       1 pom_tetramer.pdb H          1      0.088150002062      1.007947000000
   170 pom_tetramer.pdb_169       1 pom_tetramer.pdb H          1      0.046360000968      1.007947000000
   171 pom_tetramer.pdb_170       1 pom_tetramer.pdb H          1      0.046360000968      1.007947000000
   172 pom_tetramer.pdb_171       1 pom_tetramer.pdb H          1      0.046360000968      1.007947000000
   173 pom_tetramer.pdb_172       1 pom_tetramer.pdb H          1      0.323929995298      1.007947000000
   174 pom_tetramer.pdb_173       1 pom_tetramer.pdb H          1      0.135480001569      1.007947000000
   175 pom_tetramer.pdb_174       1 pom_tetramer.pdb H          1      0.138469994068      1.007947000000
   176 pom_tetramer.pdb_175       1 pom_tetramer.pdb H          1      0.155699998140      1.007947000000
   177 pom_tetramer.pdb_176       1 pom_tetramer.pdb C          1      0.125430002809     12.010780000000
   178 pom_tetramer.pdb_177       1 pom_tetramer.pdb O          1     -0.444709986448     15.999430000000
   179 pom_tetramer.pdb_178       1 pom_tetramer.pdb H          1      0.054349999875      1.007947000000
   180 pom_tetramer.pdb_179       1 pom_tetramer.pdb H          1      0.054349999875      1.007947000000
   181 pom_tetramer.pdb_180       1 pom_tetramer.pdb H          1      0.054349999875      1.007947000000
   182 pom_tetramer.pdb_181       1 pom_tetramer.pdb C          1     -0.116850003600     12.010780000000
   183 pom_tetramer.pdb_182       1 pom_tetramer.pdb C          1      0.188329994678     12.010780000000
   184 pom_tetramer.pdb_183       1 pom_tetramer.pdb C          1     -0.116850003600     12.010780000000
   185 pom_tetramer.pdb_184       1 pom_tetramer.pdb C          1     -0.116850003600     12.010780000000
   186 pom_tetramer.pdb_185       1 pom_tetramer.pdb O          1     -0.450390011072     15.999430000000
   187 pom_tetramer.pdb_186       1 pom_tetramer.pdb C          1      0.752369999886     12.010780000000
   188 pom_tetramer.pdb_187       1 pom_tetramer.pdb O          1     -0.599430024624     15.999430000000
   189 pom_tetramer.pdb_188       1 pom_tetramer.pdb H          1      0.052269998938      1.007947000000
   190 pom_tetramer.pdb_189       1 pom_tetramer.pdb H          1      0.052269998938      1.007947000000
   191 pom_tetramer.pdb_190       1 pom_tetramer.pdb H          1      0.052269998938      1.007947000000
   192 pom_tetramer.pdb_191       1 pom_tetramer.pdb H          1      0.052269998938      1.007947000000
   193 pom_tetramer.pdb_192       1 pom_tetramer.pdb H          1      0.052269998938      1.007947000000
   194 pom_tetramer.pdb_193       1 pom_tetramer.pdb H          1      0.052269998938      1.007947000000
   195 pom_tetramer.pdb_194       1 pom_tetramer.pdb H          1      0.052269998938      1.007947000000
   196 pom_tetramer.pdb_195       1 pom_tetramer.pdb H          1      0.052269998938      1.007947000000
   197 pom_tetramer.pdb_196       1 pom_tetramer.pdb H          1      0.052269998938      1.007947000000

[ pairs ]
;ai    aj   funct
   125	   126	     1
    14	   178	     1
    29	    30	     1
    47	    72	     1
   184	   189	     1
    24	    25	     1
    20	    24	     1
   140	   147	     1
   103	   131	     1
    58	    59	     1
    95	   113	     1
   135	   159	     1
    17	    25	     1
   105	   108	     1
    63	    83	     1
    93	   104	     1
   156	   167	     1
    13	   177	     1
    91	   115	     1
    45	    48	     1
     6	     9	     1
     8	    11	     1
    20	    57	     1
   110	   127	     1
   151	   172	     1
    25	    29	     1
   153	   155	     1
   102	   121	     1
    99	   120	     1
   185	   191	     1
   104	   124	     1
   134	   161	     1
   169	   173	     1
    47	    50	     1
   151	   170	     1
    46	    59	     1
    97	   102	     1
   111	   125	     1
    12	   179	     1
    64	   101	     1
    61	    87	     1
    69	    73	     1
     1	     4	     1
   139	   162	     1
     7	    10	     1
    19	    39	     1
   138	   141	     1
    81	    84	     1
     6	    44	     1
   183	   188	     1
   182	   197	     1
   103	   118	     1
    57	    58	     1
     6	    24	     1
   106	   112	     1
     5	    16	     1
    14	    31	     1
    66	    83	     1
    92	   103	     1
    65	    85	     1
   157	   161	     1
   152	   156	     1
    60	    80	     1
   120	   121	     1
    96	   122	     1
   138	   163	     1
   140	   166	     1
   148	   176	     1
   138	   176	     1
   125	   129	     1
    23	    37	     1
    31	    32	     1
   150	   153	     1
    18	    42	     1
    54	    57	     1
   186	   195	     1
   103	   111	     1
    18	    22	     1
    98	   119	     1
    49	    52	     1
    52	    59	     1
    59	    67	     1
   107	   128	     1
    15	    35	     1
    90	   132	     1
   101	   102	     1
     2	    44	     1
    63	    82	     1
   152	   188	     1
   137	   148	     1
    58	    77	     1
    37	    39	     1
    20	    36	     1
    51	    76	     1
   145	   146	     1
    13	    14	     1
    50	    78	     1
    22	    39	     1
    61	    69	     1
   103	   123	     1
    21	    41	     1
   185	   190	     1
    96	   121	     1
    10	    13	     1
   156	   157	     1
   106	   130	     1
    47	    60	     1
   169	   172	     1
    90	    93	     1
     4	    15	     1
   139	   144	     1
   142	   145	     1
    85	   101	     1
    93	    96	     1
    46	    49	     1
    96	   103	     1
    91	   118	     1
   139	   157	     1
    35	    36	     1
    41	    57	     1
   107	   127	     1
    60	    86	     1
    64	    80	     1
     7	    16	     1
   151	   175	     1
     9	    12	     1
    19	    38	     1
    81	    83	     1
   135	   162	     1
   147	   155	     1
   182	   196	     1
    95	   118	     1
    49	    58	     1
   137	   140	     1
    95	    98	     1
    48	    51	     1
   105	   113	     1
   110	   128	     1
    51	    54	     1
    16	    19	     1
    66	   102	     1
     3	    28	     1
    63	    79	     1
    67	    80	     1
    66	    82	     1
   152	   174	     1
   108	   143	     1
   138	   149	     1
    56	    78	     1
    76	    77	     1
   100	   122	     1
    32	    33	     1
     1	    25	     1
    23	    36	     1
    66	    67	     1
   109	   111	     1
    50	    75	     1
   108	   145	     1
   138	   156	     1
   186	   194	     1
    53	    56	     1
    18	    21	     1
   185	   187	     1
    17	    23	     1
   150	   169	     1
     2	     5	     1
    93	   113	     1
    89	    92	     1
    62	    81	     1
    92	    95	     1
    54	    75	     1
   143	   164	     1
    91	   104	     1
   149	   157	     1
    11	   177	     1
    37	    38	     1
   125	   128	     1
    68	    69	     1
    52	    77	     1
   155	   168	     1
    81	   100	     1
    59	    74	     1
     6	    11	     1
    22	    58	     1
    47	    74	     1
    50	    88	     1
   184	   191	     1
    19	    35	     1
    62	    66	     1
    22	    38	     1
   182	   193	     1
     6	    29	     1
     3	    16	     1
   100	   121	     1
   154	   183	     1
    94	   117	     1
   109	   129	     1
    16	    36	     1
   144	   166	     1
    51	    60	     1
   102	   103	     1
    90	   103	     1
    94	    97	     1
    63	    85	     1
    50	    53	     1
   138	   166	     1
    94	   122	     1
    10	   178	     1
   184	   195	     1
   112	   123	     1
   107	   131	     1
   186	   191	     1
    73	    74	     1
   125	   127	     1
   185	   193	     1
    52	    55	     1
    17	    20	     1
   106	   110	     1
   150	   156	     1
     3	    27	     1
    10	    34	     1
    12	   181	     1
    56	    77	     1
   169	   171	     1
     6	    17	     1
   139	   142	     1
    75	    76	     1
   107	   144	     1
    19	    41	     1
    47	    71	     1
   147	   167	     1
   108	   112	     1
    64	    68	     1
   104	   130	     1
   108	   124	     1
    60	    63	     1
    16	    42	     1
    14	    15	     1
     2	    15	     1
     4	     7	     1
   135	   138	     1
    14	    33	     1
    96	    99	     1
   142	   163	     1
    91	   114	     1
    91	    94	     1
     7	    12	     1
   153	   187	     1
    62	    65	     1
     7	    30	     1
   139	   148	     1
    46	    73	     1
   147	   162	     1
   186	   197	     1
   182	   192	     1
   139	   164	     1
    18	    24	     1
   173	   186	     1
    98	   101	     1
   138	   143	     1
   110	   146	     1
    66	    98	     1
    65	   100	     1
    10	    31	     1
   133	   157	     1
    41	    55	     1
    54	    78	     1
    37	    41	     1
   149	   175	     1
     3	     6	     1
    18	    37	     1
   186	   190	     1
   185	   192	     1
   151	   171	     1
   103	   106	     1
    21	    23	     1
   152	   168	     1
   111	   124	     1
    59	    62	     1
    12	    34	     1
   110	   126	     1
    94	   132	     1
   106	   125	     1
   141	   146	     1
    12	   180	     1
   129	   145	     1
   140	   143	     1
    60	    88	     1
    48	    88	     1
   136	   139	     1
   146	   165	     1
    20	    42	     1
    79	    80	     1
   149	   155	     1
    55	    76	     1
     8	    34	     1
     9	    14	     1
    22	    54	     1
    19	    40	     1
    47	    70	     1
   153	   173	     1
    81	    85	     1
   184	   187	     1
    21	    56	     1
   107	   123	     1
    61	    64	     1
   146	   147	     1
    17	    43	     1
    49	    60	     1
   141	   144	     1
   102	   119	     1
   169	   187	     1
    95	   100	     1
    51	    56	     1
   107	   129	     1
     3	    30	     1
    93	   102	     1
    66	    84	     1
   140	   165	     1
    64	    86	     1
    20	    55	     1
   167	   168	     1
   186	   196	     1
   147	   150	     1
    15	    18	     1
    53	    58	     1
   185	   189	     1
     5	     8	     1
   110	   111	     1
    95	   104	     1
    51	    69	     1
   164	   165	     1
   135	   148	     1
   154	   172	     1
    97	   100	     1
   134	   147	     1
    42	    43	     1
    64	    99	     1
   133	   136	     1
    37	    40	     1
    59	    87	     1
   154	   170	     1
    62	    68	     1
    81	    82	     1
    22	    40	     1
   112	   113	     1
   182	   195	     1
   186	   189	     1
     6	    31	     1
   105	   131	     1
    94	   119	     1
    48	    59	     1
    12	    33	     1
   142	   166	     1
    68	    79	     1
     5	    14	     1
    94	    99	     1
    63	    87	     1
    50	    55	     1
   148	   168	     1
   161	   162	     1
     2	    29	     1
     8	    15	     1
   151	   187	     1
    86	    87	     1
   184	   197	     1
   148	   174	     1
   117	   118	     1
     8	    33	     1
   186	   193	     1
   136	   176	     1
   104	   107	     1
   155	   169	     1
   107	   126	     1
    94	   112	     1
    63	   100	     1
    50	    68	     1
   110	   142	     1
    67	    81	     1
   149	   152	     1
   152	   186	     1
    98	   122	     1
   135	   160	     1
   151	   167	     1
    58	    75	     1
     5	    25	     1
   134	   137	     1
    24	    35	     1
    19	    43	     1
    51	    74	     1
   113	   117	     1
   184	   190	     1
    61	    67	     1
   104	   132	     1
   146	   163	     1
    16	    44	     1
   174	   175	     1
    94	   105	     1
    89	   113	     1
    11	    32	     1
    50	    61	     1
   137	   146	     1
    63	    84	     1
   163	   164	     1
    45	    69	     1
    85	    99	     1
    91	   116	     1
   109	   144	     1
   151	   173	     1
    52	    78	     1
    19	    56	     1
   136	   147	     1
     7	    32	     1
   130	   131	     1
   135	   158	     1
   119	   120	     1
   182	   194	     1
   123	   124	     1
   144	   165	     1
   108	   130	     1
   137	   157	     1
   147	   175	     1
   129	   143	     1
   173	   188	     1
   106	   109	     1
   150	   174	     1
   105	   111	     1
    15	    30	     1
     3	    26	     1
    62	    86	     1
    92	   132	     1
     4	    44	     1
   134	   176	     1
   154	   171	     1
    59	    79	     1
   184	   196	     1
    46	    88	     1
   169	   170	     1
    50	    73	     1
    65	    67	     1
     7	    25	     1
   186	   192	     1
     6	    34	     1
    49	    69	     1
   182	   187	     1
   185	   194	     1
    22	    23	     1
    95	   120	     1
   150	   154	     1
   154	   155	     1
    90	   117	     1
    15	    43	     1
   125	   144	     1
    15	    23	     1
    37	    56	     1
   138	   161	     1
   148	   151	     1

[ bonds ]
;ai    aj   funct r k
     1     27      1      0.109389949263  309655.084322414012 
     1      2      1      0.142589505373  306888.771877388994 
     2      3      1      0.136294580649  356218.264001121745 
     3      4      1      0.138719322718  301905.092578520998 
     4     29      1      0.108535849592  332422.631675317942 
     4      5      1      0.138719322718  301905.092578520998 
     5     30      1      0.108535849592  332422.631675317942 
     5      6      1      0.138719322718  301905.092578520998 
     6      7      1      0.145462892503  233580.248617646750 
     7      8      1      0.138719322718  301905.092578520998 
     8      9      1      0.138719322718  301905.092578520998 
     8     31      1      0.108535849592  332422.631675317942 
     9     32      1      0.108535849592  332422.631675317942 
    10     33      1      0.108535849592  332422.631675317942 
     9     10      1      0.138719322718  301905.092578520998 
    10     11      1      0.138719322718  301905.092578520998 
    11     12      1      0.145462892503  233580.248617646750 
    12    178      1      0.134574123280  252005.673256632901 
    12     13      1      0.122519838622  487602.327766196802 
    11     14      1      0.138719322718  301905.092578520998 
     7     14      1      0.138719322718  301905.092578520998 
     6     15      1      0.138719322718  301905.092578520998 
    15     16      1      0.145462892503  233580.248617646750 
    16     17      1      0.138719322718  301905.092578520998 
    17     35      1      0.108535849592  332422.631675317942 
    17     18      1      0.138719322718  301905.092578520998 
    18     36      1      0.108535849592  332422.631675317942 
    18     19      1      0.138719322718  301905.092578520998 
    20     37      1      0.109389949263  309655.084322414012 
    19     20      1      0.149864681646  242452.869388089370 
    20     21      1      0.152190126495  221435.259290285845 
    21     40      1      0.109389949263  309655.084322414012 
    21     39      1      0.109389949263  309655.084322414012 
    20     22      1      0.145009858627  294600.927775905351 
    22     56      1      0.138189777668  412347.817359175009 
    23     24      1      0.138719322718  301905.092578520998 
    19     23      1      0.138719322718  301905.092578520998 
    16     24      1      0.138719322718  301905.092578520998 
     3     25      1      0.138719322718  301905.092578520998 
    15     25      1      0.138719322718  301905.092578520998 
     1     26      1      0.109389949263  309655.084322414012 
     1     28      1      0.109389949263  309655.084322414012 
    14     34      1      0.108535849592  332422.631675317942 
    21     38      1      0.109389949263  309655.084322414012 
    22     41      1      0.101948186503  422704.914414302446 
    23     42      1      0.108535849592  332422.631675317942 
    24     43      1      0.108535849592  332422.631675317942 
    25     44      1      0.108535849592  332422.631675317942 
    45     46      1      0.142589505373  306888.771877388994 
    45     72      1      0.109389949263  309655.084322414012 
    45     70      1      0.109389949263  309655.084322414012 
    47     69      1      0.138719322718  301905.092578520998 
    46     47      1      0.136294580649  356218.264001121745 
    47     48      1      0.138719322718  301905.092578520998 
    49     50      1      0.138719322718  301905.092578520998 
    48     49      1      0.138719322718  301905.092578520998 
    50     59      1      0.138719322718  301905.092578520998 
    50     51      1      0.145462892503  233580.248617646750 
    52     75      1      0.108535849592  332422.631675317942 
    51     52      1      0.138719322718  301905.092578520998 
    52     53      1      0.138719322718  301905.092578520998 
    53     54      1      0.138719322718  301905.092578520998 
    54     55      1      0.138719322718  301905.092578520998 
    55     58      1      0.138719322718  301905.092578520998 
    55     56      1      0.145462892503  233580.248617646750 
    56     57      1      0.122519838622  487602.327766196802 
    51     58      1      0.138719322718  301905.092578520998 
    58     78      1      0.108535849592  332422.631675317942 
    59     60      1      0.145462892503  233580.248617646750 
    59     69      1      0.138719322718  301905.092578520998 
    60     68      1      0.138719322718  301905.092578520998 
    61     62      1      0.138719322718  301905.092578520998 
    60     61      1      0.138719322718  301905.092578520998 
    62     63      1      0.138719322718  301905.092578520998 
    63     67      1      0.138719322718  301905.092578520998 
    63     64      1      0.149864681646  242452.869388089370 
    64     81      1      0.109389949263  309655.084322414012 
    64     66      1      0.145009858627  294600.927775905351 
    65     82      1      0.109389949263  309655.084322414012 
    64     65      1      0.152190126495  221435.259290285845 
    66     85      1      0.101948186503  422704.914414302446 
    67     86      1      0.108535849592  332422.631675317942 
    68     87      1      0.108535849592  332422.631675317942 
    67     68      1      0.138719322718  301905.092578520998 
    69     88      1      0.108535849592  332422.631675317942 
    45     71      1      0.109389949263  309655.084322414012 
    48     73      1      0.108535849592  332422.631675317942 
    49     74      1      0.108535849592  332422.631675317942 
    53     76      1      0.108535849592  332422.631675317942 
    54     77      1      0.108535849592  332422.631675317942 
    61     79      1      0.108535849592  332422.631675317942 
    62     80      1      0.108535849592  332422.631675317942 
    65     83      1      0.109389949263  309655.084322414012 
    65     84      1      0.109389949263  309655.084322414012 
    89    115      1      0.109389949263  309655.084322414012 
    90     91      1      0.136294580649  356218.264001121745 
    89     90      1      0.142589505373  306888.771877388994 
    91     92      1      0.138719322718  301905.092578520998 
    92     93      1      0.138719322718  301905.092578520998 
    92    117      1      0.108535849592  332422.631675317942 
    93    118      1      0.108535849592  332422.631675317942 
    93     94      1      0.138719322718  301905.092578520998 
    94     95      1      0.145462892503  233580.248617646750 
    95     96      1      0.138719322718  301905.092578520998 
    96    119      1      0.108535849592  332422.631675317942 
    96     97      1      0.138719322718  301905.092578520998 
    97    120      1      0.108535849592  332422.631675317942 
    97     98      1      0.138719322718  301905.092578520998 
    98    121      1      0.108535849592  332422.631675317942 
    98     99      1      0.138719322718  301905.092578520998 
    66    100      1      0.138189777668  412347.817359175009 
    99    100      1      0.145462892503  233580.248617646750 
   100    101      1      0.122519838622  487602.327766196802 
    95    102      1      0.138719322718  301905.092578520998 
    99    102      1      0.138719322718  301905.092578520998 
    94    103      1      0.138719322718  301905.092578520998 
   104    105      1      0.138719322718  301905.092578520998 
   103    104      1      0.145462892503  233580.248617646750 
   105    123      1      0.108535849592  332422.631675317942 
   106    124      1      0.108535849592  332422.631675317942 
   105    106      1      0.138719322718  301905.092578520998 
   106    107      1      0.138719322718  301905.092578520998 
   108    125      1      0.109389949263  309655.084322414012 
   107    108      1      0.149864681646  242452.869388089370 
   108    109      1      0.152190126495  221435.259290285845 
   109    128      1      0.109389949263  309655.084322414012 
   109    127      1      0.109389949263  309655.084322414012 
   110    144      1      0.138189777668  412347.817359175009 
   108    110      1      0.145009858627  294600.927775905351 
   107    111      1      0.138719322718  301905.092578520998 
   111    112      1      0.138719322718  301905.092578520998 
   104    112      1      0.138719322718  301905.092578520998 
   103    113      1      0.138719322718  301905.092578520998 
    91    113      1      0.138719322718  301905.092578520998 
    89    114      1      0.109389949263  309655.084322414012 
    89    116      1      0.109389949263  309655.084322414012 
   102    122      1      0.108535849592  332422.631675317942 
   109    126      1      0.109389949263  309655.084322414012 
   110    129      1      0.101948186503  422704.914414302446 
   111    130      1      0.108535849592  332422.631675317942 
   112    131      1      0.108535849592  332422.631675317942 
   113    132      1      0.108535849592  332422.631675317942 
   133    134      1      0.142589505373  306888.771877388994 
   133    158      1      0.109389949263  309655.084322414012 
   135    157      1      0.138719322718  301905.092578520998 
   134    135      1      0.136294580649  356218.264001121745 
   135    136      1      0.138719322718  301905.092578520998 
   137    138      1      0.138719322718  301905.092578520998 
   136    137      1      0.138719322718  301905.092578520998 
   138    147      1      0.138719322718  301905.092578520998 
   138    139      1      0.145462892503  233580.248617646750 
   139    140      1      0.138719322718  301905.092578520998 
   140    163      1      0.108535849592  332422.631675317942 
   140    141      1      0.138719322718  301905.092578520998 
   142    143      1      0.138719322718  301905.092578520998 
   141    142      1      0.138719322718  301905.092578520998 
   143    146      1      0.138719322718  301905.092578520998 
   144    145      1      0.122519838622  487602.327766196802 
   143    144      1      0.145462892503  233580.248617646750 
   146    166      1      0.108535849592  332422.631675317942 
   139    146      1      0.138719322718  301905.092578520998 
   147    148      1      0.145462892503  233580.248617646750 
   147    157      1      0.138719322718  301905.092578520998 
   148    149      1      0.138719322718  301905.092578520998 
   148    156      1      0.138719322718  301905.092578520998 
   149    150      1      0.138719322718  301905.092578520998 
   150    151      1      0.138719322718  301905.092578520998 
   151    152      1      0.149864681646  242452.869388089370 
   152    169      1      0.109389949263  309655.084322414012 
   152    154      1      0.145009858627  294600.927775905351 
   153    170      1      0.109389949263  309655.084322414012 
   152    153      1      0.152190126495  221435.259290285845 
   154    173      1      0.101948186503  422704.914414302446 
   151    155      1      0.138719322718  301905.092578520998 
   155    174      1      0.108535849592  332422.631675317942 
   155    156      1      0.138719322718  301905.092578520998 
   157    176      1      0.108535849592  332422.631675317942 
   133    159      1      0.109389949263  309655.084322414012 
   133    160      1      0.109389949263  309655.084322414012 
   136    161      1      0.108535849592  332422.631675317942 
   137    162      1      0.108535849592  332422.631675317942 
   141    164      1      0.108535849592  332422.631675317942 
   142    165      1      0.108535849592  332422.631675317942 
   149    167      1      0.108535849592  332422.631675317942 
   150    168      1      0.108535849592  332422.631675317942 
   153    171      1      0.109389949263  309655.084322414012 
   153    172      1      0.109389949263  309655.084322414012 
   156    175      1      0.108535849592  332422.631675317942 
   177    180      1      0.109389949263  309655.084322414012 
   177    179      1      0.109389949263  309655.084322414012 
   177    181      1      0.109389949263  309655.084322414012 
   177    178      1      0.142589505373  306888.771877388994 
   182    191      1      0.109389949263  309655.084322414012 
   182    183      1      0.152190126495  221435.259290285845 
   183    186      1      0.142589505373  306888.771877388994 
   183    185      1      0.152190126495  221435.259290285845 
   184    193      1      0.109389949263  309655.084322414012 
   183    184      1      0.152190126495  221435.259290285845 
   185    196      1      0.109389949263  309655.084322414012 
   185    195      1      0.109389949263  309655.084322414012 
   186    187      1      0.134574123280  252005.673256632901 
   154    187      1      0.138189777668  412347.817359175009 
   187    188      1      0.122519838622  487602.327766196802 
   182    189      1      0.109389949263  309655.084322414012 
   182    190      1      0.109389949263  309655.084322414012 
   184    192      1      0.109389949263  309655.084322414012 
   184    194      1      0.109389949263  309655.084322414012 
   185    197      1      0.109389949263  309655.084322414012 

[ angles ]
;ai    aj   ak   funct theta  k
     3      4      5      1     126.806242045100     484.492885493347 
   106    107    111      1     126.806242045100     484.492885493347 
   196    185    197      1     115.603099953300     408.161690475075 
   183    182    189      1     116.547586263400     445.222086509286 
    47     69     59      1     126.806242045100     484.492885493347 
    95    102     99      1     126.806242045100     484.492885493347 
    50     51     52      1     126.806242045100     484.492885493347 
     9      8     31      1     129.183592992600     285.070774532144 
    49     50     59      1     126.806242045100     484.492885493347 
   170    153    171      1     115.603099953300     408.161690475075 
   148    156    175      1     129.183592992600     285.070774532144 
     2      1     28      1     116.547586263400     445.222086509286 
   152    154    187      1     117.346557051400     463.769802376852 
    21     20     22      1     116.547586263400     445.222086509286 
     5      6     15      1     126.806242045100     484.492885493347 
   103    104    105      1     126.806242045100     484.492885493347 
   183    186    187      1     110.353880618100     544.678275491328 
    60     59     69      1     126.806242045100     484.492885493347 
   150    151    152      1     126.806242045100     484.492885493347 
    90     89    116      1     116.547586263400     445.222086509286 
    98     99    102      1     126.806242045100     484.492885493347 
   126    109    127      1     115.603099953300     408.161690475075 
     9     10     11      1     126.806242045100     484.492885493347 
   185    183    186      1     116.547586263400     445.222086509286 
     5      4     29      1     129.183592992600     285.070774532144 
    90     91     92      1     126.806242045100     484.492885493347 
    93     94     95      1     126.806242045100     484.492885493347 
   138    147    148      1     126.806242045100     484.492885493347 
   107    108    110      1     116.547586263400     445.222086509286 
   139    138    147      1     126.806242045100     484.492885493347 
    16     17     18      1     126.806242045100     484.492885493347 
   183    185    195      1     116.547586263400     445.222086509286 
   104    105    106      1     126.806242045100     484.492885493347 
    46     45     70      1     116.547586263400     445.222086509286 
    66    100     99      1     126.806242045100     484.492885493347 
   109    108    125      1     116.547586263400     445.222086509286 
    15     25     44      1     129.183592992600     285.070774532144 
   173    154    187      1     115.507132767400     530.901282784327 
   151    155    156      1     126.806242045100     484.492885493347 
    82     65     83      1     115.603099953300     408.161690475075 
    50     51     58      1     126.806242045100     484.492885493347 
   143    142    165      1     129.183592992600     285.070774532144 
   178    177    179      1     116.547586263400     445.222086509286 
    54     55     56      1     126.806242045100     484.492885493347 
   195    185    196      1     115.603099953300     408.161690475075 
     9     10     33      1     129.183592992600     285.070774532144 
    60     68     87      1     129.183592992600     285.070774532144 
   140    139    146      1     126.806242045100     484.492885493347 
    56     55     58      1     126.806242045100     484.492885493347 
    20     19     23      1     126.806242045100     484.492885493347 
   152    154    173      1     115.507132767400     530.901282784327 
     6      7      8      1     126.806242045100     484.492885493347 
    64     65     84      1     116.547586263400     445.222086509286 
    20     22     56      1     117.346557051400     463.769802376852 
    65     64     81      1     116.547586263400     445.222086509286 
   147    157    176      1     129.183592992600     285.070774532144 
   182    183    186      1     116.547586263400     445.222086509286 
   153    152    154      1     116.547586263400     445.222086509286 
    61     60     68      1     126.806242045100     484.492885493347 
    94     95     96      1     126.806242045100     484.492885493347 
    97     98     99      1     126.806242045100     484.492885493347 
    70     45     72      1     115.603099953300     408.161690475075 
    62     63     64      1     126.806242045100     484.492885493347 
    65     64     66      1     116.547586263400     445.222086509286 
    68     67     86      1     129.183592992600     285.070774532144 
    50     49     74      1     129.183592992600     285.070774532144 
   142    141    164      1     129.183592992600     285.070774532144 
    11     10     33      1     129.183592992600     285.070774532144 
     6      7     14      1     126.806242045100     484.492885493347 
    63     64     81      1     116.547586263400     445.222086509286 
   152    151    155      1     126.806242045100     484.492885493347 
    99     98    121      1     129.183592992600     285.070774532144 
    12     11     14      1     126.806242045100     484.492885493347 
   189    182    190      1     115.603099953300     408.161690475075 
    51     58     78      1     129.183592992600     285.070774532144 
    20     21     38      1     116.547586263400     445.222086509286 
    26      1     28      1     115.603099953300     408.161690475075 
   110    144    143      1     126.806242045100     484.492885493347 
   107    108    109      1     116.547586263400     445.222086509286 
    63     64     66      1     116.547586263400     445.222086509286 
   109    108    110      1     116.547586263400     445.222086509286 
    51     52     75      1     129.183592992600     285.070774532144 
   108    110    144      1     117.346557051400     463.769802376852 
   148    147    157      1     126.806242045100     484.492885493347 
    47     48     73      1     129.183592992600     285.070774532144 
   183    184    194      1     116.547586263400     445.222086509286 
   110    144    145      1     126.806242045100     484.492885493347 
   151    155    174      1     129.183592992600     285.070774532144 
     1      2      3      1     110.353880618100     544.678275491328 
    48     49     50      1     126.806242045100     484.492885493347 
   108    109    126      1     116.547586263400     445.222086509286 
    66     64     81      1     116.547586263400     445.222086509286 
     7      8      9      1     126.806242045100     484.492885493347 
    22     56     55      1     126.806242045100     484.492885493347 
     8      9     32      1     129.183592992600     285.070774532144 
    16     24     43      1     129.183592992600     285.070774532144 
    61     62     63      1     126.806242045100     484.492885493347 
   104    103    113      1     126.806242045100     484.492885493347 
   136    135    157      1     126.806242045100     484.492885493347 
    94     95    102      1     126.806242045100     484.492885493347 
    16     24     23      1     126.806242045100     484.492885493347 
   127    109    128      1     115.603099953300     408.161690475075 
    52     53     76      1     129.183592992600     285.070774532144 
   126    109    128      1     115.603099953300     408.161690475075 
     7     14     11      1     126.806242045100     484.492885493347 
    19     20     22      1     116.547586263400     445.222086509286 
   138    139    146      1     126.806242045100     484.492885493347 
    55     54     77      1     129.183592992600     285.070774532144 
    51     52     53      1     126.806242045100     484.492885493347 
   142    143    144      1     126.806242045100     484.492885493347 
   139    140    141      1     126.806242045100     484.492885493347 
    50     59     60      1     126.806242045100     484.492885493347 
   139    146    166      1     129.183592992600     285.070774532144 
    59     69     88      1     129.183592992600     285.070774532144 
   150    149    167      1     129.183592992600     285.070774532144 
    38     21     40      1     115.603099953300     408.161690475075 
    12    178    177      1     110.353880618100     544.678275491328 
    96     95    102      1     126.806242045100     484.492885493347 
    95    102    122      1     129.183592992600     285.070774532144 
    10     11     12      1     126.806242045100     484.492885493347 
   154    152    169      1     116.547586263400     445.222086509286 
   182    183    185      1     116.547586263400     445.222086509286 
    39     21     40      1     115.603099953300     408.161690475075 
   103    113    132      1     129.183592992600     285.070774532144 
   139    140    163      1     129.183592992600     285.070774532144 
    64     66     85      1     115.507132767400     530.901282784327 
   183    182    191      1     116.547586263400     445.222086509286 
   106    105    123      1     129.183592992600     285.070774532144 
   108    107    111      1     126.806242045100     484.492885493347 
   155    156    175      1     129.183592992600     285.070774532144 
    52     53     54      1     126.806242045100     484.492885493347 
    91     92    117      1     129.183592992600     285.070774532144 
   134    133    160      1     116.547586263400     445.222086509286 
   148    156    155      1     126.806242045100     484.492885493347 
    26      1     27      1     115.603099953300     408.161690475075 
   143    144    145      1     126.806242045100     484.492885493347 
   105    106    124      1     129.183592992600     285.070774532144 
   190    182    191      1     115.603099953300     408.161690475075 
   183    184    193      1     116.547586263400     445.222086509286 
    19     23     42      1     129.183592992600     285.070774532144 
   149    150    151      1     126.806242045100     484.492885493347 
    46     47     69      1     126.806242045100     484.492885493347 
    62     63     67      1     126.806242045100     484.492885493347 
     3      4     29      1     129.183592992600     285.070774532144 
    95     96     97      1     126.806242045100     484.492885493347 
    71     45     72      1     115.603099953300     408.161690475075 
   108    110    129      1     115.507132767400     530.901282784327 
    20     22     41      1     115.507132767400     530.901282784327 
    55     56     57      1     126.806242045100     484.492885493347 
    15     16     24      1     126.806242045100     484.492885493347 
   183    185    197      1     116.547586263400     445.222086509286 
   134    133    158      1     116.547586263400     445.222086509286 
    64     63     67      1     126.806242045100     484.492885493347 
    46     45     72      1     116.547586263400     445.222086509286 
    27      1     28      1     115.603099953300     408.161690475075 
   114     89    116      1     115.603099953300     408.161690475075 
    66    100    101      1     126.806242045100     484.492885493347 
    19     20     21      1     116.547586263400     445.222086509286 
   137    138    139      1     126.806242045100     484.492885493347 
   154    187    186      1     126.806242045100     484.492885493347 
   129    110    144      1     115.507132767400     530.901282784327 
    11     12    178      1     126.806242045100     484.492885493347 
    91    113    132      1     129.183592992600     285.070774532144 
   178    177    181      1     116.547586263400     445.222086509286 
    54     55     58      1     126.806242045100     484.492885493347 
    38     21     39      1     115.603099953300     408.161690475075 
   147    148    149      1     126.806242045100     484.492885493347 
   135    136    137      1     126.806242045100     484.492885493347 
   184    183    186      1     116.547586263400     445.222086509286 
    10      9     32      1     129.183592992600     285.070774532144 
    94    103    104      1     126.806242045100     484.492885493347 
    11     14     34      1     129.183592992600     285.070774532144 
   147    148    156      1     126.806242045100     484.492885493347 
     2      1     27      1     116.547586263400     445.222086509286 
   133    134    135      1     110.353880618100     544.678275491328 
    97     96    119      1     129.183592992600     285.070774532144 
   149    150    168      1     129.183592992600     285.070774532144 
    60     61     79      1     129.183592992600     285.070774532144 
     8      7     14      1     126.806242045100     484.492885493347 
    90     89    115      1     116.547586263400     445.222086509286 
   151    152    154      1     116.547586263400     445.222086509286 
    93     94    103      1     126.806242045100     484.492885493347 
    53     52     75      1     129.183592992600     285.070774532144 
    49     50     51      1     126.806242045100     484.492885493347 
    48     49     74      1     129.183592992600     285.070774532144 
   107    111    112      1     126.806242045100     484.492885493347 
    92     91    113      1     126.806242045100     484.492885493347 
   153    152    169      1     116.547586263400     445.222086509286 
    99    102    122      1     129.183592992600     285.070774532144 
   158    133    160      1     115.603099953300     408.161690475075 
   134    135    157      1     126.806242045100     484.492885493347 
    92     93    118      1     129.183592992600     285.070774532144 
    16     17     35      1     129.183592992600     285.070774532144 
   100     99    102      1     126.806242045100     484.492885493347 
   134    133    159      1     116.547586263400     445.222086509286 
    55     58     78      1     129.183592992600     285.070774532144 
   135    157    147      1     126.806242045100     484.492885493347 
   192    184    194      1     115.603099953300     408.161690475075 
    53     54     77      1     129.183592992600     285.070774532144 
    90     91    113      1     126.806242045100     484.492885493347 
    23     24     43      1     129.183592992600     285.070774532144 
    20     21     40      1     116.547586263400     445.222086509286 
   142    143    146      1     126.806242045100     484.492885493347 
    45     46     47      1     110.353880618100     544.678275491328 
    11     12     13      1     126.806242045100     484.492885493347 
    18     19     20      1     126.806242045100     484.492885493347 
    54     53     76      1     129.183592992600     285.070774532144 
    99    100    101      1     126.806242045100     484.492885493347 
     5      6      7      1     126.806242045100     484.492885493347 
   148    149    150      1     126.806242045100     484.492885493347 
    82     65     84      1     115.603099953300     408.161690475075 
   108    109    128      1     116.547586263400     445.222086509286 
    17     18     36      1     129.183592992600     285.070774532144 
    61     62     80      1     129.183592992600     285.070774532144 
    64     65     83      1     116.547586263400     445.222086509286 
    96     97    120      1     129.183592992600     285.070774532144 
    50     59     69      1     126.806242045100     484.492885493347 
   136    137    162      1     129.183592992600     285.070774532144 
    22     56     57      1     126.806242045100     484.492885493347 
   178    177    180      1     116.547586263400     445.222086509286 
   104    112    131      1     129.183592992600     285.070774532144 
    91     92     93      1     126.806242045100     484.492885493347 
     7      6     15      1     126.806242045100     484.492885493347 
   184    183    185      1     116.547586263400     445.222086509286 
   107    111    130      1     129.183592992600     285.070774532144 
     2      1     26      1     116.547586263400     445.222086509286 
     6     15     25      1     126.806242045100     484.492885493347 
    53     54     55      1     126.806242045100     484.492885493347 
   110    108    125      1     116.547586263400     445.222086509286 
   193    184    194      1     115.603099953300     408.161690475075 
    16     15     25      1     126.806242045100     484.492885493347 
    70     45     71      1     115.603099953300     408.161690475075 
   111    112    131      1     129.183592992600     285.070774532144 
    51     50     59      1     126.806242045100     484.492885493347 
   103    104    112      1     126.806242045100     484.492885493347 
   144    143    146      1     126.806242045100     484.492885493347 
   141    142    143      1     126.806242045100     484.492885493347 
   156    155    174      1     129.183592992600     285.070774532144 
    90     89    114      1     116.547586263400     445.222086509286 
    93     92    117      1     129.183592992600     285.070774532144 
    91    113    103      1     126.806242045100     484.492885493347 
    98     99    100      1     126.806242045100     484.492885493347 
    41     22     56      1     115.507132767400     530.901282784327 
   152    153    172      1     116.547586263400     445.222086509286 
   108    109    127      1     116.547586263400     445.222086509286 
   112    111    130      1     129.183592992600     285.070774532144 
    63     64     65      1     116.547586263400     445.222086509286 
    10     11     14      1     126.806242045100     484.492885493347 
   179    177    181      1     115.603099953300     408.161690475075 
   104    105    123      1     129.183592992600     285.070774532144 
   105    104    112      1     126.806242045100     484.492885493347 
   148    149    167      1     129.183592992600     285.070774532144 
    19     20     37      1     116.547586263400     445.222086509286 
   138    139    140      1     126.806242045100     484.492885493347 
    49     48     73      1     129.183592992600     285.070774532144 
     6      5     30      1     129.183592992600     285.070774532144 
   141    142    165      1     129.183592992600     285.070774532144 
   134    135    136      1     126.806242045100     484.492885493347 
   151    152    153      1     116.547586263400     445.222086509286 
   152    153    170      1     116.547586263400     445.222086509286 
   135    136    161      1     129.183592992600     285.070774532144 
   137    138    147      1     126.806242045100     484.492885493347 
     3     25     15      1     126.806242045100     484.492885493347 
   137    136    161      1     129.183592992600     285.070774532144 
   192    184    193      1     115.603099953300     408.161690475075 
   141    140    163      1     129.183592992600     285.070774532144 
   189    182    191      1     115.603099953300     408.161690475075 
     3     25     44      1     129.183592992600     285.070774532144 
    17     16     24      1     126.806242045100     484.492885493347 
     2      3      4      1     126.806242045100     484.492885493347 
    20     21     39      1     116.547586263400     445.222086509286 
    52     51     58      1     126.806242045100     484.492885493347 
   158    133    159      1     115.603099953300     408.161690475075 
   151    150    168      1     129.183592992600     285.070774532144 
    21     20     37      1     116.547586263400     445.222086509286 
   107    106    124      1     129.183592992600     285.070774532144 
    51     58     55      1     126.806242045100     484.492885493347 
    64     66    100      1     117.346557051400     463.769802376852 
   106    107    108      1     126.806242045100     484.492885493347 
    13     12    178      1     127.469141619100    1685.413543333009 
    95     96    119      1     129.183592992600     285.070774532144 
   139    146    143      1     126.806242045100     484.492885493347 
    19     23     24      1     126.806242045100     484.492885493347 
   138    147    157      1     126.806242045100     484.492885493347 
   170    153    172      1     115.603099953300     408.161690475075 
   180    177    181      1     115.603099953300     408.161690475075 
    64     65     82      1     116.547586263400     445.222086509286 
     8      9     10      1     126.806242045100     484.492885493347 
    15     16     17      1     126.806242045100     484.492885493347 
   135    157    176      1     129.183592992600     285.070774532144 
   140    141    142      1     126.806242045100     484.492885493347 
    19     18     36      1     129.183592992600     285.070774532144 
   104    112    111      1     126.806242045100     484.492885493347 
   149    148    156      1     126.806242045100     484.492885493347 
   105    106    107      1     126.806242045100     484.492885493347 
    94    103    113      1     126.806242045100     484.492885493347 
    18     19     23      1     126.806242045100     484.492885493347 
   182    183    184      1     116.547586263400     445.222086509286 
    18     17     35      1     129.183592992600     285.070774532144 
    62     61     79      1     129.183592992600     285.070774532144 
   154    187    188      1     126.806242045100     484.492885493347 
   183    182    190      1     116.547586263400     445.222086509286 
    89     90     91      1     110.353880618100     544.678275491328 
    92     93     94      1     126.806242045100     484.492885493347 
    24     23     42      1     129.183592992600     285.070774532144 
    63     67     86      1     129.183592992600     285.070774532144 
    22     20     37      1     116.547586263400     445.222086509286 
    17     18     19      1     126.806242045100     484.492885493347 
    95     94    103      1     126.806242045100     484.492885493347 
    60     61     62      1     126.806242045100     484.492885493347 
    83     65     84      1     115.603099953300     408.161690475075 
    85     66    100      1     115.507132767400     530.901282784327 
   171    153    172      1     115.603099953300     408.161690475075 
   136    137    138      1     126.806242045100     484.492885493347 
   150    151    155      1     126.806242045100     484.492885493347 
    47     69     88      1     129.183592992600     285.070774532144 
    67     68     87      1     129.183592992600     285.070774532144 
   179    177    180      1     115.603099953300     408.161690475075 
   140    141    164      1     129.183592992600     285.070774532144 
    94     93    118      1     129.183592992600     285.070774532144 
     4      5      6      1     126.806242045100     484.492885493347 
   183    184    192      1     116.547586263400     445.222086509286 
    59     60     68      1     126.806242045100     484.492885493347 
   115     89    116      1     115.603099953300     408.161690475075 
    60     68     67      1     126.806242045100     484.492885493347 
    46     47     48      1     126.806242045100     484.492885493347 
     7     14     34      1     129.183592992600     285.070774532144 
   151    152    169      1     116.547586263400     445.222086509286 
    97     98    121      1     129.183592992600     285.070774532144 
   159    133    160      1     115.603099953300     408.161690475075 
   183    185    196      1     116.547586263400     445.222086509286 
    46     45     71      1     116.547586263400     445.222086509286 
   107    108    125      1     116.547586263400     445.222086509286 
   114     89    115      1     115.603099953300     408.161690475075 
   138    137    162      1     129.183592992600     285.070774532144 
   152    153    171      1     116.547586263400     445.222086509286 
   186    187    188      1     127.469141619100    1685.413543333009 
    59     60     61      1     126.806242045100     484.492885493347 
    63     62     80      1     129.183592992600     285.070774532144 
    98     97    120      1     129.183592992600     285.070774532144 
     4      3     25      1     126.806242045100     484.492885493347 
   143    146    166      1     129.183592992600     285.070774532144 
     4      5     30      1     129.183592992600     285.070774532144 
    47     48     49      1     126.806242045100     484.492885493347 
    96     97     98      1     126.806242045100     484.492885493347 
     6     15     16      1     126.806242045100     484.492885493347 
   195    185    197      1     115.603099953300     408.161690475075 
     7      8     31      1     129.183592992600     285.070774532144 
    63     67     68      1     126.806242045100     484.492885493347 
     2      3     25      1     126.806242045100     484.492885493347 
    48     47     69      1     126.806242045100     484.492885493347 

[ dihedrals ]
;ai    aj   ak   al   funct phi  k
   184   183   186   187     1      0.000000000000      3.407916490176                 1
   184   183   186   187     1    180.000000000000      0.451887627275                 2
   184   183   186   187     1      0.000000000000     -0.723256243127                 3
   184   183   186   187     1    180.000000000000      0.853420195751                 4
   151   152   154   187     1      0.000000000000     -3.494734420302                 1
   151   152   154   187     1    180.000000000000      1.745766788365                 2
   151   152   154   187     1      0.000000000000     -1.170572598772                 3
   151   152   154   187     1    180.000000000000      0.049742691381                 4
     9     8     7    14     1    180.000000000000     15.321515534534                 2
   138   147   148   156     1      0.000000000000     -0.247220254385                 1
   138   147   148   156     1    180.000000000000      5.426681387483                 2
   138   147   148   156     1      0.000000000000     -0.205836514542                 3
   138   147   148   156     1    180.000000000000      0.312593783905                 4
     3     4     5     6     1    180.000000000000     15.321515534534                 2
   185   183   184   192     1      0.000000000000      0.435413753811                 3
    12   178   177   179     1      0.000000000000      0.198220506977                 3
   139   140   141   164     1    180.000000000000     15.321515534534                 2
    50    59    60    61     1      0.000000000000     -0.247220254385                 1
    50    59    60    61     1    180.000000000000      5.426681387483                 2
    50    59    60    61     1      0.000000000000     -0.205836514542                 3
    50    59    60    61     1    180.000000000000      0.312593783905                 4
   147   148   149   150     1    180.000000000000     15.321515534534                 2
    64    63    67    86     1    180.000000000000     15.321515534534                 2
    63    64    65    83     1      0.000000000000      0.483407861024                 3
    67    63    62    80     1    180.000000000000     15.321515534534                 2
   105   104   103   113     1      0.000000000000      0.260489642362                 1
   105   104   103   113     1    180.000000000000      6.116043085338                 2
   105   104   103   113     1      0.000000000000      0.142130090085                 3
   105   104   103   113     1    180.000000000000      1.301834083290                 4
   110   144   143   146     1      0.000000000000      0.295782506541                 1
   110   144   143   146     1    180.000000000000      3.279396587487                 2
   110   144   143   146     1      0.000000000000      0.204874486736                 3
   110   144   143   146     1    180.000000000000     -0.296869151636                 4
    94   103   113   132     1    180.000000000000     15.321515534534                 2
    51    50    59    69     1    180.000000000000     15.321515534534                 2
    15    16    17    18     1    180.000000000000     15.321515534534                 2
   151   155   156   175     1    180.000000000000     15.321515534534                 2
   169   152   154   173     1      0.000000000000     -1.549564366044                 1
   169   152   154   173     1    180.000000000000      0.902286050406                 2
   169   152   154   173     1      0.000000000000     -0.106148162017                 3
   169   152   154   173     1    180.000000000000      0.008612599666                 4
   104   112   111   107     1    180.000000000000     15.321515534534                 2
   139   146   143   142     1    180.000000000000     15.321515534534                 2
   174   155   156   175     1    180.000000000000     15.321515534534                 2
   149   148   156   155     1    180.000000000000     15.321515534534                 2
   110   108   109   128     1      0.000000000000      0.483407861024                 3
    52    51    58    55     1    180.000000000000     15.321515534534                 2
     3     2     1    27     1      0.000000000000      0.198220506977                 3
    19    20    22    41     1      0.000000000000      5.494023396617                 1
    19    20    22    41     1    180.000000000000      2.743160405398                 2
    19    20    22    41     1      0.000000000000      0.498885605708                 3
    19    20    22    41     1    180.000000000000      0.526742522571                 4
    20    19    18    36     1    180.000000000000     15.321515534534                 2
   146   143   142   165     1    180.000000000000     15.321515534534                 2
    66    64    65    83     1      0.000000000000      0.483407861024                 3
    95   102    99    98     1    180.000000000000     15.321515534534                 2
   100    99    98   121     1    180.000000000000     15.321515534534                 2
    47    46    45    70     1      0.000000000000      0.198220506977                 3
   152   154   187   186     1      0.000000000000     -0.322191664029                 1
   152   154   187   186     1    180.000000000000      8.925006249780                 2
   152   154   187   186     1      0.000000000000      0.282140974736                 3
   152   154   187   186     1    180.000000000000      0.709520306044                 4
    96    95   102    99     1    180.000000000000     15.321515534534                 2
   105   106   107   111     1    180.000000000000     15.321515534534                 2
    91   113   103   104     1    180.000000000000     15.321515534534                 2
   148   149   150   168     1    180.000000000000     15.321515534534                 2
     8     9    10    11     1    180.000000000000     15.321515534534                 2
   139   138   137   162     1    180.000000000000     15.321515534534                 2
    93    94   103   113     1    180.000000000000     15.321515534534                 2
    20    19    23    24     1    180.000000000000     15.321515534534                 2
    48    49    50    51     1    180.000000000000     15.321515534534                 2
    97    98    99   102     1    180.000000000000     15.321515534534                 2
   135   134   133   160     1      0.000000000000      0.198220506977                 3
    14     7     6    15     1    180.000000000000      4.866977563957                 2
    92    91   113   132     1    180.000000000000     15.321515534534                 2
   152   151   155   174     1    180.000000000000     15.321515534534                 2
   182   183   184   193     1      0.000000000000      0.435413753811                 3
    94    95    96    97     1    180.000000000000     15.321515534534                 2
    92    93    94    95     1    180.000000000000     15.321515534534                 2
   153   152   154   187     1      0.000000000000      0.178973825487                 1
   153   152   154   187     1    180.000000000000     -1.091610260077                 2
   153   152   154   187     1      0.000000000000     -1.755709336678                 3
   153   152   154   187     1    180.000000000000     -0.528368025686                 4
   106   107   108   125     1      0.000000000000     -0.097703400644                 1
   106   107   108   125     1    180.000000000000     -0.831964376995                 2
   106   107   108   125     1      0.000000000000     -0.206469262991                 3
   106   107   108   125     1    180.000000000000      0.198653023241                 4
   112   104   105   123     1    180.000000000000     15.321515534534                 2
   151   152   154   173     1      0.000000000000      2.935366082479                 1
   151   152   154   173     1    180.000000000000      0.456744206653                 2
   151   152   154   173     1      0.000000000000     -0.012733859765                 3
   151   152   154   173     1    180.000000000000      0.250940123048                 4
    63    64    66   100     1      0.000000000000     -3.723253355857                 1
    63    64    66   100     1    180.000000000000      1.357702901378                 2
    63    64    66   100     1      0.000000000000     -0.730015492191                 3
    63    64    66   100     1    180.000000000000     -0.838215500931                 4
    81    64    66    85     1      0.000000000000     -2.924223427595                 1
    81    64    66    85     1    180.000000000000     -0.189924465709                 2
    81    64    66    85     1      0.000000000000      0.660595256766                 3
    81    64    66    85     1    180.000000000000     -0.238066220236                 4
     7    14    11    10     1    180.000000000000     15.321515534534                 2
   150   149   148   156     1    180.000000000000     15.321515534534                 2
   110   108   109   127     1      0.000000000000      0.483407861024                 3
    47    69    59    60     1    180.000000000000     15.321515534534                 2
   185   183   182   189     1      0.000000000000      0.435413753811                 3
    22    56    55    54     1      0.000000000000      0.295782506541                 1
    22    56    55    54     1    180.000000000000      3.279396587487                 2
    22    56    55    54     1      0.000000000000      0.204874486736                 3
    22    56    55    54     1    180.000000000000     -0.296869151636                 4
    53    52    51    58     1    180.000000000000     15.321515534534                 2
    68    60    61    79     1    180.000000000000     15.321515534534                 2
   137   136   135   157     1    180.000000000000     15.321515534534                 2
    22    20    19    23     1      0.000000000000      0.360290370224                 1
    22    20    19    23     1    180.000000000000      1.476219136296                 2
    22    20    19    23     1      0.000000000000     -0.194782652031                 3
    22    20    19    23     1    180.000000000000      0.019459405135                 4
    66   100    99   102     1      0.000000000000      0.295782506541                 1
    66   100    99   102     1    180.000000000000      3.279396587487                 2
    66   100    99   102     1      0.000000000000      0.204874486736                 3
    66   100    99   102     1    180.000000000000     -0.296869151636                 4
    22    20    21    39     1      0.000000000000      0.483407861024                 3
     8     9    10    33     1    180.000000000000     15.321515534534                 2
    62    63    64    81     1      0.000000000000     -0.097703400644                 1
    62    63    64    81     1    180.000000000000     -0.831964376995                 2
    62    63    64    81     1      0.000000000000     -0.206469262991                 3
    62    63    64    81     1    180.000000000000      0.198653023241                 4
    32     9    10    33     1    180.000000000000     15.321515534534                 2
   136   137   138   139     1    180.000000000000     15.321515534534                 2
   104   105   106   124     1    180.000000000000     15.321515534534                 2
    29     4     5    30     1    180.000000000000     15.321515534534                 2
    10    11    12   178     1      0.000000000000     -0.090642601646                 1
    10    11    12   178     1    180.000000000000      2.122303423492                 2
    10    11    12   178     1      0.000000000000     -0.144874007691                 3
    10    11    12   178     1    180.000000000000      0.011003858093                 4
    64    63    67    68     1    180.000000000000     15.321515534534                 2
    12    11    10    33     1    180.000000000000     15.321515534534                 2
    61    62    63    67     1    180.000000000000     15.321515534534                 2
     6    15    16    17     1      0.000000000000     -0.247220254385                 1
     6    15    16    17     1    180.000000000000      5.426681387483                 2
     6    15    16    17     1      0.000000000000     -0.205836514542                 3
     6    15    16    17     1    180.000000000000      0.312593783905                 4
    19    20    21    40     1      0.000000000000      0.483407861024                 3
    86    67    68    87     1    180.000000000000     15.321515534534                 2
   135   134   133   158     1      0.000000000000      0.198220506977                 3
    62    63    64    66     1      0.000000000000      0.360290370224                 1
    62    63    64    66     1    180.000000000000      1.476219136296                 2
    62    63    64    66     1      0.000000000000     -0.194782652031                 3
    62    63    64    66     1    180.000000000000      0.019459405135                 4
    93    92    91   113     1    180.000000000000     15.321515534534                 2
    37    20    21    39     1      0.000000000000      0.799950138473                 3
     5     6     7     8     1    180.000000000000      4.866977563957                 2
    11    12   178   177     1      0.000000000000     -1.366040258533                 1
    11    12   178   177     1    180.000000000000     13.672537335889                 2
    11    12   178   177     1      0.000000000000      1.937414444094                 3
    11    12   178   177     1    180.000000000000      1.504016405133                 4
   150   151   152   154     1      0.000000000000      0.190378982783                 1
   150   151   152   154     1    180.000000000000      1.021958078501                 2
   150   151   152   154     1      0.000000000000     -0.193478836056                 3
   150   151   152   154     1    180.000000000000      0.145321877918                 4
   105   106   107   108     1    180.000000000000     15.321515534534                 2
   111   107   106   124     1    180.000000000000     15.321515534534                 2
   185   183   186   187     1      0.000000000000      3.407916490176                 1
   185   183   186   187     1    180.000000000000      0.451887627275                 2
   185   183   186   187     1      0.000000000000     -0.723256243127                 3
   185   183   186   187     1    180.000000000000      0.853420195751                 4
   140   139   138   147     1    180.000000000000      4.866977563957                 2
   156   148   147   157     1      0.000000000000      0.260489642362                 1
   156   148   147   157     1    180.000000000000      6.116043085338                 2
   156   148   147   157     1      0.000000000000      0.142130090085                 3
   156   148   147   157     1    180.000000000000      1.301834083290                 4
    63    64    65    82     1      0.000000000000      0.483407861024                 3
    98    97    96   119     1    180.000000000000     15.321515534534                 2
    17    18    19    20     1    180.000000000000     15.321515534534                 2
    91    92    93    94     1    180.000000000000     15.321515534534                 2
   148   156   155   151     1    180.000000000000     15.321515534534                 2
   119    96    97   120     1    180.000000000000     15.321515534534                 2
    52    53    54    77     1    180.000000000000     15.321515534534                 2
    18    19    20    22     1      0.000000000000      0.360290370224                 1
    18    19    20    22     1    180.000000000000      1.476219136296                 2
    18    19    20    22     1      0.000000000000     -0.194782652031                 3
    18    19    20    22     1    180.000000000000      0.019459405135                 4
   108   110   144   143     1      0.000000000000     -0.033969129745                 1
   108   110   144   143     1    180.000000000000      6.999165672883                 2
   108   110   144   143     1      0.000000000000      1.701303675698                 3
   108   110   144   143     1    180.000000000000      2.903091970318                 4
     6     7    14    34     1    180.000000000000     15.321515534534                 2
    52    51    50    59     1    180.000000000000      4.866977563957                 2
   186   183   182   190     1      0.000000000000      0.466735938990                 3
   186   183   182   190     1      0.000000000000      1.436153909162                 1
   182   183   185   197     1      0.000000000000      0.435413753811                 3
   157   135   136   161     1    180.000000000000     15.321515534534                 2
   153   152   154   173     1      0.000000000000     -1.681031211763                 1
   153   152   154   173     1    180.000000000000      0.993679030582                 2
   153   152   154   173     1      0.000000000000      0.269282390826                 3
   153   152   154   173     1    180.000000000000      0.048695871655                 4
   108   110   144   145     1      0.000000000000     -1.982134786520                 1
   108   110   144   145     1    180.000000000000     11.387036426621                 2
   108   110   144   145     1      0.000000000000      1.146878399442                 3
   108   110   144   145     1    180.000000000000     -1.012380530410                 4
   139   138   147   148     1    180.000000000000     15.321515534534                 2
     7    14    11    12     1    180.000000000000     15.321515534534                 2
   137   138   139   146     1    180.000000000000      4.866977563957                 2
   163   140   141   164     1    180.000000000000     15.321515534534                 2
    73    48    49    74     1    180.000000000000     15.321515534534                 2
     5     6     7    14     1    180.000000000000      4.866977563957                 2
     7     8     9    32     1    180.000000000000     15.321515534534                 2
    21    20    22    56     1      0.000000000000      0.726203443950                 1
    21    20    22    56     1    180.000000000000     -0.715973086790                 2
    21    20    22    56     1      0.000000000000     -1.149423080816                 3
    21    20    22    56     1    180.000000000000     -0.292240089751                 4
    47    48    49    50     1    180.000000000000     15.321515534534                 2
    91   113   103    94     1    180.000000000000     15.321515534534                 2
    45    46    47    48     1      0.000000000000      0.098555331736                 1
    45    46    47    48     1    180.000000000000      9.051020514985                 2
    45    46    47    48     1      0.000000000000      0.469769779363                 3
    45    46    47    48     1    180.000000000000      0.628708567628                 4
   154   152   151   155     1      0.000000000000      0.190378982783                 1
   154   152   151   155     1    180.000000000000      1.021958078501                 2
   154   152   151   155     1      0.000000000000     -0.193478836056                 3
   154   152   151   155     1    180.000000000000      0.145321877918                 4
   125   108   109   126     1      0.000000000000      0.799950138473                 3
   123   105   106   124     1    180.000000000000     15.321515534534                 2
   106   107   108   110     1      0.000000000000      0.360290370224                 1
   106   107   108   110     1    180.000000000000      1.476219136296                 2
   106   107   108   110     1      0.000000000000     -0.194782652031                 3
   106   107   108   110     1    180.000000000000      0.019459405135                 4
   182   183   184   192     1      0.000000000000      0.435413753811                 3
    15     6     5    30     1    180.000000000000     15.321515534534                 2
    14    11    10    33     1    180.000000000000     15.321515534534                 2
    58    51    50    59     1    180.000000000000      4.866977563957                 2
   184   183   182   189     1      0.000000000000      0.435413753811                 3
   107   108   109   126     1      0.000000000000      0.483407861024                 3
   184   183   185   196     1      0.000000000000      0.435413753811                 3
    37    20    22    56     1      0.000000000000      3.046669433127                 1
    37    20    22    56     1    180.000000000000     -1.026605212025                 2
    37    20    22    56     1      0.000000000000     -0.487630146045                 3
    37    20    22    56     1    180.000000000000      0.225445298100                 4
    57    56    55    58     1      0.000000000000     -0.306824709391                 1
    57    56    55    58     1    180.000000000000      0.676767549391                 2
    57    56    55    58     1      0.000000000000     -0.188687478451                 3
    57    56    55    58     1    180.000000000000      0.413098894755                 4
     8     7    14    11     1    180.000000000000     15.321515534534                 2
    49    48    47    69     1    180.000000000000     15.321515534534                 2
     4     5     6     7     1    180.000000000000     15.321515534534                 2
    52    53    54    55     1    180.000000000000     15.321515534534                 2
    65    64    66   100     1      0.000000000000      0.726203443950                 1
    65    64    66   100     1    180.000000000000     -0.715973086790                 2
    65    64    66   100     1      0.000000000000     -1.149423080816                 3
    65    64    66   100     1    180.000000000000     -0.292240089751                 4
    79    61    62    80     1    180.000000000000     15.321515534534                 2
   135   134   133   159     1      0.000000000000      0.198220506977                 3
   150   151   155   174     1    180.000000000000     15.321515534534                 2
    81    64    65    84     1      0.000000000000      0.799950138473                 3
   125   108   110   144     1      0.000000000000      3.046669433127                 1
   125   108   110   144     1    180.000000000000     -1.026605212025                 2
   125   108   110   144     1      0.000000000000     -0.487630146045                 3
   125   108   110   144     1    180.000000000000      0.225445298100                 4
   138   139   146   143     1    180.000000000000     15.321515534534                 2
    47    69    59    50     1    180.000000000000     15.321515534534                 2
    15    16    24    43     1    180.000000000000     15.321515534534                 2
    48    47    69    59     1    180.000000000000     15.321515534534                 2
   135   157   147   138     1    180.000000000000     15.321515534534                 2
   110   144   143   142     1      0.000000000000      0.295782506541                 1
   110   144   143   142     1    180.000000000000      3.279396587487                 2
   110   144   143   142     1      0.000000000000      0.204874486736                 3
   110   144   143   142     1    180.000000000000     -0.296869151636                 4
     2     3    25    15     1    180.000000000000     15.321515534534                 2
   153   152   151   155     1      0.000000000000     -0.118968594268                 1
   153   152   151   155     1    180.000000000000      0.127266895368                 2
   153   152   151   155     1      0.000000000000     -0.184384462946                 3
   153   152   151   155     1    180.000000000000     -0.066734671424                 4
   107   108   110   144     1      0.000000000000     -3.723253355857                 1
   107   108   110   144     1    180.000000000000      1.357702901378                 2
   107   108   110   144     1      0.000000000000     -0.730015492191                 3
   107   108   110   144     1    180.000000000000     -0.838215500931                 4
    59    60    61    79     1    180.000000000000     15.321515534534                 2
    59    60    68    87     1    180.000000000000     15.321515534534                 2
    15    16    24    23     1    180.000000000000     15.321515534534                 2
    96    95    94   103     1    180.000000000000      4.866977563957                 2
   151   150   149   167     1    180.000000000000     15.321515534534                 2
    60    68    67    86     1    180.000000000000     15.321515534534                 2
    22    20    21    38     1      0.000000000000      0.483407861024                 3
    49    50    51    52     1    180.000000000000      4.866977563957                 2
     2     3    25    44     1    180.000000000000     15.321515534534                 2
   133   134   135   157     1      0.000000000000      0.098555331736                 1
   133   134   135   157     1    180.000000000000      9.051020514985                 2
   133   134   135   157     1      0.000000000000      0.469769779363                 3
   133   134   135   157     1    180.000000000000      0.628708567628                 4
   146   139   140   163     1    180.000000000000     15.321515534534                 2
    18    19    23    42     1    180.000000000000     15.321515534534                 2
   154   187   186   183     1      0.000000000000     -0.881537400075                 1
   154   187   186   183     1    180.000000000000     14.242863892452                 2
   154   187   186   183     1      0.000000000000     -0.168237385178                 3
   154   187   186   183     1    180.000000000000      1.022540286447                 4
    46    47    69    88     1    180.000000000000     15.321515534534                 2
   169   152   153   170     1      0.000000000000      0.799950138473                 3
     7     6    15    25     1    180.000000000000     15.321515534534                 2
    89    90    91   113     1      0.000000000000      0.098555331736                 1
    89    90    91   113     1    180.000000000000      9.051020514985                 2
    89    90    91   113     1      0.000000000000      0.469769779363                 3
    89    90    91   113     1    180.000000000000      0.628708567628                 4
    10     9     8    31     1    180.000000000000     15.321515534534                 2
    61    60    68    67     1    180.000000000000     15.321515534534                 2
    98    99   102   122     1    180.000000000000     15.321515534534                 2
    19    20    21    39     1      0.000000000000      0.483407861024                 3
   186   183   184   192     1      0.000000000000      0.466735938990                 3
   186   183   184   192     1      0.000000000000      1.436153909162                 1
    62    63    64    65     1      0.000000000000     -0.270260884865                 1
    62    63    64    65     1    180.000000000000     -0.105754359811                 2
    62    63    64    65     1      0.000000000000     -0.160047904663                 3
    62    63    64    65     1    180.000000000000     -0.056741363023                 4
    60    61    62    63     1    180.000000000000     15.321515534534                 2
    37    20    21    38     1      0.000000000000      0.799950138473                 3
   111   107   108   125     1      0.000000000000     -0.097703400644                 1
   111   107   108   125     1    180.000000000000     -0.831964376995                 2
   111   107   108   125     1      0.000000000000     -0.206469262991                 3
   111   107   108   125     1    180.000000000000      0.198653023241                 4
   141   142   143   144     1    180.000000000000     15.321515534534                 2
   106   107   111   112     1    180.000000000000     15.321515534534                 2
   140   139   146   166     1    180.000000000000     15.321515534534                 2
    97    96    95   102     1    180.000000000000     15.321515534534                 2
    18    19    20    21     1      0.000000000000     -0.270260884865                 1
    18    19    20    21     1    180.000000000000     -0.105754359811                 2
    18    19    20    21     1      0.000000000000     -0.160047904663                 3
    18    19    20    21     1    180.000000000000     -0.056741363023                 4
    94    93    92   117     1    180.000000000000     15.321515534534                 2
    24    16    17    35     1    180.000000000000     15.321515534534                 2
   186   183   182   189     1      0.000000000000      0.466735938990                 3
   186   183   182   189     1      0.000000000000      1.436153909162                 1
    98    99   100   101     1      0.000000000000     -0.306824709391                 1
    98    99   100   101     1    180.000000000000      0.676767549391                 2
    98    99   100   101     1      0.000000000000     -0.188687478451                 3
    98    99   100   101     1    180.000000000000      0.413098894755                 4
    50    49    48    73     1    180.000000000000     15.321515534534                 2
   186   183   185   196     1      0.000000000000      0.466735938990                 3
   186   183   185   196     1      0.000000000000      1.436153909162                 1
    59    50    49    74     1    180.000000000000     15.321515534534                 2
   185   183   184   194     1      0.000000000000      0.435413753811                 3
   154   152   153   170     1      0.000000000000      0.483407861024                 3
    91    90    89   114     1      0.000000000000      0.198220506977                 3
    12   178   177   181     1      0.000000000000      0.198220506977                 3
   105   104   112   131     1    180.000000000000     15.321515534534                 2
   151   152   153   170     1      0.000000000000      0.483407861024                 3
    96    95   102   122     1    180.000000000000     15.321515534534                 2
    17    18    19    23     1    180.000000000000     15.321515534534                 2
     3     4     5    30     1    180.000000000000     15.321515534534                 2
    97    98    99   100     1    180.000000000000     15.321515534534                 2
    49    50    51    58     1    180.000000000000      4.866977563957                 2
    66   100    99    98     1      0.000000000000      0.295782506541                 1
    66   100    99    98     1    180.000000000000      3.279396587487                 2
    66   100    99    98     1      0.000000000000      0.204874486736                 3
    66   100    99    98     1    180.000000000000     -0.296869151636                 4
     6    15    25    44     1    180.000000000000     15.321515534534                 2
   100    99   102   122     1    180.000000000000     15.321515534534                 2
    14     7     8    31     1    180.000000000000     15.321515534534                 2
   106   107   108   109     1      0.000000000000     -0.270260884865                 1
   106   107   108   109     1    180.000000000000     -0.105754359811                 2
   106   107   108   109     1      0.000000000000     -0.160047904663                 3
   106   107   108   109     1    180.000000000000     -0.056741363023                 4
    51    52    53    76     1    180.000000000000     15.321515534534                 2
    76    53    54    77     1    180.000000000000     15.321515534534                 2
   173   154   187   186     1      0.000000000000      0.769549782225                 1
   173   154   187   186     1    180.000000000000      7.806418632347                 2
   173   154   187   186     1      0.000000000000      0.272746663378                 3
   173   154   187   186     1    180.000000000000      0.722656929376                 4
    95    94   103   104     1    180.000000000000     15.321515534534                 2
   136   137   138   147     1    180.000000000000     15.321515534534                 2
   184   183   185   195     1      0.000000000000      0.435413753811                 3
   102    95    96   119     1    180.000000000000     15.321515534534                 2
   147   148   156   175     1    180.000000000000     15.321515534534                 2
   104   103   113   132     1    180.000000000000     15.321515534534                 2
   136   135   157   176     1    180.000000000000     15.321515534534                 2
    54    55    58    78     1    180.000000000000     15.321515534534                 2
   142   143   144   145     1      0.000000000000     -0.306824709391                 1
   142   143   144   145     1    180.000000000000      0.676767549391                 2
   142   143   144   145     1      0.000000000000     -0.188687478451                 3
   142   143   144   145     1    180.000000000000      0.413098894755                 4
    95   102    99   100     1    180.000000000000     15.321515534534                 2
    47    46    45    72     1      0.000000000000      0.198220506977                 3
     7     8     9    10     1    180.000000000000     15.321515534534                 2
    81    64    65    83     1      0.000000000000      0.799950138473                 3
    20    22    56    55     1      0.000000000000     -0.033969129745                 1
    20    22    56    55     1    180.000000000000      6.999165672883                 2
    20    22    56    55     1      0.000000000000      1.701303675698                 3
    20    22    56    55     1    180.000000000000      2.903091970318                 4
    46    47    69    59     1    180.000000000000     15.321515534534                 2
    23    19    20    37     1      0.000000000000     -0.097703400644                 1
    23    19    20    37     1    180.000000000000     -0.831964376995                 2
    23    19    20    37     1      0.000000000000     -0.206469262991                 3
    23    19    20    37     1    180.000000000000      0.198653023241                 4
    64    63    62    80     1    180.000000000000     15.321515534534                 2
     4     3    25    15     1    180.000000000000     15.321515534534                 2
    23    19    18    36     1    180.000000000000     15.321515534534                 2
    94    95    96   119     1    180.000000000000     15.321515534534                 2
     4     3    25    44     1    180.000000000000     15.321515534534                 2
   142   141   140   163     1    180.000000000000     15.321515534534                 2
   146   139   138   147     1    180.000000000000      4.866977563957                 2
   147   138   137   162     1    180.000000000000     15.321515534534                 2
   125   108   110   129     1      0.000000000000     -2.924223427595                 1
   125   108   110   129     1    180.000000000000     -0.189924465709                 2
   125   108   110   129     1      0.000000000000      0.660595256766                 3
   125   108   110   129     1    180.000000000000     -0.238066220236                 4
    19    20    22    56     1      0.000000000000     -3.723253355857                 1
    19    20    22    56     1    180.000000000000      1.357702901378                 2
    19    20    22    56     1      0.000000000000     -0.730015492191                 3
    19    20    22    56     1    180.000000000000     -0.838215500931                 4
   133   134   135   136     1      0.000000000000      0.098555331736                 1
   133   134   135   136     1    180.000000000000      9.051020514985                 2
   133   134   135   136     1      0.000000000000      0.469769779363                 3
   133   134   135   136     1    180.000000000000      0.628708567628                 4
    85    66   100    99     1      0.000000000000      0.773347893196                 1
    85    66   100    99     1    180.000000000000      7.664415035633                 2
    85    66   100    99     1      0.000000000000      0.126481151152                 3
    85    66   100    99     1    180.000000000000      0.355904077937                 4
   147   148   156   155     1    180.000000000000     15.321515534534                 2
   155   151   150   168     1    180.000000000000     15.321515534534                 2
    89    90    91    92     1      0.000000000000      0.098555331736                 1
    89    90    91    92     1    180.000000000000      9.051020514985                 2
    89    90    91    92     1      0.000000000000      0.469769779363                 3
    89    90    91    92     1    180.000000000000      0.628708567628                 4
    19    20    21    38     1      0.000000000000      0.483407861024                 3
   107   108   110   129     1      0.000000000000      5.494023396617                 1
   107   108   110   129     1    180.000000000000      2.743160405398                 2
   107   108   110   129     1      0.000000000000      0.498885605708                 3
   107   108   110   129     1    180.000000000000      0.526742522571                 4
     9    10    11    12     1    180.000000000000     15.321515534534                 2
    53    54    55    56     1    180.000000000000     15.321515534534                 2
   103   104   112   131     1    180.000000000000     15.321515534534                 2
   144   143   146   166     1    180.000000000000     15.321515534534                 2
    51    52    53    54     1    180.000000000000     15.321515534534                 2
   102    95    94   103     1    180.000000000000      4.866977563957                 2
     6    15    16    24     1      0.000000000000     -0.247220254385                 1
     6    15    16    24     1    180.000000000000      5.426681387483                 2
     6    15    16    24     1      0.000000000000     -0.205836514542                 3
     6    15    16    24     1    180.000000000000      0.312593783905                 4
   101   100    99   102     1      0.000000000000     -0.306824709391                 1
   101   100    99   102     1    180.000000000000      0.676767549391                 2
   101   100    99   102     1      0.000000000000     -0.188687478451                 3
   101   100    99   102     1    180.000000000000      0.413098894755                 4
   139   146   143   144     1    180.000000000000     15.321515534534                 2
    52    51    58    78     1    180.000000000000     15.321515534534                 2
    21    20    22    41     1      0.000000000000     -2.738519770609                 1
    21    20    22    41     1    180.000000000000      0.222963039541                 2
    21    20    22    41     1      0.000000000000      0.720768019293                 3
    21    20    22    41     1    180.000000000000     -0.505853124484                 4
    51    58    55    54     1    180.000000000000     15.321515534534                 2
     6     5     4    29     1    180.000000000000     15.321515534534                 2
    11    10     9    32     1    180.000000000000     15.321515534534                 2
    62    63    67    86     1    180.000000000000     15.321515534534                 2
    15    16    17    35     1    180.000000000000     15.321515534534                 2
   136   135   157   147     1    180.000000000000     15.321515534534                 2
     3    25    15    16     1    180.000000000000     15.321515534534                 2
    46    47    48    49     1    180.000000000000     15.321515534534                 2
     3     2     1    26     1      0.000000000000      0.198220506977                 3
   186   183   185   195     1      0.000000000000      0.466735938990                 3
   186   183   185   195     1      0.000000000000      1.436153909162                 1
    47    48    49    74     1    180.000000000000     15.321515534534                 2
   145   144   143   146     1      0.000000000000     -0.306824709391                 1
   145   144   143   146     1    180.000000000000      0.676767549391                 2
   145   144   143   146     1      0.000000000000     -0.188687478451                 3
   145   144   143   146     1    180.000000000000      0.413098894755                 4
    95    96    97    98     1    180.000000000000     15.321515534534                 2
    66    64    65    82     1      0.000000000000      0.483407861024                 3
    93    94    95    96     1    180.000000000000      4.866977563957                 2
    60    68    67    63     1    180.000000000000     15.321515534534                 2
    56    55    58    78     1    180.000000000000     15.321515534534                 2
     2     3     4     5     1    180.000000000000     15.321515534534                 2
   109   108   110   144     1      0.000000000000      0.726203443950                 1
   109   108   110   144     1    180.000000000000     -0.715973086790                 2
   109   108   110   144     1      0.000000000000     -1.149423080816                 3
   109   108   110   144     1    180.000000000000     -0.292240089751                 4
   185   183   184   193     1      0.000000000000      0.435413753811                 3
    25     3     4    29     1    180.000000000000     15.321515534534                 2
   105   104   112   111     1    180.000000000000     15.321515534534                 2
   155   151   152   169     1      0.000000000000     -0.075508534103                 1
   155   151   152   169     1    180.000000000000     -0.546880009462                 2
   155   151   152   169     1      0.000000000000     -0.207514021817                 3
   155   151   152   169     1    180.000000000000      0.318997945400                 4
    63    64    65    84     1      0.000000000000      0.483407861024                 3
   150   151   152   169     1      0.000000000000     -0.075508534103                 1
   150   151   152   169     1    180.000000000000     -0.546880009462                 2
   150   151   152   169     1      0.000000000000     -0.207514021817                 3
   150   151   152   169     1    180.000000000000      0.318997945400                 4
   135   136   137   162     1    180.000000000000     15.321515534534                 2
    94    95   102    99     1    180.000000000000     15.321515534534                 2
    65    64    63    67     1      0.000000000000     -0.270260884865                 1
    65    64    63    67     1    180.000000000000     -0.105754359811                 2
    65    64    63    67     1      0.000000000000     -0.160047904663                 3
    65    64    63    67     1    180.000000000000     -0.056741363023                 4
    16    24    23    19     1    180.000000000000     15.321515534534                 2
     5     4     3    25     1    180.000000000000     15.321515534534                 2
    92    93    94   103     1    180.000000000000     15.321515534534                 2
    12    11    14    34     1    180.000000000000     15.321515534534                 2
    17    16    15    25     1      0.000000000000      0.260489642362                 1
    17    16    15    25     1    180.000000000000      6.116043085338                 2
    17    16    15    25     1      0.000000000000      0.142130090085                 3
    17    16    15    25     1    180.000000000000      1.301834083290                 4
    41    22    56    55     1      0.000000000000      0.773347893196                 1
    41    22    56    55     1    180.000000000000      7.664415035633                 2
    41    22    56    55     1      0.000000000000      0.126481151152                 3
    41    22    56    55     1    180.000000000000      0.355904077937                 4
   144   143   142   165     1    180.000000000000     15.321515534534                 2
    56    55    54    77     1    180.000000000000     15.321515534534                 2
    47    46    45    71     1      0.000000000000      0.198220506977                 3
   169   152   153   172     1      0.000000000000      0.799950138473                 3
    35    17    18    36     1    180.000000000000     15.321515534534                 2
    81    64    65    82     1      0.000000000000      0.799950138473                 3
   152   151   150   168     1    180.000000000000     15.321515534534                 2
   120    97    98   121     1    180.000000000000     15.321515534534                 2
     7     6    15    16     1    180.000000000000     15.321515534534                 2
    49    50    59    60     1    180.000000000000     15.321515534534                 2
     8     7     6    15     1    180.000000000000      4.866977563957                 2
    67    63    64    81     1      0.000000000000     -0.097703400644                 1
    67    63    64    81     1    180.000000000000     -0.831964376995                 2
    67    63    64    81     1      0.000000000000     -0.206469262991                 3
    67    63    64    81     1    180.000000000000      0.198653023241                 4
   103   104   105   123     1    180.000000000000     15.321515534534                 2
    99    98    97   120     1    180.000000000000     15.321515534534                 2
    18    19    20    37     1      0.000000000000     -0.097703400644                 1
    18    19    20    37     1    180.000000000000     -0.831964376995                 2
    18    19    20    37     1      0.000000000000     -0.206469262991                 3
    18    19    20    37     1    180.000000000000      0.198653023241                 4
     6     7    14    11     1    180.000000000000     15.321515534534                 2
   125   108   109   128     1      0.000000000000      0.799950138473                 3
   130   111   112   131     1    180.000000000000     15.321515534534                 2
   141   142   143   146     1    180.000000000000     15.321515534534                 2
   182   183   184   194     1      0.000000000000      0.435413753811                 3
    50    51    58    78     1    180.000000000000     15.321515534534                 2
    64    66   100   101     1      0.000000000000     -1.982134786520                 1
    64    66   100   101     1    180.000000000000     11.387036426621                 2
    64    66   100   101     1      0.000000000000      1.146878399442                 3
    64    66   100   101     1    180.000000000000     -1.012380530410                 4
   152   151   155   156     1    180.000000000000     15.321515534534                 2
    75    52    53    76     1    180.000000000000     15.321515534534                 2
   184   183   182   191     1      0.000000000000      0.435413753811                 3
   107   108   109   128     1      0.000000000000      0.483407861024                 3
   137   138   147   157     1    180.000000000000     15.321515534534                 2
   113    91    92   117     1    180.000000000000     15.321515534534                 2
    93    94    95   102     1    180.000000000000      4.866977563957                 2
   134   135   136   137     1    180.000000000000     15.321515534534                 2
    50    51    52    75     1    180.000000000000     15.321515534534                 2
   137   138   139   140     1    180.000000000000      4.866977563957                 2
   129   110   144   145     1      0.000000000000      4.336605081612                 1
   129   110   144   145     1    180.000000000000      9.655406464813                 2
   129   110   144   145     1      0.000000000000      0.299705259960                 3
   129   110   144   145     1    180.000000000000     -0.552557429192                 4
    62    63    67    68     1    180.000000000000     15.321515534534                 2
    18    17    16    24     1    180.000000000000     15.321515534534                 2
   134   135   157   147     1    180.000000000000     15.321515534534                 2
     6     7     8     9     1    180.000000000000     15.321515534534                 2
   108   107   111   112     1    180.000000000000     15.321515534534                 2
   156   148   149   167     1    180.000000000000     15.321515534534                 2
    14    11    12   178     1      0.000000000000     -0.090642601646                 1
    14    11    12   178     1    180.000000000000      2.122303423492                 2
    14    11    12   178     1      0.000000000000     -0.144874007691                 3
    14    11    12   178     1    180.000000000000      0.011003858093                 4
   103   104   112   111     1    180.000000000000     15.321515534534                 2
   138   137   136   161     1    180.000000000000     15.321515534534                 2
   154   152   153   172     1      0.000000000000      0.483407861024                 3
    94   103   104   112     1      0.000000000000     -0.247220254385                 1
    94   103   104   112     1    180.000000000000      5.426681387483                 2
    94   103   104   112     1      0.000000000000     -0.205836514542                 3
    94   103   104   112     1    180.000000000000      0.312593783905                 4
    22    20    21    40     1      0.000000000000      0.483407861024                 3
     6     7     8    31     1    180.000000000000     15.321515534534                 2
    54    55    56    57     1      0.000000000000     -0.306824709391                 1
    54    55    56    57     1    180.000000000000      0.676767549391                 2
    54    55    56    57     1      0.000000000000     -0.188687478451                 3
    54    55    56    57     1    180.000000000000      0.413098894755                 4
    60    61    62    80     1    180.000000000000     15.321515534534                 2
    68    60    59    69     1      0.000000000000      0.260489642362                 1
    68    60    59    69     1    180.000000000000      6.116043085338                 2
    68    60    59    69     1      0.000000000000      0.142130090085                 3
    68    60    59    69     1    180.000000000000      1.301834083290                 4
   151   152   153   172     1      0.000000000000      0.483407861024                 3
     5     6    15    16     1    180.000000000000     15.321515534534                 2
    18    19    23    24     1    180.000000000000     15.321515534534                 2
   107   106   105   123     1    180.000000000000     15.321515534534                 2
   110   108   109   126     1      0.000000000000      0.483407861024                 3
   149   148   156   175     1    180.000000000000     15.321515534534                 2
   112   104   103   113     1      0.000000000000      0.260489642362                 1
   112   104   103   113     1    180.000000000000      6.116043085338                 2
   112   104   103   113     1      0.000000000000      0.142130090085                 3
   112   104   103   113     1    180.000000000000      1.301834083290                 4
   138   147   157   176     1    180.000000000000     15.321515534534                 2
   182   183   185   196     1      0.000000000000      0.435413753811                 3
     7     6     5    30     1    180.000000000000     15.321515534534                 2
     5     6    15    25     1    180.000000000000     15.321515534534                 2
    96    97    98   121     1    180.000000000000     15.321515534534                 2
   125   108   109   127     1      0.000000000000      0.799950138473                 3
   186   183   184   194     1      0.000000000000      0.466735938990                 3
   186   183   184   194     1      0.000000000000      1.436153909162                 1
   150   151   152   153     1      0.000000000000     -0.118968594268                 1
   150   151   152   153     1    180.000000000000      0.127266895368                 2
   150   151   152   153     1      0.000000000000     -0.184384462946                 3
   150   151   152   153     1    180.000000000000     -0.066734671424                 4
   143   142   141   164     1    180.000000000000     15.321515534534                 2
    37    20    21    40     1      0.000000000000      0.799950138473                 3
     4     5     6    15     1    180.000000000000     15.321515534534                 2
    63    64    66    85     1      0.000000000000      5.494023396617                 1
    63    64    66    85     1    180.000000000000      2.743160405398                 2
    63    64    66    85     1      0.000000000000      0.498885605708                 3
    63    64    66    85     1    180.000000000000      0.526742522571                 4
   107   108   109   127     1      0.000000000000      0.483407861024                 3
   140   141   142   143     1    180.000000000000     15.321515534534                 2
   102    99    98   121     1    180.000000000000     15.321515534534                 2
    20    19    23    42     1    180.000000000000     15.321515534534                 2
    50    51    52    53     1    180.000000000000     15.321515534534                 2
    13    12    11    14     1      0.000000000000      0.094700497773                 1
    13    12    11    14     1    180.000000000000      2.203752631766                 2
    13    12    11    14     1      0.000000000000      0.092413791841                 3
    13    12    11    14     1    180.000000000000      0.196531089928                 4
    51    50    59    60     1    180.000000000000     15.321515534534                 2
    94   103   104   105     1      0.000000000000     -0.247220254385                 1
    94   103   104   105     1    180.000000000000      5.426681387483                 2
    94   103   104   105     1      0.000000000000     -0.205836514542                 3
    94   103   104   105     1    180.000000000000      0.312593783905                 4
   104   112   111   130     1    180.000000000000     15.321515534534                 2
   109   108   110   129     1      0.000000000000     -2.738519770609                 1
   109   108   110   129     1    180.000000000000      0.222963039541                 2
   109   108   110   129     1      0.000000000000      0.720768019293                 3
   109   108   110   129     1    180.000000000000     -0.505853124484                 4
    50    59    69    88     1    180.000000000000     15.321515534534                 2
   110   108   107   111     1      0.000000000000      0.360290370224                 1
   110   108   107   111     1    180.000000000000      1.476219136296                 2
   110   108   107   111     1      0.000000000000     -0.194782652031                 3
   110   108   107   111     1    180.000000000000      0.019459405135                 4
   149   150   151   155     1    180.000000000000     15.321515534534                 2
     3    25    15     6     1    180.000000000000     15.321515534534                 2
   107   111   112   131     1    180.000000000000     15.321515534534                 2
    16    17    18    36     1    180.000000000000     15.321515534534                 2
    54    53    52    75     1    180.000000000000     15.321515534534                 2
    95    94   103   113     1    180.000000000000     15.321515534534                 2
   186   183   182   191     1      0.000000000000      0.466735938990                 3
   186   183   182   191     1      0.000000000000      1.436153909162                 1
   182   183   186   187     1      0.000000000000      3.407916490176                 1
   182   183   186   187     1    180.000000000000      0.451887627275                 2
   182   183   186   187     1      0.000000000000     -0.723256243127                 3
   182   183   186   187     1    180.000000000000      0.853420195751                 4
    59    60    68    67     1    180.000000000000     15.321515534534                 2
     1     2     3     4     1      0.000000000000      0.098555331736                 1
     1     2     3     4     1    180.000000000000      9.051020514985                 2
     1     2     3     4     1      0.000000000000      0.469769779363                 3
     1     2     3     4     1    180.000000000000      0.628708567628                 4
    91    90    89   116     1      0.000000000000      0.198220506977                 3
   152   154   187   188     1      0.000000000000     -0.110257639749                 1
   152   154   187   188     1    180.000000000000      8.412332717035                 2
   152   154   187   188     1      0.000000000000      1.956778720697                 3
   152   154   187   188     1    180.000000000000     -0.645486006011                 4
    63    67    68    87     1    180.000000000000     15.321515534534                 2
    58    51    52    75     1    180.000000000000     15.321515534534                 2
    45    46    47    69     1      0.000000000000      0.098555331736                 1
    45    46    47    69     1    180.000000000000      9.051020514985                 2
    45    46    47    69     1      0.000000000000      0.469769779363                 3
    45    46    47    69     1    180.000000000000      0.628708567628                 4
   108   107   111   130     1    180.000000000000     15.321515534534                 2
   140   141   142   165     1    180.000000000000     15.321515534534                 2
   106   107   111   130     1    180.000000000000     15.321515534534                 2
    16    24    23    42     1    180.000000000000     15.321515534534                 2
    93    94   103   104     1    180.000000000000     15.321515534534                 2
   173   154   187   188     1      0.000000000000      2.800430430279                 1
   173   154   187   188     1    180.000000000000      1.975220760142                 2
   173   154   187   188     1      0.000000000000     -0.042553698637                 3
   173   154   187   188     1    180.000000000000     -0.516988346294                 4
   135   136   137   138     1    180.000000000000     15.321515534534                 2
   184   183   182   190     1      0.000000000000      0.435413753811                 3
   142   143   146   166     1    180.000000000000     15.321515534534                 2
    19    18    17    35     1    180.000000000000     15.321515534534                 2
   184   183   185   197     1      0.000000000000      0.435413753811                 3
    95    94    93   118     1    180.000000000000     15.321515534534                 2
    16    15    25    44     1    180.000000000000     15.321515534534                 2
    61    60    59    69     1      0.000000000000      0.260489642362                 1
    61    60    59    69     1    180.000000000000      6.116043085338                 2
    61    60    59    69     1      0.000000000000      0.142130090085                 3
    61    60    59    69     1    180.000000000000      1.301834083290                 4
   147   148   149   167     1    180.000000000000     15.321515534534                 2
   148   147   157   176     1    180.000000000000     15.321515534534                 2
    62    61    60    68     1    180.000000000000     15.321515534534                 2
    20    22    56    57     1      0.000000000000     -1.982134786520                 1
    20    22    56    57     1    180.000000000000     11.387036426621                 2
    20    22    56    57     1      0.000000000000      1.146878399442                 3
    20    22    56    57     1    180.000000000000     -1.012380530410                 4
    69    47    48    73     1    180.000000000000     15.321515534534                 2
   185   183   182   191     1      0.000000000000      0.435413753811                 3
   135   157   147   148     1    180.000000000000     15.321515534534                 2
   140   139   146   143     1    180.000000000000     15.321515534534                 2
   150   151   155   156     1    180.000000000000     15.321515534534                 2
   141   140   139   146     1    180.000000000000     15.321515534534                 2
    46    47    48    73     1    180.000000000000     15.321515534534                 2
   138   139   140   141     1    180.000000000000     15.321515534534                 2
    55    54    53    76     1    180.000000000000     15.321515534534                 2
    13    12   178   177     1      0.000000000000      1.861182520763                 1
    13    12   178   177     1    180.000000000000      7.250054599401                 2
    13    12   178   177     1      0.000000000000     -1.829105942362                 3
    13    12   178   177     1    180.000000000000      0.483955469636                 4
   138   139   146   166     1    180.000000000000     15.321515534534                 2
    90    91   113   103     1    180.000000000000     15.321515534534                 2
   169   152   153   171     1      0.000000000000      0.799950138473                 3
    63    62    61    79     1    180.000000000000     15.321515534534                 2
    58    55    54    77     1    180.000000000000     15.321515534534                 2
    85    66   100   101     1      0.000000000000      4.336605081612                 1
    85    66   100   101     1    180.000000000000      9.655406464813                 2
    85    66   100   101     1      0.000000000000      0.299705259960                 3
    85    66   100   101     1    180.000000000000     -0.552557429192                 4
    48    47    69    88     1    180.000000000000     15.321515534534                 2
   182   183   185   195     1      0.000000000000      0.435413753811                 3
     9    10    11    14     1    180.000000000000     15.321515534534                 2
    37    20    22    41     1      0.000000000000     -2.924223427595                 1
    37    20    22    41     1    180.000000000000     -0.189924465709                 2
    37    20    22    41     1      0.000000000000      0.660595256766                 3
    37    20    22    41     1    180.000000000000     -0.238066220236                 4
    81    64    66   100     1      0.000000000000      3.046669433127                 1
    81    64    66   100     1    180.000000000000     -1.026605212025                 2
    81    64    66   100     1      0.000000000000     -0.487630146045                 3
    81    64    66   100     1    180.000000000000      0.225445298100                 4
   186   183   184   193     1      0.000000000000      0.466735938990                 3
   186   183   184   193     1      0.000000000000      1.436153909162                 1
    24    16    15    25     1      0.000000000000      0.260489642362                 1
    24    16    15    25     1    180.000000000000      6.116043085338                 2
    24    16    15    25     1      0.000000000000      0.142130090085                 3
    24    16    15    25     1    180.000000000000      1.301834083290                 4
     8     7    14    34     1    180.000000000000     15.321515534534                 2
    53    54    55    58     1    180.000000000000     15.321515534534                 2
    12   178   177   180     1      0.000000000000      0.198220506977                 3
    50    51    58    55     1    180.000000000000     15.321515534534                 2
   164   141   142   165     1    180.000000000000     15.321515534534                 2
    10    11    14    34     1    180.000000000000     15.321515534534                 2
    65    64    66    85     1      0.000000000000     -2.738519770609                 1
    65    64    66    85     1    180.000000000000      0.222963039541                 2
    65    64    66    85     1      0.000000000000      0.720768019293                 3
    65    64    66    85     1    180.000000000000     -0.505853124484                 4
    22    56    55    58     1      0.000000000000      0.295782506541                 1
    22    56    55    58     1    180.000000000000      3.279396587487                 2
    22    56    55    58     1      0.000000000000      0.204874486736                 3
    22    56    55    58     1    180.000000000000     -0.296869151636                 4
   138   139   140   163     1    180.000000000000     15.321515534534                 2
    17    16    24    43     1    180.000000000000     15.321515534534                 2
   134   135   157   176     1    180.000000000000     15.321515534534                 2
   167   149   150   168     1    180.000000000000     15.321515534534                 2
    61    60    68    87     1    180.000000000000     15.321515534534                 2
    17    16    24    23     1    180.000000000000     15.321515534534                 2
    48    49    50    59     1    180.000000000000     15.321515534534                 2
    51    58    55    56     1    180.000000000000     15.321515534534                 2
   134   135   136   161     1    180.000000000000     15.321515534534                 2
    66    64    63    67     1      0.000000000000      0.360290370224                 1
    66    64    63    67     1    180.000000000000      1.476219136296                 2
    66    64    63    67     1      0.000000000000     -0.194782652031                 3
    66    64    63    67     1    180.000000000000      0.019459405135                 4
   104   105   106   107     1    180.000000000000     15.321515534534                 2
    94    95   102   122     1    180.000000000000     15.321515534534                 2
    31     8     9    32     1    180.000000000000     15.321515534534                 2
    95    96    97   120     1    180.000000000000     15.321515534534                 2
   106   105   104   112     1    180.000000000000     15.321515534534                 2
   103    94    93   118     1    180.000000000000     15.321515534534                 2
    42    23    24    43     1    180.000000000000     15.321515534534                 2
     3     2     1    28     1      0.000000000000      0.198220506977                 3
   154   152   153   171     1      0.000000000000      0.483407861024                 3
    21    20    19    23     1      0.000000000000     -0.270260884865                 1
    21    20    19    23     1    180.000000000000     -0.105754359811                 2
    21    20    19    23     1      0.000000000000     -0.160047904663                 3
    21    20    19    23     1    180.000000000000     -0.056741363023                 4
   186   183   185   197     1      0.000000000000      0.466735938990                 3
   186   183   185   197     1      0.000000000000      1.436153909162                 1
    66    64    65    84     1      0.000000000000      0.483407861024                 3
    19    23    24    43     1    180.000000000000     15.321515534534                 2
   151   152   153   171     1      0.000000000000      0.483407861024                 3
    91    90    89   115     1      0.000000000000      0.198220506977                 3
   149   148   147   157     1      0.000000000000      0.260489642362                 1
   149   148   147   157     1    180.000000000000      6.116043085338                 2
   149   148   147   157     1      0.000000000000      0.142130090085                 3
   149   148   147   157     1    180.000000000000      1.301834083290                 4
    90    91    92    93     1    180.000000000000     15.321515534534                 2
    91    92    93   118     1    180.000000000000     15.321515534534                 2
   149   150   151   152     1    180.000000000000     15.321515534534                 2
   137   138   147   148     1    180.000000000000     15.321515534534                 2
   169   152   154   187     1      0.000000000000      3.543158276799                 1
   169   152   154   187     1    180.000000000000     -1.010448655849                 2
   169   152   154   187     1      0.000000000000     -1.185375649633                 3
   169   152   154   187     1    180.000000000000     -0.140123548475                 4
    49    50    59    69     1    180.000000000000     15.321515534534                 2
   108   107   106   124     1    180.000000000000     15.321515534534                 2
    90    91   113   132     1    180.000000000000     15.321515534534                 2
   109   108   107   111     1      0.000000000000     -0.270260884865                 1
   109   108   107   111     1    180.000000000000     -0.105754359811                 2
   109   108   107   111     1      0.000000000000     -0.160047904663                 3
   109   108   107   111     1    180.000000000000     -0.056741363023                 4
   139   138   147   157     1    180.000000000000     15.321515534534                 2
   129   110   144   143     1      0.000000000000      0.773347893196                 1
   129   110   144   143     1    180.000000000000      7.664415035633                 2
   129   110   144   143     1      0.000000000000      0.126481151152                 3
   129   110   144   143     1    180.000000000000      0.355904077937                 4
    64    66   100    99     1      0.000000000000     -0.033969129745                 1
    64    66   100    99     1    180.000000000000      6.999165672883                 2
    64    66   100    99     1      0.000000000000      1.701303675698                 3
    64    66   100    99     1    180.000000000000      2.903091970318                 4
    61    62    63    64     1    180.000000000000     15.321515534534                 2
    60    59    69    88     1    180.000000000000     15.321515534534                 2
    16    17    18    19     1    180.000000000000     15.321515534534                 2
    59    60    61    62     1    180.000000000000     15.321515534534                 2
   139   140   141   142     1    180.000000000000     15.321515534534                 2
    41    22    56    57     1      0.000000000000      4.336605081612                 1
    41    22    56    57     1    180.000000000000      9.655406464813                 2
    41    22    56    57     1      0.000000000000      0.299705259960                 3
    41    22    56    57     1    180.000000000000     -0.552557429192                 4
    90    91    92   117     1    180.000000000000     15.321515534534                 2
   183   186   187   188     1      0.000000000000      1.568504122740                 1
   183   186   187   188     1    180.000000000000      7.217464072592                 2
   183   186   187   188     1      0.000000000000      0.498647574585                 3
   183   186   187   188     1    180.000000000000      0.463789763338                 4
    50    59    60    68     1      0.000000000000     -0.247220254385                 1
    50    59    60    68     1    180.000000000000      5.426681387483                 2
    50    59    60    68     1      0.000000000000     -0.205836514542                 3
    50    59    60    68     1    180.000000000000      0.312593783905                 4
   117    92    93   118     1    180.000000000000     15.321515534534                 2
    10    11    12    13     1      0.000000000000      0.094700497773                 1
    10    11    12    13     1    180.000000000000      2.203752631766                 2
    10    11    12    13     1      0.000000000000      0.092413791841                 3
    10    11    12    13     1    180.000000000000      0.196531089928                 4
     2     3     4    29     1    180.000000000000     15.321515534534                 2
   185   183   182   190     1      0.000000000000      0.435413753811                 3
     1     2     3    25     1      0.000000000000      0.098555331736                 1
     1     2     3    25     1    180.000000000000      9.051020514985                 2
     1     2     3    25     1      0.000000000000      0.469769779363                 3
     1     2     3    25     1    180.000000000000      0.628708567628                 4
    51    50    49    74     1    180.000000000000     15.321515534534                 2
    96    97    98    99     1    180.000000000000     15.321515534534                 2
   148   149   150   151     1    180.000000000000     15.321515534534                 2
   161   136   137   162     1    180.000000000000     15.321515534534                 2
    92    91   113   103     1    180.000000000000     15.321515534534                 2
   138   147   148   149     1      0.000000000000     -0.247220254385                 1
   138   147   148   149     1    180.000000000000      5.426681387483                 2
   138   147   148   149     1      0.000000000000     -0.205836514542                 3
   138   147   148   149     1    180.000000000000      0.312593783905                 4
   103   104   105   106     1    180.000000000000     15.321515534534                 2
   148   156   155   174     1    180.000000000000     15.321515534534                 2
    69    59    88    47     4    180.000000000000      1.534133333333                 2
    59    69    50    60     4    180.000000000000      1.534133333333                 2
   146   166   139   143     4    180.000000000000      1.534133333333                 2
     6    15     5     7     4    180.000000000000      1.534133333333                 2
   112   131   104   111     4    180.000000000000      1.534133333333                 2
    50    51    59    49     4    180.000000000000      1.534133333333                 2
    11    14    10    12     4    180.000000000000      1.534133333333                 2
    60    59    61    68     4    180.000000000000      1.534133333333                 2
   103   113    94   104     4    180.000000000000      1.534133333333                 2
   100   101    66    99     4    180.000000000000      1.534133333333                 2
   110   129   144   108     4    180.000000000000      1.394666666667                 2
    92    91    93   117     4    180.000000000000      1.534133333333                 2
    93   118    92    94     4    180.000000000000      1.534133333333                 2
   149   150   167   148     4    180.000000000000      1.534133333333                 2
     5    30     4     6     4    180.000000000000      1.534133333333                 2
   104   103   105   112     4    180.000000000000      1.534133333333                 2
   111   112   130   107     4    180.000000000000      1.534133333333                 2
   138   137   139   147     4    180.000000000000      1.534133333333                 2
    56    55    57    22     4    180.000000000000      1.534133333333                 2
   147   157   138   148     4    180.000000000000      1.534133333333                 2
    12    13   178    11     4    180.000000000000     14.644000000000                 2
   135   136   157   134     4    180.000000000000      1.534133333333                 2
   139   140   146   138     4    180.000000000000      1.534133333333                 2
   187   186   188   154     4    180.000000000000     14.644000000000                 2
   150   149   151   168     4    180.000000000000      1.534133333333                 2
    49    74    48    50     4    180.000000000000      1.534133333333                 2
    61    60    62    79     4    180.000000000000      1.534133333333                 2
    10    11    33     9     4    180.000000000000      1.534133333333                 2
   150   151   168   149     4    180.000000000000      1.534133333333                 2
   142   141   143   165     4    180.000000000000      1.534133333333                 2
    22    20    41    56     4    180.000000000000      1.394666666667                 2
     7     6     8    14     4    180.000000000000      1.534133333333                 2
   138   147   137   139     4    180.000000000000      1.534133333333                 2
     7    14     6     8     4    180.000000000000      1.534133333333                 2
   155   151   156   174     4    180.000000000000      1.534133333333                 2
   103    94   104   113     4    180.000000000000      1.534133333333                 2
   149   148   150   167     4    180.000000000000      1.534133333333                 2
   150   168   149   151     4    180.000000000000      1.534133333333                 2
    55    54    56    58     4    180.000000000000      1.534133333333                 2
    19    23    18    20     4    180.000000000000      1.534133333333                 2
    60    68    59    61     4    180.000000000000      1.534133333333                 2
    17    16    18    35     4    180.000000000000      1.534133333333                 2
    99    98   100   102     4    180.000000000000      1.534133333333                 2
   104   112   103   105     4    180.000000000000      1.534133333333                 2
    53    76    52    54     4    180.000000000000      1.534133333333                 2
     9    10    32     8     4    180.000000000000      1.534133333333                 2
   141   140   142   164     4    180.000000000000      1.534133333333                 2
    53    54    76    52     4    180.000000000000      1.534133333333                 2
   102    95    99   122     4    180.000000000000      1.534133333333                 2
     3     2     4    25     4    180.000000000000      1.534133333333                 2
   107   108   111   106     4    180.000000000000      1.534133333333                 2
   154   152   173   187     4    180.000000000000      1.394666666667                 2
    69    88    47    59     4    180.000000000000      1.534133333333                 2
   148   147   149   156     4    180.000000000000      1.534133333333                 2
    55    56    58    54     4    180.000000000000      1.534133333333                 2
    50    49    51    59     4    180.000000000000      1.534133333333                 2
    49    50    74    48     4    180.000000000000      1.534133333333                 2
   100    99   101    66     4    180.000000000000      1.534133333333                 2
   187   188   154   186     4    180.000000000000     14.644000000000                 2
   157   135   147   176     4    180.000000000000      1.534133333333                 2
    98    97    99   121     4    180.000000000000      1.534133333333                 2
    19    20    23    18     4    180.000000000000      1.534133333333                 2
    96    97   119    95     4    180.000000000000      1.534133333333                 2
    14     7    11    34     4    180.000000000000      1.534133333333                 2
     8     9    31     7     4    180.000000000000      1.534133333333                 2
    14    34     7    11     4    180.000000000000      1.534133333333                 2
    56    57    22    55     4    180.000000000000      1.534133333333                 2
   156   155   175   148     4    180.000000000000      1.534133333333                 2
     9     8    10    32     4    180.000000000000      1.534133333333                 2
    93    92    94   118     4    180.000000000000      1.534133333333                 2
   142   143   165   141     4    180.000000000000      1.534133333333                 2
    67    68    86    63     4    180.000000000000      1.534133333333                 2
    96   119    95    97     4    180.000000000000      1.534133333333                 2
    51    58    50    52     4    180.000000000000      1.534133333333                 2
    58    78    51    55     4    180.000000000000      1.534133333333                 2
    54    55    77    53     4    180.000000000000      1.534133333333                 2
   103   104   113    94     4    180.000000000000      1.534133333333                 2
    17    18    35    16     4    180.000000000000      1.534133333333                 2
    15     6    16    25     4    180.000000000000      1.534133333333                 2
    56    22    55    57     4    180.000000000000      1.534133333333                 2
    93    94   118    92     4    180.000000000000      1.534133333333                 2
    98   121    97    99     4    180.000000000000      1.534133333333                 2
   113    91   103   132     4    180.000000000000      1.534133333333                 2
    61    79    60    62     4    180.000000000000      1.534133333333                 2
    58    55    78    51     4    180.000000000000      1.534133333333                 2
   137   138   162   136     4    180.000000000000      1.534133333333                 2
    53    52    54    76     4    180.000000000000      1.534133333333                 2
    24    23    43    16     4    180.000000000000      1.534133333333                 2
    96    95    97   119     4    180.000000000000      1.534133333333                 2
   135   157   134   136     4    180.000000000000      1.534133333333                 2
    24    43    16    23     4    180.000000000000      1.534133333333                 2
    23    19    24    42     4    180.000000000000      1.534133333333                 2
    54    77    53    55     4    180.000000000000      1.534133333333                 2
   113   132    91   103     4    180.000000000000      1.534133333333                 2
    91   113    90    92     4    180.000000000000      1.534133333333                 2
     8     7     9    31     4    180.000000000000      1.534133333333                 2
   102   122    95    99     4    180.000000000000      1.534133333333                 2
     3     4    25     2     4    180.000000000000      1.534133333333                 2
    11    12    14    10     4    180.000000000000      1.534133333333                 2
   151   152   155   150     4    180.000000000000      1.534133333333                 2
   146   143   166   139     4    180.000000000000      1.534133333333                 2
   155   156   174   151     4    180.000000000000      1.534133333333                 2
   136   137   161   135     4    180.000000000000      1.534133333333                 2
   137   136   138   162     4    180.000000000000      1.534133333333                 2
    48    73    47    49     4    180.000000000000      1.534133333333                 2
    92    93   117    91     4    180.000000000000      1.534133333333                 2
    25    44     3    15     4    180.000000000000      1.534133333333                 2
   107   111   106   108     4    180.000000000000      1.534133333333                 2
    18    17    19    36     4    180.000000000000      1.534133333333                 2
    68    87    60    67     4    180.000000000000      1.534133333333                 2
     4    29     3     5     4    180.000000000000      1.534133333333                 2
   156   175   148   155     4    180.000000000000      1.534133333333                 2
   105   123   104   106     4    180.000000000000      1.534133333333                 2
    69    47    59    88     4    180.000000000000      1.534133333333                 2
    17    35    16    18     4    180.000000000000      1.534133333333                 2
   140   139   141   163     4    180.000000000000      1.534133333333                 2
    68    67    87    60     4    180.000000000000      1.534133333333                 2
    51    52    58    50     4    180.000000000000      1.534133333333                 2
    94    93    95   103     4    180.000000000000      1.534133333333                 2
    95    96   102    94     4    180.000000000000      1.534133333333                 2
   141   142   164   140     4    180.000000000000      1.534133333333                 2
    66    85   100    64     4    180.000000000000      1.394666666667                 2
   147   148   157   138     4    180.000000000000      1.534133333333                 2
    15    25     6    16     4    180.000000000000      1.534133333333                 2
    62    63    80    61     4    180.000000000000      1.534133333333                 2
    52    75    51    53     4    180.000000000000      1.534133333333                 2
    52    53    75    51     4    180.000000000000      1.534133333333                 2
    47    46    48    69     4    180.000000000000      1.534133333333                 2
    63    67    62    64     4    180.000000000000      1.534133333333                 2
   106   107   124   105     4    180.000000000000      1.534133333333                 2
   155   174   151   156     4    180.000000000000      1.534133333333                 2
   143   146   142   144     4    180.000000000000      1.534133333333                 2
   144   110   143   145     4    180.000000000000      1.534133333333                 2
    95   102    94    96     4    180.000000000000      1.534133333333                 2
   144   145   110   143     4    180.000000000000      1.534133333333                 2
     4     3     5    29     4    180.000000000000      1.534133333333                 2
    54    53    55    77     4    180.000000000000      1.534133333333                 2
    52    51    53    75     4    180.000000000000      1.534133333333                 2
   151   155   150   152     4    180.000000000000      1.534133333333                 2
   138   139   147   137     4    180.000000000000      1.534133333333                 2
    10    33     9    11     4    180.000000000000      1.534133333333                 2
    12   178    11    13     4    180.000000000000     14.644000000000                 2
   112   104   111   131     4    180.000000000000      1.534133333333                 2
   136   161   135   137     4    180.000000000000      1.534133333333                 2
   144   143   145   110     4    180.000000000000      1.534133333333                 2
    24    16    23    43     4    180.000000000000      1.534133333333                 2
   100    66    99   101     4    180.000000000000      1.534133333333                 2
   148   149   156   147     4    180.000000000000      1.534133333333                 2
    18    19    36    17     4    180.000000000000      1.534133333333                 2
    92   117    91    93     4    180.000000000000      1.534133333333                 2
    48    49    73    47     4    180.000000000000      1.534133333333                 2
    23    24    42    19     4    180.000000000000      1.534133333333                 2
   105   104   106   123     4    180.000000000000      1.534133333333                 2
    67    86    63    68     4    180.000000000000      1.534133333333                 2
   154   187   152   173     4    180.000000000000      1.394666666667                 2
     8    31     7     9     4    180.000000000000      1.534133333333                 2
    18    36    17    19     4    180.000000000000      1.534133333333                 2
    95    94    96   102     4    180.000000000000      1.534133333333                 2
   112   111   131   104     4    180.000000000000      1.534133333333                 2
    16    24    15    17     4    180.000000000000      1.534133333333                 2
   139   146   138   140     4    180.000000000000      1.534133333333                 2
    48    47    49    73     4    180.000000000000      1.534133333333                 2
    25     3    15    44     4    180.000000000000      1.534133333333                 2
   149   167   148   150     4    180.000000000000      1.534133333333                 2
    94   103    93    95     4    180.000000000000      1.534133333333                 2
    97   120    96    98     4    180.000000000000      1.534133333333                 2
    63    62    64    67     4    180.000000000000      1.534133333333                 2
    16    17    24    15     4    180.000000000000      1.534133333333                 2
    10     9    11    33     4    180.000000000000      1.534133333333                 2
   151   150   152   155     4    180.000000000000      1.534133333333                 2
   148   156   147   149     4    180.000000000000      1.534133333333                 2
   143   144   146   142     4    180.000000000000      1.534133333333                 2
   102    99   122    95     4    180.000000000000      1.534133333333                 2
   110   108   129   144     4    180.000000000000      1.394666666667                 2
    19    18    20    23     4    180.000000000000      1.534133333333                 2
     7     8    14     6     4    180.000000000000      1.534133333333                 2
    63    64    67    62     4    180.000000000000      1.534133333333                 2
   142   165   141   143     4    180.000000000000      1.534133333333                 2
    94    95   103    93     4    180.000000000000      1.534133333333                 2
    55    58    54    56     4    180.000000000000      1.534133333333                 2
   113   103   132    91     4    180.000000000000      1.534133333333                 2
     9    32     8    10     4    180.000000000000      1.534133333333                 2
     6     5     7    15     4    180.000000000000      1.534133333333                 2
   104   105   112   103     4    180.000000000000      1.534133333333                 2
   140   141   163   139     4    180.000000000000      1.534133333333                 2
   139   138   140   146     4    180.000000000000      1.534133333333                 2
    62    61    63    80     4    180.000000000000      1.534133333333                 2
    59    60    69    50     4    180.000000000000      1.534133333333                 2
   147   138   148   157     4    180.000000000000      1.534133333333                 2
   107   106   108   111     4    180.000000000000      1.534133333333                 2
    98    99   121    97     4    180.000000000000      1.534133333333                 2
    66   100    64    85     4    180.000000000000      1.394666666667                 2
   140   163   139   141     4    180.000000000000      1.534133333333                 2
    58    51    55    78     4    180.000000000000      1.534133333333                 2
    66    64    85   100     4    180.000000000000      1.394666666667                 2
    59    50    60    69     4    180.000000000000      1.534133333333                 2
    97    96    98   120     4    180.000000000000      1.534133333333                 2
    11    10    12    14     4    180.000000000000      1.534133333333                 2
   146   139   143   166     4    180.000000000000      1.534133333333                 2
     5     4     6    30     4    180.000000000000      1.534133333333                 2
    14    11    34     7     4    180.000000000000      1.534133333333                 2
    68    60    67    87     4    180.000000000000      1.534133333333                 2
    15    16    25     6     4    180.000000000000      1.534133333333                 2
    99   102    98   100     4    180.000000000000      1.534133333333                 2
   157   147   176   135     4    180.000000000000      1.534133333333                 2
   156   148   155   175     4    180.000000000000      1.534133333333                 2
    16    15    17    24     4    180.000000000000      1.534133333333                 2
    25    15    44     3     4    180.000000000000      1.534133333333                 2
    12    11    13   178     4    180.000000000000     14.644000000000                 2
   111   107   112   130     4    180.000000000000      1.534133333333                 2
   111   130   107   112     4    180.000000000000      1.534133333333                 2
    60    61    68    59     4    180.000000000000      1.534133333333                 2
    49    48    50    74     4    180.000000000000      1.534133333333                 2
    22    41    56    20     4    180.000000000000      1.394666666667                 2
   137   162   136   138     4    180.000000000000      1.534133333333                 2
   105   106   123   104     4    180.000000000000      1.534133333333                 2
     5     6    30     4     4    180.000000000000      1.534133333333                 2
   187   154   186   188     4    180.000000000000     14.644000000000                 2
     4     5    29     3     4    180.000000000000      1.534133333333                 2
    91    90    92   113     4    180.000000000000      1.534133333333                 2
    97    98   120    96     4    180.000000000000      1.534133333333                 2
    67    63    68    86     4    180.000000000000      1.534133333333                 2
   143   142   144   146     4    180.000000000000      1.534133333333                 2
    62    80    61    63     4    180.000000000000      1.534133333333                 2
     3    25     2     4     4    180.000000000000      1.534133333333                 2
   110   144   108   129     4    180.000000000000      1.394666666667                 2
   141   164   140   142     4    180.000000000000      1.534133333333                 2
   136   135   137   161     4    180.000000000000      1.534133333333                 2
   106   105   107   124     4    180.000000000000      1.534133333333                 2
    99   100   102    98     4    180.000000000000      1.534133333333                 2
    50    59    49    51     4    180.000000000000      1.534133333333                 2
    47    48    69    46     4    180.000000000000      1.534133333333                 2
    22    56    20    41     4    180.000000000000      1.394666666667                 2
     6     7    15     5     4    180.000000000000      1.534133333333                 2
   106   124   105   107     4    180.000000000000      1.534133333333                 2
    91    92   113    90     4    180.000000000000      1.534133333333                 2
    61    62    79    60     4    180.000000000000      1.534133333333                 2
    47    69    46    48     4    180.000000000000      1.534133333333                 2
    23    42    19    24     4    180.000000000000      1.534133333333                 2
   157   176   135   147     4    180.000000000000      1.534133333333                 2
    51    50    52    58     4    180.000000000000      1.534133333333                 2
   154   173   187   152     4    180.000000000000      1.394666666667                 2
   135   134   136   157     4    180.000000000000      1.534133333333                 2

[ settles ]
;i  funct   dOH  dHH


[ exclusions ]
;ai    aj

[ moleculetype ]
MOL1	         3

[ atoms ]
;index, atom type, resnum, resname, name, cgnr, charge, mass
     1 MOL1_0       2 MOL1     Cl         1     -0.113980001211     35.453200000000
     2 MOL1_1       2 MOL1     C          1      0.223370002210     12.010780000000
     3 MOL1_2       2 MOL1     Cl         1     -0.113980001211     35.453200000000
     4 MOL1_3       2 MOL1     Cl         1     -0.113980001211     35.453200000000
     5 MOL1_4       2 MOL1     H          1      0.118570001423      1.007947000000

[ pairs ]
;ai    aj   funct

[ bonds ]
;ai    aj   funct r k
     1      2      1      0.179147538137  144269.526418976020 
     2      3      1      0.179147538137  144269.526418976020 
     2      4      1      0.179147538137  144269.526418976020 
     2      5      1      0.109389949263  309655.084322414012 

[ angles ]
;ai    aj   ak   funct theta  k
     1      2      3      1     116.547586263400     445.222086509286 
     3      2      4      1     116.547586263400     445.222086509286 
     1      2      5      1     116.547586263400     445.222086509286 
     4      2      5      1     116.547586263400     445.222086509286 
     1      2      4      1     116.547586263400     445.222086509286 
     3      2      5      1     116.547586263400     445.222086509286 

[ dihedrals ]
;ai    aj   ak   al   funct phi  k

[ settles ]
;i  funct   dOH  dHH


[ exclusions ]
;ai    aj


[ system ]
;name
FOO

[ molecules ]
;name	number
pom_tetramer.pdb	1
MOL1	634

