Generated by Interchange
373
    1MOM     C1    1  -0.262   0.546   0.090
    1MOM     O2    2  -0.149   0.466   0.057
    1MOM     C3    3  -0.170   0.332   0.045
    1MOM     C4    4  -0.291   0.266   0.062
    1MOM     C5    5  -0.296   0.127   0.049
    1MOM     C6    6  -0.182   0.051   0.017
    1MOM     C7    7  -0.195  -0.097   0.012
    1MOM     C8    8  -0.288  -0.159  -0.073
    1MOM     C9    9  -0.300  -0.299  -0.076
    1MOM    C10   10  -0.409  -0.358  -0.159
    1MOM    O11   11  -0.482  -0.292  -0.231
    1MOM    C12   12  -0.214  -0.378   0.002
    1MOM    C13   13  -0.122  -0.317   0.087
    1MOM    C14   14  -0.114  -0.178   0.092
    1MOM    C15   15  -0.059   0.118  -0.005
    1MOM    C16   16   0.064   0.048  -0.048
    1MOM    C17   17   0.184   0.056   0.025
    1MOM    C18   18   0.296  -0.024  -0.007
    1MOM    C19   19   0.422  -0.016   0.080
    1MOM    C20   20   0.445  -0.146   0.157
    1MOM    N21   21   0.546   0.030   0.016
    1MOM    C22   22   0.283  -0.116  -0.110
    1MOM    C23   23   0.169  -0.119  -0.190
    1MOM    C24   24   0.061  -0.036  -0.161
    1MOM    C25   25  -0.055   0.258   0.012
    1MOM    H26   26  -0.304   0.517   0.186
    1MOM    H27   27  -0.337   0.541   0.010
    1MOM    H28   28  -0.229   0.650   0.098
    1MOM    H29   29  -0.383   0.318   0.086
    1MOM    H30   30  -0.392   0.076   0.065
    1MOM    H31   31  -0.353  -0.099  -0.136
    1MOM    H32   32  -0.220  -0.486  -0.002
    1MOM    H33   33  -0.056  -0.378   0.149
    1MOM    H34   34  -0.041  -0.133   0.160
    1MOM    H35   35   0.190   0.123   0.110
    1MOM    H36   36   0.403   0.062   0.155
    1MOM    H37   37   0.530  -0.134   0.226
    1MOM    H38   38   0.357  -0.173   0.216
    1MOM    H39   39   0.468  -0.230   0.091
    1MOM    H40   40   0.607   0.075   0.082
    1MOM    H41   41   0.363  -0.187  -0.133
    1MOM    H42   42   0.163  -0.189  -0.273
    1MOM    H43   43  -0.028  -0.041  -0.223
    1MOM    H44   44   0.038   0.311  -0.003
    2MOM    C45   45   1.123  -0.649  -0.603
    2MOM    O46   46   1.118  -0.668  -0.462
    2MOM    C47   47   1.067  -0.566  -0.387
    2MOM    C48   48   1.020  -0.445  -0.438
    2MOM    C49   49   0.972  -0.346  -0.352
    2MOM    C50   50   0.970  -0.364  -0.212
    2MOM    C51   51   0.922  -0.252  -0.127
    2MOM    C52   52   0.795  -0.195  -0.144
    2MOM    C53   53   0.748  -0.091  -0.061
    2MOM    C54   54   0.608  -0.043  -0.084
    2MOM    O55   55   0.553  -0.076  -0.189
    2MOM    C56   56   0.830  -0.043   0.042
    2MOM    C57   57   0.957  -0.098   0.060
    2MOM    C58   58   1.003  -0.200  -0.024
    2MOM    C59   59   1.014  -0.489  -0.160
    2MOM    C60   60   1.008  -0.521  -0.016
    2MOM    C61   61   1.123  -0.553   0.057
    2MOM    C62   62   1.119  -0.568   0.197
    2MOM    C63   63   1.247  -0.595   0.276
    2MOM    C64   64   1.286  -0.475   0.363
    2MOM    N65   65   1.256  -0.719   0.353
    2MOM    C66   66   0.997  -0.547   0.261
    2MOM    C67   67   0.880  -0.523   0.190
    2MOM    C68   68   0.885  -0.512   0.052
    2MOM    C69   69   1.063  -0.587  -0.250
    2MOM    H70   70   1.185  -0.562  -0.629
    2MOM    H71   71   1.022  -0.639  -0.644
    2MOM    H72   72   1.169  -0.737  -0.648
    2MOM    H73   73   1.019  -0.424  -0.544
    2MOM    H74   74   0.938  -0.252  -0.394
    2MOM    H75   75   0.729  -0.234  -0.222
    2MOM    H76   76   0.800   0.036   0.109
    2MOM    H77   77   1.021  -0.062   0.140
    2MOM    H78   78   1.102  -0.240  -0.007
    2MOM    H79   79   1.218  -0.562   0.004
    2MOM    H80   80   1.328  -0.606   0.202
    2MOM    H81   81   1.381  -0.495   0.414
    2MOM    H82   82   1.299  -0.385   0.302
    2MOM    H83   83   1.212  -0.454   0.441
    2MOM    H84   84   1.353  -0.744   0.368
    2MOM    H85   85   0.989  -0.551   0.369
    2MOM    H86   86   0.786  -0.510   0.242
    2MOM    H87   87   0.793  -0.491  -0.003
    2MOM    H88   88   1.097  -0.683  -0.211
    3MOM    C89   89   0.730  -0.835   1.290
    3MOM    O90   90   0.844  -0.751   1.281
    3MOM    C91   91   0.921  -0.764   1.168
    3MOM    C92   92   0.894  -0.848   1.061
    3MOM    C93   93   0.982  -0.854   0.953
    3MOM    C94   94   1.098  -0.774   0.948
    3MOM    C95   95   1.190  -0.790   0.832
    3MOM    C96   96   1.144  -0.772   0.701
    3MOM    C97   97   1.230  -0.783   0.590
    3MOM    C98   98   1.170  -0.751   0.457
    3MOM    O99   99   1.048  -0.751   0.448
    3MOM   C100  100   1.364  -0.815   0.610
    3MOM   C101  101   1.412  -0.834   0.740
    3MOM   C102  102   1.325  -0.823   0.850
    3MOM   C103  103   1.123  -0.683   1.055
    3MOM   C104  104   1.236  -0.588   1.053
    3MOM   C105  105   1.335  -0.587   1.154
    3MOM   C106  106   1.449  -0.506   1.144
    3MOM   C107  107   1.558  -0.514   1.250
    3MOM   C108  108   1.687  -0.575   1.194
    3MOM   N109  109   1.588  -0.392   1.327
    3MOM   C110  110   1.464  -0.428   1.028
    3MOM   C111  111   1.364  -0.423   0.931
    3MOM   C112  112   1.250  -0.500   0.945
    3MOM   C113  113   1.034  -0.682   1.164
    3MOM   H114  114   0.757  -0.941   1.287
    3MOM   H115  115   0.657  -0.811   1.212
    3MOM   H116  116   0.682  -0.816   1.387
    3MOM   H117  117   0.806  -0.912   1.058
    3MOM   H118  118   0.961  -0.923   0.872
    3MOM   H119  119   1.040  -0.744   0.685
    3MOM   H120  120   1.435  -0.826   0.529
    3MOM   H121  121   1.516  -0.858   0.756
    3MOM   H122  122   1.365  -0.838   0.950
    3MOM   H123  123   1.324  -0.655   1.238
    3MOM   H124  124   1.523  -0.584   1.327
    3MOM   H125  125   1.762  -0.587   1.273
    3MOM   H126  126   1.668  -0.674   1.150
    3MOM   H127  127   1.731  -0.511   1.117
    3MOM   H128  128   1.628  -0.415   1.417
    3MOM   H129  129   1.554  -0.370   1.011
    3MOM   H130  130   1.377  -0.360   0.843
    3MOM   H131  131   1.174  -0.496   0.868
    3MOM   H132  132   1.051  -0.613   1.247
    4MOM   C133  133   2.158   0.419   0.890
    4MOM   O134  134   2.223   0.299   0.933
    4MOM   C135  135   2.150   0.214   1.011
    4MOM   C136  136   2.017   0.231   1.047
    4MOM   C137  137   1.954   0.139   1.131
    4MOM   C138  138   2.021   0.024   1.179
    4MOM   C139  139   1.950  -0.066   1.272
    4MOM   C140  140   1.827  -0.124   1.238
    4MOM   C141  141   1.759  -0.214   1.323
    4MOM   C142  142   1.633  -0.274   1.270
    4MOM   O143  143   1.579  -0.219   1.175
    4MOM   C144  144   1.816  -0.246   1.447
    4MOM   C145  145   1.938  -0.189   1.484
    4MOM   C146  146   2.003  -0.099   1.398
    4MOM   C147  147   2.156   0.002   1.136
    4MOM   C148  148   2.230  -0.121   1.171
    4MOM   C149  149   2.353  -0.117   1.241
    4MOM   C150  150   2.415  -0.235   1.288
    4MOM   C151  151   2.543  -0.227   1.371
    4MOM   C152  152   2.518  -0.270   1.516
    4MOM   N153  153   2.664  -0.293   1.319
    4MOM   C154  154   2.349  -0.356   1.267
    4MOM   C155  155   2.233  -0.363   1.189
    4MOM   C156  156   2.176  -0.246   1.140
    4MOM   C157  157   2.218   0.099   1.054
    4MOM   H158  158   2.129   0.481   0.976
    4MOM   H159  159   2.073   0.397   0.826
    4MOM   H160  160   2.230   0.476   0.831
    4MOM   H161  161   1.959   0.318   1.015
    4MOM   H162  162   1.851   0.158   1.162
    4MOM   H163  163   1.784  -0.102   1.139
    4MOM   H164  164   1.769  -0.313   1.517
    4MOM   H165  165   1.984  -0.215   1.579
    4MOM   H166  166   2.098  -0.057   1.429
    4MOM   H167  167   2.398  -0.021   1.262
    4MOM   H168  168   2.572  -0.122   1.375
    4MOM   H169  169   2.608  -0.252   1.577
    4MOM   H170  170   2.436  -0.212   1.561
    4MOM   H171  171   2.493  -0.376   1.525
    4MOM   H172  172   2.747  -0.251   1.359
    4MOM   H173  173   2.387  -0.449   1.309
    4MOM   H174  174   2.187  -0.459   1.168
    4MOM   H175  175   2.085  -0.253   1.080
    4MOM   H176  176   2.321   0.085   1.023
    5MOM   C177  177   2.792  -1.371   1.336
    5MOM   O178  178   2.809  -1.292   1.453
    5MOM   C179  179   2.819  -1.156   1.436
    5MOM   C180  180   2.812  -1.088   1.316
    5MOM   C181  181   2.828  -0.948   1.313
    5MOM   C182  182   2.848  -0.873   1.430
    5MOM   C183  183   2.869  -0.726   1.418
    5MOM   C184  184   2.773  -0.645   1.357
    5MOM   C185  185   2.788  -0.505   1.348
    5MOM   C186  186   2.674  -0.428   1.290
    5MOM   O187  187   2.592  -0.490   1.224
    5MOM   C188  188   2.903  -0.446   1.402
    5MOM   C189  189   2.999  -0.525   1.465
    5MOM   C190  190   2.983  -0.664   1.471
    5MOM   C191  191   2.847  -0.942   1.555
    5MOM   C192  192   2.855  -0.871   1.684
    5MOM   C193  193   2.959  -0.897   1.776
    5MOM   C194  194   2.976  -0.818   1.891
    5MOM   C195  195   3.096  -0.840   1.983
    5MOM   C196  196   3.195  -0.724   1.977
    5MOM   N197  197   3.070  -0.876   2.124
    5MOM   C198  198   2.888  -0.711   1.909
    5MOM   C199  199   2.778  -0.691   1.826
    5MOM   C200  200   2.761  -0.771   1.715
    5MOM   C201  201   2.835  -1.083   1.555
    5MOM   H202  202   2.878  -1.360   1.269
    5MOM   H203  203   2.698  -1.346   1.285
    5MOM   H204  204   2.787  -1.476   1.366
    5MOM   H205  205   2.795  -1.139   1.222
    5MOM   H206  206   2.823  -0.897   1.216
    5MOM   H207  207   2.681  -0.691   1.318
    5MOM   H208  208   2.921  -0.339   1.398
    5MOM   H209  209   3.086  -0.479   1.510
    5MOM   H210  210   3.060  -0.723   1.520
    5MOM   H211  211   3.030  -0.975   1.753
    5MOM   H212  212   3.149  -0.929   1.947
    5MOM   H213  213   3.281  -0.742   2.042
    5MOM   H214  214   3.234  -0.710   1.875
    5MOM   H215  215   3.149  -0.630   2.008
    5MOM   H216  216   3.148  -0.924   2.164
    5MOM   H217  217   2.903  -0.639   1.990
    5MOM   H218  218   2.708  -0.610   1.847
    5MOM   H219  219   2.677  -0.751   1.648
    5MOM   H220  220   2.836  -1.136   1.650
    6MOM   C221  221   2.725  -0.149   2.850
    6MOM   O222  222   2.861  -0.156   2.810
    6MOM   C223  223   2.900  -0.269   2.743
    6MOM   C224  224   2.819  -0.376   2.708
    6MOM   C225  225   2.873  -0.486   2.640
    6MOM   C226  226   3.010  -0.491   2.605
    6MOM   C227  227   3.062  -0.612   2.537
    6MOM   C228  228   3.007  -0.656   2.415
    6MOM   C229  229   3.059  -0.767   2.345
    6MOM   C230  230   2.998  -0.796   2.213
    6MOM   O231  231   2.889  -0.744   2.186
    6MOM   C232  232   3.168  -0.836   2.400
    6MOM   C233  233   3.222  -0.795   2.522
    6MOM   C234  234   3.169  -0.686   2.590
    6MOM   C235  235   3.092  -0.379   2.636
    6MOM   C236  236   3.234  -0.370   2.594
    6MOM   C237  237   3.339  -0.355   2.687
    6MOM   C238  238   3.474  -0.363   2.648
    6MOM   C239  239   3.585  -0.358   2.752
    6MOM   C240  240   3.657  -0.492   2.764
    6MOM   N241  241   3.685  -0.250   2.743
    6MOM   C242  242   3.501  -0.390   2.513
    6MOM   C243  243   3.400  -0.396   2.418
    6MOM   C244  244   3.267  -0.385   2.458
    6MOM   C245  245   3.035  -0.270   2.706
    6MOM   H246  246   2.697  -0.234   2.915
    6MOM   H247  247   2.659  -0.143   2.763
    6MOM   H248  248   2.712  -0.057   2.909
    6MOM   H249  249   2.713  -0.378   2.732
    6MOM   H250  250   2.808  -0.569   2.614
    6MOM   H251  251   2.925  -0.600   2.371
    6MOM   H252  252   3.212  -0.921   2.350
    6MOM   H253  253   3.307  -0.849   2.564
    6MOM   H254  254   3.213  -0.656   2.685
    6MOM   H255  255   3.314  -0.341   2.792
    6MOM   H256  256   3.538  -0.339   2.849
    6MOM   H257  257   3.729  -0.490   2.847
    6MOM   H258  258   3.586  -0.574   2.782
    6MOM   H259  259   3.714  -0.516   2.674
    6MOM   H260  260   3.727  -0.233   2.833
    6MOM   H261  261   3.603  -0.407   2.479
    6MOM   H262  262   3.425  -0.411   2.314
    6MOM   H263  263   3.189  -0.393   2.383
    6MOM   H264  264   3.096  -0.183   2.730
    7MOM   C265  265   4.473  -0.244   2.000
    7MOM   O266  266   4.484  -0.323   2.118
    7MOM   C267  267   4.395  -0.296   2.219
    7MOM   C268  268   4.295  -0.199   2.216
    7MOM   C269  269   4.213  -0.181   2.328
    7MOM   C270  270   4.227  -0.259   2.444
    7MOM   C271  271   4.139  -0.229   2.560
    7MOM   C272  272   4.000  -0.235   2.548
    7MOM   C273  273   3.914  -0.213   2.658
    7MOM   C274  274   3.768  -0.230   2.634
    7MOM   O275  275   3.730  -0.229   2.518
    7MOM   C276  276   3.970  -0.183   2.783
    7MOM   C277  277   4.109  -0.175   2.796
    7MOM   C278  278   4.192  -0.197   2.686
    7MOM   C279  279   4.326  -0.361   2.446
    7MOM   C280  280   4.342  -0.453   2.561
    7MOM   C281  281   4.464  -0.463   2.631
    7MOM   C282  282   4.476  -0.538   2.750
    7MOM   C283  283   4.607  -0.540   2.826
    7MOM   C284  284   4.593  -0.470   2.962
    7MOM   N285  285   4.676  -0.668   2.842
    7MOM   C286  286   4.360  -0.600   2.799
    7MOM   C287  287   4.241  -0.599   2.727
    7MOM   C288  288   4.232  -0.527   2.608
    7MOM   C289  289   4.409  -0.376   2.333
    7MOM   H290  290   4.485  -0.138   2.022
    7MOM   H291  291   4.378  -0.263   1.949
    7MOM   H292  292   4.553  -0.274   1.931
    7MOM   H293  293   4.279  -0.135   2.131
    7MOM   H294  294   4.137  -0.102   2.324
    7MOM   H295  295   3.956  -0.260   2.452
    7MOM   H296  296   3.909  -0.165   2.871
    7MOM   H297  297   4.153  -0.151   2.893
    7MOM   H298  298   4.300  -0.190   2.700
    7MOM   H299  299   4.551  -0.409   2.594
    7MOM   H300  300   4.679  -0.480   2.769
    7MOM   H301  301   4.690  -0.465   3.013
    7MOM   H302  302   4.556  -0.367   2.950
    7MOM   H303  303   4.524  -0.522   3.029
    7MOM   H304  304   4.775  -0.654   2.856
    7MOM   H305  305   4.361  -0.654   2.893
    7MOM   H306  306   4.155  -0.654   2.764
    7MOM   H307  307   4.138  -0.525   2.555
    7MOM   H308  308   4.486  -0.453   2.333
    8MOM   C309  309   4.308  -1.406   3.541
    8MOM   O310  310   4.385  -1.296   3.587
    8MOM   C311  311   4.451  -1.223   3.492
    8MOM   C312  312   4.450  -1.247   3.355
    8MOM   C313  313   4.524  -1.166   3.268
    8MOM   C314  314   4.601  -1.057   3.316
    8MOM   C315  315   4.682  -0.978   3.220
    8MOM   C316  316   4.623  -0.918   3.108
    8MOM   C317  317   4.697  -0.841   3.016
    8MOM   C318  318   4.620  -0.777   2.905
    8MOM   O319  319   4.510  -0.823   2.879
    8MOM   C320  320   4.834  -0.823   3.037
    8MOM   C321  321   4.895  -0.882   3.148
    8MOM   C322  322   4.820  -0.959   3.238
    8MOM   C323  323   4.598  -1.030   3.455
    8MOM   C324  324   4.665  -0.914   3.515
    8MOM   C325  325   4.766  -0.930   3.613
    8MOM   C326  326   4.836  -0.821   3.665
    8MOM   C327  327   4.950  -0.841   3.764
    8MOM   C328  328   5.086  -0.830   3.695
    8MOM   N329  329   4.937  -0.760   3.886
    8MOM   C330  330   4.803  -0.694   3.615
    8MOM   C331  331   4.702  -0.675   3.521
    8MOM   C332  332   4.633  -0.784   3.472
    8MOM   C333  333   4.524  -1.115   3.541
    8MOM   H334  334   4.372  -1.480   3.490
    8MOM   H335  335   4.227  -1.372   3.477
    8MOM   H336  336   4.264  -1.456   3.628
    8MOM   H337  337   4.392  -1.328   3.311
    8MOM   H338  338   4.523  -1.188   3.162
    8MOM   H339  339   4.515  -0.929   3.093
    8MOM   H340  340   4.895  -0.765   2.969
    8MOM   H341  341   5.001  -0.867   3.165
    8MOM   H342  342   4.871  -1.003   3.323
    8MOM   H343  343   4.791  -1.031   3.646
    8MOM   H344  344   4.942  -0.944   3.802
    8MOM   H345  345   5.168  -0.848   3.766
    8MOM   H346  346   5.095  -0.903   3.613
    8MOM   H347  347   5.103  -0.732   3.649
    8MOM   H348  348   4.997  -0.797   3.959
    8MOM   H349  349   4.857  -0.608   3.649
    8MOM   H350  350   4.680  -0.575   3.486
    8MOM   H351  351   4.556  -0.768   3.397
    8MOM   H352  352   4.522  -1.094   3.648
    9CAP   C353  353  -0.542  -0.551  -0.175
    9CAP   O354  354  -0.422  -0.490  -0.130
    9CAP   H355  355  -0.618  -0.540  -0.097
    9CAP   H356  356  -0.523  -0.658  -0.190
    9CAP   H357  357  -0.580  -0.509  -0.269
   10CAP   C358  358   5.212  -0.447   3.705
   10CAP   C359  359   5.083  -0.442   3.788
   10CAP   C360  360   5.107  -0.361   3.915
   10CAP   C361  361   4.972  -0.382   3.702
   10CAP   O362  362   5.055  -0.582   3.818
   10CAP   C363  363   4.948  -0.623   3.889
   10CAP   O364  364   4.872  -0.551   3.951
   10CAP   H365  365   5.245  -0.348   3.674
   10CAP   H366  366   5.293  -0.494   3.762
   10CAP   H367  367   5.199  -0.509   3.616
   10CAP   H368  368   5.182  -0.409   3.978
   10CAP   H369  369   5.017  -0.350   3.975
   10CAP   H370  370   5.142  -0.260   3.889
   10CAP   H371  371   4.960  -0.439   3.610
   10CAP   H372  372   4.875  -0.382   3.753
   10CAP   H373  373   4.994  -0.279   3.672
  5.0000000  5.0000000  5.0000000
