Generated by Interchange
3367
    1pom_t    C    1   1.248   3.780   0.718
    1pom_t    O    2   1.240   3.689   0.608
    1pom_t    C    3   1.358   3.655   0.547
    1pom_t    C    4   1.479   3.722   0.563
    1pom_t    C    5   1.596   3.670   0.508
    1pom_t    C    6   1.595   3.550   0.434
    1pom_t    C    7   1.722   3.495   0.380
    1pom_t    C    8   1.762   3.364   0.409
    1pom_t    C    9   1.866   3.303   0.339
    1pom_t    C   10   1.936   3.376   0.243
    1pom_t    C   11   1.907   3.511   0.223
    1pom_t    C   12   1.985   3.596   0.128
    1pom_t    O   13   1.950   3.710   0.094
    1pom_t    C   14   1.799   3.570   0.290
    1pom_t    C   15   1.471   3.485   0.412
    1pom_t    C   16   1.461   3.360   0.334
    1pom_t    C   17   1.444   3.236   0.398
    1pom_t    C   18   1.444   3.117   0.324
    1pom_t    C   19   1.449   3.119   0.185
    1pom_t    C   20   1.428   2.994   0.101
    1pom_t    C   21   1.527   2.882   0.133
    1pom_t    N   22   1.288   2.947   0.097
    1pom_t    C   23   1.471   3.242   0.121
    1pom_t    C   24   1.479   3.361   0.195
    1pom_t    C   25   1.354   3.539   0.469
    1pom_t    H   26   1.151   3.782   0.768
    1pom_t    H   27   1.323   3.748   0.792
    1pom_t    H   28   1.270   3.881   0.682
    1pom_t    H   29   1.487   3.812   0.623
    1pom_t    H   30   1.691   3.721   0.527
    1pom_t    H   31   1.707   3.304   0.481
    1pom_t    H   32   1.890   3.198   0.356
    1pom_t    H   33   2.012   3.324   0.185
    1pom_t    H   34   1.772   3.673   0.268
    1pom_t    H   35   1.430   3.232   0.505
    1pom_t    H   36   1.431   3.024   0.378
    1pom_t    H   37   1.447   3.022  -0.003
    1pom_t    H   38   1.515   2.799   0.063
    1pom_t    H   39   1.513   2.842   0.234
    1pom_t    H   40   1.630   2.918   0.125
    1pom_t    H   41   1.280   2.884   0.018
    1pom_t    H   42   1.483   3.248   0.013
    1pom_t    H   43   1.499   3.454   0.143
    1pom_t    H   44   1.259   3.487   0.457
    1pom_t    C   45   0.915   2.606   1.061
    1pom_t    O   46   1.030   2.690   1.049
    1pom_t    C   47   1.055   2.742   0.924
    1pom_t    C   48   0.996   2.699   0.806
    1pom_t    C   49   1.018   2.769   0.687
    1pom_t    C   50   1.100   2.884   0.682
    1pom_t    C   51   1.114   2.956   0.554
    1pom_t    C   52   1.081   3.092   0.541
    1pom_t    C   53   1.092   3.158   0.418
    1pom_t    C   54   1.136   3.088   0.305
    1pom_t    C   55   1.173   2.954   0.316
    1pom_t    C   56   1.231   2.878   0.203
    1pom_t    O   57   1.224   2.756   0.199
    1pom_t    C   58   1.159   2.888   0.439
    1pom_t    C   59   1.165   2.924   0.802
    1pom_t    C   60   1.256   3.039   0.807
    1pom_t    C   61   1.216   3.159   0.868
    1pom_t    C   62   1.304   3.267   0.876
    1pom_t    C   63   1.438   3.255   0.836
    1pom_t    C   64   1.540   3.365   0.856
    1pom_t    C   65   1.492   3.494   0.794
    1pom_t    N   66   1.588   3.386   0.993
    1pom_t    C   67   1.475   3.137   0.770
    1pom_t    C   68   1.385   3.031   0.754
    1pom_t    C   69   1.141   2.851   0.921
    1pom_t    H   70   0.897   2.589   1.168
    1pom_t    H   71   0.825   2.653   1.020
    1pom_t    H   72   0.934   2.509   1.014
    1pom_t    H   73   0.927   2.615   0.803
    1pom_t    H   74   0.966   2.737   0.597
    1pom_t    H   75   1.047   3.149   0.627
    1pom_t    H   76   1.069   3.264   0.410
    1pom_t    H   77   1.146   3.141   0.210
    1pom_t    H   78   1.187   2.783   0.447
    1pom_t    H   79   1.117   3.168   0.911
    1pom_t    H   80   1.268   3.359   0.921
    1pom_t    H   81   1.631   3.336   0.802
    1pom_t    H   82   1.570   3.571   0.797
    1pom_t    H   83   1.403   3.535   0.842
    1pom_t    H   84   1.468   3.472   0.691
    1pom_t    H   85   1.672   3.442   0.987
    1pom_t    H   86   1.575   3.126   0.728
    1pom_t    H   87   1.416   2.941   0.701
    1pom_t    H   88   1.187   2.885   1.014
    1pom_t    C   89   0.810   3.707   1.681
    1pom_t    O   90   0.778   3.645   1.557
    1pom_t    C   91   0.884   3.594   1.486
    1pom_t    C   92   1.018   3.619   1.511
    1pom_t    C   93   1.116   3.549   1.440
    1pom_t    C   94   1.084   3.453   1.342
    1pom_t    C   95   1.194   3.377   1.279
    1pom_t    C   96   1.199   3.236   1.282
    1pom_t    C   97   1.306   3.166   1.225
    1pom_t    C   98   1.410   3.236   1.165
    1pom_t    C   99   1.405   3.376   1.157
    1pom_t    C  100   1.508   3.453   1.085
    1pom_t    O  101   1.526   3.572   1.106
    1pom_t    C  102   1.299   3.445   1.216
    1pom_t    C  103   0.947   3.432   1.312
    1pom_t    C  104   0.902   3.337   1.209
    1pom_t    C  105   0.845   3.214   1.244
    1pom_t    C  106   0.800   3.126   1.146
    1pom_t    C  107   0.800   3.162   1.011
    1pom_t    C  108   0.737   3.076   0.903
    1pom_t    C  109   0.798   2.938   0.903
    1pom_t    N  110   0.590   3.069   0.900
    1pom_t    C  111   0.863   3.282   0.976
    1pom_t    C  112   0.916   3.367   1.073
    1pom_t    C  113   0.849   3.503   1.385
    1pom_t    H  114   0.717   3.727   1.734
    1pom_t    H  115   0.871   3.643   1.746
    1pom_t    H  116   0.860   3.803   1.664
    1pom_t    H  117   1.050   3.688   1.588
    1pom_t    H  118   1.221   3.567   1.466
    1pom_t    H  119   1.119   3.179   1.328
    1pom_t    H  120   1.306   3.058   1.224
    1pom_t    H  121   1.492   3.181   1.119
    1pom_t    H  122   1.296   3.554   1.209
    1pom_t    H  123   0.834   3.187   1.349
    1pom_t    H  124   0.759   3.030   1.179
    1pom_t    H  125   0.762   3.121   0.806
    1pom_t    H  126   0.762   2.878   0.818
    1pom_t    H  127   0.778   2.882   0.995
    1pom_t    H  128   0.905   2.951   0.894
    1pom_t    H  129   0.565   3.030   0.810
    1pom_t    H  130   0.873   3.310   0.871
    1pom_t    H  131   0.965   3.459   1.043
    1pom_t    H  132   0.744   3.483   1.366
    1pom_t    C  133   0.128   2.647   1.793
    1pom_t    O  134   0.252   2.717   1.800
    1pom_t    C  135   0.292   2.782   1.687
    1pom_t    C  136   0.223   2.788   1.566
    1pom_t    C  137   0.274   2.863   1.460
    1pom_t    C  138   0.396   2.934   1.471
    1pom_t    C  139   0.436   3.021   1.359
    1pom_t    C  140   0.449   3.160   1.377
    1pom_t    C  141   0.480   3.244   1.270
    1pom_t    C  142   0.498   3.191   1.143
    1pom_t    C  143   0.491   3.052   1.124
    1pom_t    C  144   0.523   2.992   0.993
    1pom_t    O  145   0.486   2.878   0.965
    1pom_t    C  146   0.459   2.968   1.231
    1pom_t    C  147   0.469   2.923   1.591
    1pom_t    C  148   0.595   2.994   1.614
    1pom_t    C  149   0.593   3.108   1.695
    1pom_t    C  150   0.710   3.178   1.719
    1pom_t    C  151   0.835   3.131   1.680
    1pom_t    C  152   0.963   3.200   1.723
    1pom_t    C  153   0.961   3.346   1.682
    1pom_t    N  154   1.002   3.190   1.864
    1pom_t    C  155   0.836   3.022   1.591
    1pom_t    C  156   0.717   2.956   1.557
    1pom_t    C  157   0.415   2.848   1.698
    1pom_t    H  158   0.109   2.603   1.891
    1pom_t    H  159   0.045   2.714   1.770
    1pom_t    H  160   0.134   2.566   1.720
    1pom_t    H  161   0.128   2.738   1.552
    1pom_t    H  162   0.216   2.870   1.368
    1pom_t    H  163   0.434   3.204   1.475
    1pom_t    H  164   0.493   3.351   1.287
    1pom_t    H  165   0.524   3.257   1.061
    1pom_t    H  166   0.452   2.861   1.215
    1pom_t    H  167   0.500   3.143   1.738
    1pom_t    H  168   0.702   3.272   1.772
    1pom_t    H  169   1.046   3.153   1.669
    1pom_t    H  170   1.059   3.393   1.698
    1pom_t    H  171   0.887   3.405   1.736
    1pom_t    H  172   0.937   3.349   1.576
    1pom_t    H  173   1.101   3.202   1.876
    1pom_t    H  174   0.930   2.989   1.546
    1pom_t    H  175   0.720   2.874   1.486
    1pom_t    H  176   0.468   2.843   1.793
    1pom_t    C  177   2.206   3.522   0.159
    1pom_t    O  178   2.091   3.532   0.075
    1pom_t    H  179   2.214   3.608   0.227
    1pom_t    H  180   2.296   3.519   0.096
    1pom_t    H  181   2.203   3.429   0.217
    1pom_t    C  182   0.576   3.268   2.023
    1pom_t    C  183   0.718   3.320   2.053
    1pom_t    C  184   0.723   3.469   2.017
    1pom_t    C  185   0.748   3.294   2.200
    1pom_t    O  186   0.806   3.245   1.966
    1pom_t    C  187   0.940   3.259   1.966
    1pom_t    O  188   1.005   3.327   2.045
    1pom_t    H  189   0.503   3.305   2.096
    1pom_t    H  190   0.542   3.300   1.924
    1pom_t    H  191   0.574   3.158   2.024
    1pom_t    H  192   0.708   3.484   1.909
    1pom_t    H  193   0.820   3.513   2.042
    1pom_t    H  194   0.645   3.525   2.070
    1pom_t    H  195   0.755   3.186   2.220
    1pom_t    H  196   0.844   3.338   2.230
    1pom_t    H  197   0.671   3.336   2.265
    2MOL1    Cl  198   4.177   0.394   2.690
    2MOL1     C  199   4.346   0.343   2.681
    2MOL1    Cl  200   4.390   0.301   2.515
    2MOL1    Cl  201   4.452   0.470   2.744
    2MOL1     H  202   4.358   0.254   2.744
    2MOL1    Cl  203   1.855   2.739   4.995
    2MOL1     C  204   1.712   2.709   4.895
    2MOL1    Cl  205   1.758   2.644   4.737
    2MOL1    Cl  206   1.601   2.598   4.978
    2MOL1     H  207   1.660   2.804   4.880
    2MOL1    Cl  208   1.794   2.549   1.011
    2MOL1     C  209   1.848   2.395   0.942
    2MOL1    Cl  210   1.883   2.278   1.070
    2MOL1    Cl  211   1.727   2.331   0.831
    2MOL1     H  212   1.940   2.413   0.886
    2MOL1    Cl  213   2.632   0.845   3.803
    2MOL1     C  214   2.600   0.672   3.782
    2MOL1    Cl  215   2.696   0.577   3.897
    2MOL1    Cl  216   2.427   0.638   3.803
    2MOL1     H  217   2.629   0.644   3.681
    2MOL1    Cl  218   2.340   1.730   2.732
    2MOL1     C  219   2.235   1.812   2.848
    2MOL1    Cl  220   2.076   1.733   2.855
    2MOL1    Cl  221   2.310   1.815   3.009
    2MOL1     H  222   2.221   1.915   2.815
    2MOL1    Cl  223   5.113   1.218   0.699
    2MOL1     C  224   5.044   1.276   0.547
    2MOL1    Cl  225   4.869   1.249   0.544
    2MOL1    Cl  226   5.080   1.448   0.524
    2MOL1     H  227   5.089   1.220   0.465
    2MOL1    Cl  228   2.807   0.759   2.413
    2MOL1     C  229   2.895   0.826   2.552
    2MOL1    Cl  230   3.055   0.883   2.503
    2MOL1    Cl  231   2.802   0.956   2.628
    2MOL1     H  232   2.908   0.746   2.626
    2MOL1    Cl  233   3.873   3.911   4.818
    2MOL1     C  234   3.764   4.038   4.757
    2MOL1    Cl  235   3.851   4.191   4.738
    2MOL1    Cl  236   3.691   3.988   4.603
    2MOL1     H  237   3.684   4.052   4.830
    2MOL1    Cl  238   0.798   4.249   3.334
    2MOL1     C  239   0.774   4.148   3.477
    2MOL1    Cl  240   0.748   3.979   3.430
    2MOL1    Cl  241   0.913   4.160   3.586
    2MOL1     H  242   0.686   4.183   3.530
    2MOL1    Cl  243   4.017   1.256   2.479
    2MOL1     C  244   3.920   1.364   2.581
    2MOL1    Cl  245   3.823   1.474   2.481
    2MOL1    Cl  246   3.815   1.269   2.688
    2MOL1     H  247   3.988   1.423   2.642
    2MOL1    Cl  248   4.986   3.187   4.349
    2MOL1     C  249   4.895   3.098   4.473
    2MOL1    Cl  250   4.827   2.949   4.405
    2MOL1    Cl  251   4.998   3.061   4.612
    2MOL1     H  252   4.812   3.161   4.507
    2MOL1    Cl  253   0.661   2.616   1.710
    2MOL1     C  254   0.515   2.543   1.778
    2MOL1    Cl  255   0.427   2.661   1.878
    2MOL1    Cl  256   0.410   2.480   1.650
    2MOL1     H  257   0.545   2.460   1.842
    2MOL1    Cl  258   1.711   2.152   2.372
    2MOL1     C  259   1.554   2.078   2.406
    2MOL1    Cl  260   1.439   2.199   2.465
    2MOL1    Cl  261   1.491   1.998   2.261
    2MOL1     H  262   1.568   2.002   2.483
    2MOL1    Cl  263   4.395   4.465   0.821
    2MOL1     C  264   4.285   4.440   0.685
    2MOL1    Cl  265   4.254   4.267   0.660
    2MOL1    Cl  266   4.133   4.527   0.712
    2MOL1     H  267   4.331   4.480   0.595
    2MOL1    Cl  268   2.568   5.117   3.868
    2MOL1     C  269   2.623   5.266   3.792
    2MOL1    Cl  270   2.765   5.236   3.690
    2MOL1    Cl  271   2.493   5.340   3.697
    2MOL1     H  272   2.652   5.337   3.870
    2MOL1    Cl  273   2.946   1.731   3.166
    2MOL1     C  274   2.869   1.873   3.093
    2MOL1    Cl  275   2.944   1.910   2.937
    2MOL1    Cl  276   2.695   1.846   3.073
    2MOL1     H  277   2.883   1.958   3.159
    2MOL1    Cl  278   0.618   2.966   5.090
    2MOL1     C  279   0.675   3.103   4.993
    2MOL1    Cl  280   0.621   3.256   5.064
    2MOL1    Cl  281   0.852   3.100   4.979
    2MOL1     H  282   0.632   3.094   4.893
    2MOL1    Cl  283   4.625   3.389   2.209
    2MOL1     C  284   4.590   3.555   2.159
    2MOL1    Cl  285   4.702   3.607   2.032
    2MOL1    Cl  286   4.422   3.569   2.103
    2MOL1     H  287   4.603   3.620   2.245
    2MOL1    Cl  288   2.058   1.251   3.611
    2MOL1     C  289   2.145   1.155   3.490
    2MOL1    Cl  290   2.033   1.093   3.368
    2MOL1    Cl  291   2.273   1.250   3.415
    2MOL1     H  292   2.191   1.069   3.541
    2MOL1    Cl  293   1.433   2.137   2.957
    2MOL1     C  294   1.413   1.996   2.851
    2MOL1    Cl  295   1.420   1.846   2.945
    2MOL1    Cl  296   1.261   2.007   2.761
    2MOL1     H  297   1.496   1.996   2.779
    2MOL1    Cl  298   3.123   4.596   4.978
    2MOL1     C  299   3.137   4.682   4.823
    2MOL1    Cl  300   3.059   4.841   4.834
    2MOL1    Cl  301   3.307   4.699   4.777
    2MOL1     H  302   3.086   4.624   4.747
    2MOL1    Cl  303   2.610   2.363   1.929
    2MOL1     C  304   2.708   2.477   2.023
    2MOL1    Cl  305   2.873   2.486   1.958
    2MOL1    Cl  306   2.633   2.638   2.024
    2MOL1     H  307   2.714   2.441   2.126
    2MOL1    Cl  308   2.844   1.961   5.188
    2MOL1     C  309   2.737   2.030   5.065
    2MOL1    Cl  310   2.591   2.097   5.140
    2MOL1    Cl  311   2.821   2.154   4.971
    2MOL1     H  312   2.707   1.950   4.997
    2MOL1    Cl  313   4.895   0.290   1.446
    2MOL1     C  314   4.885   0.303   1.270
    2MOL1    Cl  315   4.755   0.199   1.207
    2MOL1    Cl  316   4.860   0.471   1.220
    2MOL1     H  317   4.980   0.268   1.227
    2MOL1    Cl  318   3.157   0.996   1.192
    2MOL1     C  319   3.040   0.883   1.260
    2MOL1    Cl  320   3.054   0.877   1.436
    2MOL1    Cl  321   2.875   0.928   1.213
    2MOL1     H  322   3.061   0.783   1.220
    2MOL1    Cl  323   4.058   3.294   1.812
    2MOL1     C  324   3.904   3.243   1.882
    2MOL1    Cl  325   3.911   3.074   1.933
    2MOL1    Cl  326   3.861   3.347   2.019
    2MOL1     H  327   3.827   3.253   1.806
    2MOL1    Cl  328   0.946   0.761   3.617
    2MOL1     C  329   1.073   0.881   3.645
    2MOL1    Cl  330   1.015   1.009   3.754
    2MOL1    Cl  331   1.219   0.805   3.710
    2MOL1     H  332   1.098   0.927   3.549
    2MOL1    Cl  333   0.527   5.110   4.188
    2MOL1     C  334   0.690   5.170   4.149
    2MOL1    Cl  335   0.778   5.052   4.051
    2MOL1    Cl  336   0.681   5.326   4.066
    2MOL1     H  337   0.744   5.184   4.243
    2MOL1    Cl  338   2.995   3.548   3.499
    2MOL1     C  339   2.839   3.630   3.480
    2MOL1    Cl  340   2.851   3.759   3.358
    2MOL1    Cl  341   2.712   3.514   3.435
    2MOL1     H  342   2.812   3.676   3.575
    2MOL1    Cl  343   0.449   0.799   2.368
    2MOL1     C  344   0.369   0.921   2.468
    2MOL1    Cl  345   0.424   1.084   2.423
    2MOL1    Cl  346   0.193   0.909   2.452
    2MOL1     H  347   0.395   0.903   2.572
    2MOL1    Cl  348   4.832   2.059   2.196
    2MOL1     C  349   4.985   1.992   2.140
    2MOL1    Cl  350   4.957   1.867   2.017
    2MOL1    Cl  351   5.090   2.120   2.076
    2MOL1     H  352   5.036   1.945   2.225
    2MOL1    Cl  353   1.423   3.632   2.291
    2MOL1     C  354   1.262   3.559   2.279
    2MOL1    Cl  355   1.184   3.553   2.438
    2MOL1    Cl  356   1.161   3.648   2.163
    2MOL1     H  357   1.273   3.456   2.243
    2MOL1    Cl  358   4.067   1.509   1.965
    2MOL1     C  359   3.923   1.425   2.024
    2MOL1    Cl  360   3.781   1.469   1.927
    2MOL1    Cl  361   3.947   1.250   2.023
    2MOL1     H  362   3.905   1.457   2.127
    2MOL1    Cl  363   0.983   2.195   2.212
    2MOL1     C  364   0.815   2.140   2.214
    2MOL1    Cl  365   0.718   2.233   2.099
    2MOL1    Cl  366   0.805   1.967   2.178
    2MOL1     H  367   0.774   2.156   2.314
    2MOL1    Cl  368   2.304   3.859   1.839
    2MOL1     C  369   2.146   3.786   1.805
    2MOL1    Cl  370   2.142   3.723   1.639
    2MOL1    Cl  371   2.111   3.657   1.921
    2MOL1     H  372   2.069   3.863   1.815
    2MOL1    Cl  373   0.962   4.403   1.263
    2MOL1     C  374   1.002   4.536   1.154
    2MOL1    Cl  375   1.042   4.682   1.246
    2MOL1    Cl  376   1.135   4.491   1.047
    2MOL1     H  377   0.914   4.557   1.092
    2MOL1    Cl  378   0.111   1.372   4.887
    2MOL1     C  379   0.246   1.296   4.801
    2MOL1    Cl  380   0.376   1.255   4.913
    2MOL1    Cl  381   0.190   1.152   4.714
    2MOL1     H  382   0.284   1.367   4.727
    2MOL1    Cl  383   1.177   3.815   4.789
    2MOL1     C  384   1.334   3.896   4.788
    2MOL1    Cl  385   1.462   3.784   4.739
    2MOL1    Cl  386   1.331   4.037   4.681
    2MOL1     H  387   1.356   3.931   4.889
    2MOL1    Cl  388   0.479   0.793   4.907
    2MOL1     C  389   0.318   0.744   4.852
    2MOL1    Cl  390   0.204   0.880   4.864
    2MOL1    Cl  391   0.326   0.684   4.685
    2MOL1     H  392   0.283   0.663   4.916
    2MOL1    Cl  393   1.192   4.442   2.180
    2MOL1     C  394   1.085   4.309   2.229
    2MOL1    Cl  395   1.162   4.209   2.353
    2MOL1    Cl  396   0.930   4.372   2.287
    2MOL1     H  397   1.066   4.246   2.141
    2MOL1    Cl  398   3.731   3.957   0.208
    2MOL1     C  399   3.685   4.126   0.179
    2MOL1    Cl  400   3.804   4.206   0.075
    2MOL1    Cl  401   3.524   4.135   0.106
    2MOL1     H  402   3.683   4.178   0.275
    2MOL1    Cl  403   1.635   1.657   1.356
    2MOL1     C  404   1.595   1.509   1.445
    2MOL1    Cl  405   1.740   1.410   1.470
    2MOL1    Cl  406   1.518   1.548   1.600
    2MOL1     H  407   1.524   1.451   1.385
    2MOL1    Cl  408   3.556   0.531   2.276
    2MOL1     C  409   3.443   0.665   2.295
    2MOL1    Cl  410   3.526   0.808   2.360
    2MOL1    Cl  411   3.364   0.703   2.141
    2MOL1     H  412   3.366   0.635   2.367
    2MOL1    Cl  413   0.103   0.543   1.854
    2MOL1     C  414   0.149   0.624   2.005
    2MOL1    Cl  415   0.320   0.671   2.001
    2MOL1    Cl  416   0.047   0.766   2.033
    2MOL1     H  417   0.134   0.554   2.087
    2MOL1    Cl  418   3.733   2.691   1.158
    2MOL1     C  419   3.880   2.604   1.114
    2MOL1    Cl  420   3.893   2.586   0.938
    2MOL1    Cl  421   4.023   2.686   1.179
    2MOL1     H  422   3.876   2.504   1.158
    2MOL1    Cl  423   4.985   1.625   3.379
    2MOL1     C  424   4.924   1.790   3.397
    2MOL1    Cl  425   4.791   1.795   3.513
    2MOL1    Cl  426   5.055   1.899   3.448
    2MOL1     H  427   4.887   1.824   3.300
    2MOL1    Cl  428   1.865   3.522   2.358
    2MOL1     C  429   2.023   3.597   2.389
    2MOL1    Cl  430   2.067   3.707   2.257
    2MOL1    Cl  431   2.021   3.684   2.544
    2MOL1     H  432   2.098   3.518   2.395
    2MOL1    Cl  433   0.498   0.328   4.738
    2MOL1     C  434   0.571   0.268   4.888
    2MOL1    Cl  435   0.504   0.109   4.931
    2MOL1    Cl  436   0.747   0.258   4.872
    2MOL1     H  437   0.547   0.338   4.968
    2MOL1    Cl  438   4.494   0.715   4.390
    2MOL1     C  439   4.521   0.556   4.462
    2MOL1    Cl  440   4.686   0.544   4.526
    2MOL1    Cl  441   4.403   0.523   4.590
    2MOL1     H  442   4.509   0.480   4.384
    2MOL1    Cl  443   3.930   4.620   1.658
    2MOL1     C  444   3.863   4.726   1.533
    2MOL1    Cl  445   3.981   4.752   1.404
    2MOL1    Cl  446   3.713   4.658   1.468
    2MOL1     H  447   3.840   4.822   1.579
    2MOL1    Cl  448   4.496   4.532   4.735
    2MOL1     C  449   4.481   4.572   4.907
    2MOL1    Cl  450   4.497   4.427   5.007
    2MOL1    Cl  451   4.601   4.694   4.954
    2MOL1     H  452   4.381   4.615   4.924
    2MOL1    Cl  453   4.115   4.503   1.738
    2MOL1     C  454   4.025   4.356   1.778
    2MOL1    Cl  455   4.135   4.228   1.832
    2MOL1    Cl  456   3.903   4.390   1.902
    2MOL1     H  457   3.974   4.321   1.688
    2MOL1    Cl  458   3.911   3.905   3.336
    2MOL1     C  459   3.843   4.064   3.372
    2MOL1    Cl  460   3.733   4.056   3.510
    2MOL1    Cl  461   3.973   4.182   3.402
    2MOL1     H  462   3.786   4.098   3.284
    2MOL1    Cl  463   0.256   0.785   3.401
    2MOL1     C  464   0.370   0.921   3.399
    2MOL1    Cl  465   0.370   1.004   3.555
    2MOL1    Cl  466   0.533   0.865   3.358
    2MOL1     H  467   0.338   0.992   3.322
    2MOL1    Cl  468   3.190   2.671   2.768
    2MOL1     C  469   3.042   2.655   2.863
    2MOL1    Cl  470   2.984   2.814   2.916
    2MOL1    Cl  471   2.917   2.570   2.770
    2MOL1     H  472   3.064   2.596   2.952
    2MOL1    Cl  473   3.661   2.246   2.374
    2MOL1     C  474   3.731   2.383   2.461
    2MOL1    Cl  475   3.632   2.528   2.439
    2MOL1    Cl  476   3.748   2.345   2.634
    2MOL1     H  477   3.831   2.403   2.420
    2MOL1    Cl  478   4.935   0.566   2.371
    2MOL1     C  479   5.026   0.707   2.430
    2MOL1    Cl  480   5.194   0.699   2.376
    2MOL1    Cl  481   4.950   0.857   2.374
    2MOL1     H  482   5.024   0.706   2.539
    2MOL1    Cl  483   0.293   0.011   3.156
    2MOL1     C  484   0.402   0.116   3.064
    2MOL1    Cl  485   0.470   0.029   2.925
    2MOL1    Cl  486   0.318   0.262   3.010
    2MOL1     H  487   0.485   0.146   3.129
    2MOL1    Cl  488   5.311   3.646   1.363
    2MOL1     C  489   5.147   3.705   1.335
    2MOL1    Cl  490   5.055   3.707   1.486
    2MOL1    Cl  491   5.150   3.867   1.262
    2MOL1     H  492   5.097   3.637   1.265
    2MOL1    Cl  493   1.930   3.117   1.103
    2MOL1     C  494   1.788   3.211   1.053
    2MOL1    Cl  495   1.830   3.326   0.926
    2MOL1    Cl  496   1.658   3.103   0.999
    2MOL1     H  497   1.752   3.266   1.140
    2MOL1    Cl  498   4.846   0.278   2.208
    2MOL1     C  499   4.868   0.106   2.174
    2MOL1    Cl  500   4.748   0.050   2.056
    2MOL1    Cl  501   5.033   0.075   2.115
    2MOL1     H  502   4.854   0.051   2.267
    2MOL1    Cl  503   2.933   4.379   4.241
    2MOL1     C  504   2.774   4.414   4.171
    2MOL1    Cl  505   2.684   4.527   4.274
    2MOL1    Cl  506   2.791   4.480   4.007
    2MOL1     H  507   2.717   4.321   4.165
    2MOL1    Cl  508   4.538   1.684   0.431
    2MOL1     C  509   4.677   1.723   0.328
    2MOL1    Cl  510   4.660   1.648   0.169
    2MOL1    Cl  511   4.695   1.899   0.313
    2MOL1     H  512   4.767   1.684   0.376
    2MOL1    Cl  513   2.856   4.610   4.401
    2MOL1     C  514   2.925   4.765   4.450
    2MOL1    Cl  515   2.801   4.870   4.522
    2MOL1    Cl  516   3.060   4.741   4.563
    2MOL1     H  517   2.964   4.815   4.360
    2MOL1    Cl  518   3.954   4.255   2.068
    2MOL1     C  519   3.809   4.156   2.041
    2MOL1    Cl  520   3.698   4.238   1.931
    2MOL1    Cl  521   3.854   3.997   1.978
    2MOL1     H  522   3.759   4.142   2.137
    2MOL1    Cl  523   0.938   0.091   3.379
    2MOL1     C  524   0.967   0.264   3.403
    2MOL1    Cl  525   0.849   0.332   3.516
    2MOL1    Cl  526   1.132   0.292   3.462
    2MOL1     H  527   0.956   0.314   3.307
    2MOL1    Cl  528   0.804   1.361   2.689
    2MOL1     C  529   0.963   1.351   2.613
    2MOL1    Cl  530   1.020   1.511   2.565
    2MOL1    Cl  531   1.079   1.274   2.723
    2MOL1     H  532   0.954   1.289   2.524
    2MOL1    Cl  533   1.022   0.788   2.510
    2MOL1     C  534   1.128   0.715   2.387
    2MOL1    Cl  535   1.040   0.694   2.235
    2MOL1    Cl  536   1.273   0.814   2.363
    2MOL1     H  537   1.159   0.617   2.423
    2MOL1    Cl  538   2.804   1.288   3.979
    2MOL1     C  539   2.869   1.126   3.948
    2MOL1    Cl  540   2.919   1.049   4.099
    2MOL1    Cl  541   2.749   1.026   3.864
    2MOL1     H  542   2.957   1.136   3.883
    2MOL1    Cl  543   4.761   5.233   1.286
    2MOL1     C  544   4.621   5.125   1.279
    2MOL1    Cl  545   4.525   5.155   1.133
    2MOL1    Cl  546   4.674   4.956   1.285
    2MOL1     H  547   4.558   5.144   1.367
    2MOL1    Cl  548   0.372   4.505   0.332
    2MOL1     C  549   0.530   4.427   0.313
    2MOL1    Cl  550   0.638   4.471   0.446
    2MOL1    Cl  551   0.512   4.251   0.302
    2MOL1     H  552   0.575   4.463   0.220
    2MOL1    Cl  553   2.320   3.499   2.140
    2MOL1     C  554   2.430   3.420   2.254
    2MOL1    Cl  555   2.463   3.528   2.391
    2MOL1    Cl  556   2.362   3.267   2.311
    2MOL1     H  557   2.524   3.400   2.203
    2MOL1    Cl  558   0.197   3.558   1.169
    2MOL1     C  559   0.341   3.467   1.216
    2MOL1    Cl  560   0.445   3.564   1.321
    2MOL1    Cl  561   0.294   3.316   1.297
    2MOL1     H  562   0.397   3.441   1.126
    2MOL1    Cl  563   3.296   3.781   1.043
    2MOL1     C  564   3.370   3.620   1.039
    2MOL1    Cl  565   3.522   3.619   1.129
    2MOL1    Cl  566   3.258   3.499   1.104
    2MOL1     H  567   3.391   3.594   0.935
    2MOL1    Cl  568   3.273   3.202   4.917
    2MOL1     C  569   3.189   3.050   4.950
    2MOL1    Cl  570   3.263   2.968   5.089
    2MOL1    Cl  571   3.017   3.078   4.980
    2MOL1     H  572   3.199   2.985   4.863
    2MOL1    Cl  573   1.232   1.350   1.810
    2MOL1     C  574   1.071   1.294   1.856
    2MOL1    Cl  575   1.080   1.134   1.933
    2MOL1    Cl  576   0.993   1.410   1.965
    2MOL1     H  577   1.010   1.285   1.766
    2MOL1    Cl  578   1.904   2.822   4.752
    2MOL1     C  579   1.996   2.671   4.739
    2MOL1    Cl  580   2.161   2.693   4.798
    2MOL1    Cl  581   1.915   2.541   4.827
    2MOL1     H  582   2.000   2.643   4.633
    2MOL1    Cl  583   2.080   4.235   4.251
    2MOL1     C  584   2.187   4.101   4.205
    2MOL1    Cl  585   2.295   4.059   4.339
    2MOL1    Cl  586   2.092   3.960   4.155
    2MOL1     H  587   2.248   4.133   4.121
    2MOL1    Cl  588   0.686   0.373   0.002
    2MOL1     C  589   0.791   0.352   0.143
    2MOL1    Cl  590   0.777   0.491   0.253
    2MOL1    Cl  591   0.752   0.201   0.228
    2MOL1     H  592   0.894   0.346   0.109
    2MOL1    Cl  593   0.956   0.673   3.010
    2MOL1     C  594   1.124   0.638   2.966
    2MOL1    Cl  595   1.219   0.787   2.959
    2MOL1    Cl  596   1.196   0.524   3.080
    2MOL1     H  597   1.124   0.592   2.867
    2MOL1    Cl  598   4.604   3.339   3.304
    2MOL1     C  599   4.505   3.195   3.272
    2MOL1    Cl  600   4.340   3.242   3.227
    2MOL1    Cl  601   4.578   3.095   3.145
    2MOL1     H  602   4.500   3.136   3.364
    2MOL1    Cl  603   3.201   4.627   5.225
    2MOL1     C  604   3.179   4.792   5.167
    2MOL1    Cl  605   3.020   4.855   5.214
    2MOL1    Cl  606   3.308   4.897   5.229
    2MOL1     H  607   3.185   4.792   5.058
    2MOL1    Cl  608   1.974   0.158   3.441
    2MOL1     C  609   1.842   0.109   3.549
    2MOL1    Cl  610   1.893   0.117   3.718
    2MOL1    Cl  611   1.699   0.210   3.521
    2MOL1     H  612   1.816   0.005   3.526
    2MOL1    Cl  613   1.097   0.879   3.978
    2MOL1     C  614   0.979   0.813   4.091
    2MOL1    Cl  615   0.821   0.890   4.069
    2MOL1    Cl  616   0.966   0.637   4.072
    2MOL1     H  617   1.013   0.834   4.193
    2MOL1    Cl  618   1.992   5.073   2.550
    2MOL1     C  619   2.056   5.140   2.399
    2MOL1    Cl  620   1.938   5.123   2.268
    2MOL1    Cl  621   2.100   5.310   2.421
    2MOL1     H  622   2.146   5.084   2.372
    2MOL1    Cl  623   1.293   1.202   2.377
    2MOL1     C  624   1.225   1.365   2.374
    2MOL1    Cl  625   1.353   1.486   2.390
    2MOL1    Cl  626   1.133   1.391   2.224
    2MOL1     H  627   1.156   1.375   2.458
    2MOL1    Cl  628   1.527   1.743   0.059
    2MOL1     C  629   1.624   1.641   0.167
    2MOL1    Cl  630   1.655   1.725   0.320
    2MOL1    Cl  631   1.543   1.486   0.196
    2MOL1     H  632   1.720   1.621   0.118
    2MOL1    Cl  633   4.345   3.212   2.385
    2MOL1     C  634   4.226   3.122   2.481
    2MOL1    Cl  635   4.117   3.031   2.375
    2MOL1    Cl  636   4.307   3.014   2.596
    2MOL1     H  637   4.167   3.194   2.537
    2MOL1    Cl  638   2.877   5.027   1.482
    2MOL1     C  639   2.944   4.866   1.449
    2MOL1    Cl  640   2.937   4.766   1.595
    2MOL1    Cl  641   2.858   4.789   1.316
    2MOL1     H  642   3.049   4.878   1.421
    2MOL1    Cl  643   4.186   2.589   3.388
    2MOL1     C  644   4.308   2.466   3.351
    2MOL1    Cl  645   4.246   2.352   3.230
    2MOL1    Cl  646   4.458   2.542   3.294
    2MOL1     H  647   4.330   2.411   3.443
    2MOL1    Cl  648   4.405   0.681   3.577
    2MOL1     C  649   4.326   0.787   3.694
    2MOL1    Cl  650   4.151   0.759   3.697
    2MOL1    Cl  651   4.396   0.764   3.856
    2MOL1     H  652   4.344   0.891   3.664
    2MOL1    Cl  653   4.250   1.153   3.391
    2MOL1     C  654   4.189   1.010   3.306
    2MOL1    Cl  655   4.156   1.047   3.137
    2MOL1    Cl  656   4.306   0.876   3.319
    2MOL1     H  657   4.096   0.978   3.354
    2MOL1    Cl  658   1.986   0.365   3.252
    2MOL1     C  659   2.109   0.351   3.378
    2MOL1    Cl  660   2.039   0.385   3.537
    2MOL1    Cl  661   2.184   0.191   3.376
    2MOL1     H  662   2.187   0.426   3.359
    2MOL1    Cl  663   0.357   4.530   3.745
    2MOL1     C  664   0.518   4.492   3.682
    2MOL1    Cl  665   0.505   4.392   3.536
    2MOL1    Cl  666   0.608   4.640   3.648
    2MOL1     H  667   0.572   4.435   3.758
    2MOL1    Cl  668   0.226   1.776   4.862
    2MOL1     C  669   0.298   1.930   4.813
    2MOL1    Cl  670   0.396   1.909   4.667
    2MOL1    Cl  671   0.172   2.052   4.786
    2MOL1     H  672   0.363   1.965   4.893
    2MOL1    Cl  673   1.168   5.203   5.068
    2MOL1     C  674   1.074   5.081   5.155
    2MOL1    Cl  675   1.180   4.985   5.260
    2MOL1    Cl  676   0.945   5.157   5.249
    2MOL1     H  677   1.029   5.014   5.081
    2MOL1    Cl  678   0.407   2.047   0.769
    2MOL1     C  679   0.546   2.155   0.746
    2MOL1    Cl  680   0.673   2.074   0.653
    2MOL1    Cl  681   0.496   2.305   0.667
    2MOL1     H  682   0.586   2.180   0.845
    2MOL1    Cl  683   4.876   1.845   2.395
    2MOL1     C  684   4.813   1.694   2.326
    2MOL1    Cl  685   4.682   1.728   2.212
    2MOL1    Cl  686   4.943   1.603   2.247
    2MOL1     H  687   4.773   1.634   2.408
    2MOL1    Cl  688   3.067   1.381   2.708
    2MOL1     C  689   2.922   1.353   2.612
    2MOL1    Cl  690   2.816   1.495   2.616
    2MOL1    Cl  691   2.964   1.312   2.445
    2MOL1     H  692   2.867   1.268   2.655
    2MOL1    Cl  693   3.386   0.503   2.718
    2MOL1     C  694   3.218   0.551   2.685
    2MOL1    Cl  695   3.213   0.690   2.576
    2MOL1    Cl  696   3.127   0.415   2.617
    2MOL1     H  697   3.171   0.580   2.780
    2MOL1    Cl  698   2.537   4.632   1.172
    2MOL1     C  699   2.378   4.685   1.115
    2MOL1    Cl  700   2.377   4.701   0.938
    2MOL1    Cl  701   2.252   4.573   1.168
    2MOL1     H  702   2.357   4.784   1.158
    2MOL1    Cl  703   0.414   3.448   3.979
    2MOL1     C  704   0.559   3.452   4.080
    2MOL1    Cl  705   0.529   3.373   4.236
    2MOL1    Cl  706   0.695   3.376   3.997
    2MOL1     H  707   0.584   3.556   4.099
    2MOL1    Cl  708   2.613   0.231   1.639
    2MOL1     C  709   2.457   0.160   1.682
    2MOL1    Cl  710   2.479   0.015   1.781
    2MOL1    Cl  711   2.356   0.279   1.767
    2MOL1     H  712   2.405   0.132   1.590
    2MOL1    Cl  713   2.738   4.828   3.595
    2MOL1     C  714   2.605   4.913   3.674
    2MOL1    Cl  715   2.583   5.074   3.605
    2MOL1    Cl  716   2.455   4.819   3.663
    2MOL1     H  717   2.630   4.924   3.780
    2MOL1    Cl  718   3.703   3.504   4.790
    2MOL1     C  719   3.683   3.679   4.772
    2MOL1    Cl  720   3.813   3.745   4.671
    2MOL1    Cl  721   3.525   3.716   4.702
    2MOL1     H  722   3.689   3.725   4.870
    2MOL1    Cl  723   1.822   0.176   4.629
    2MOL1     C  724   1.754   0.223   4.785
    2MOL1    Cl  725   1.881   0.231   4.909
    2MOL1    Cl  726   1.671   0.379   4.772
    2MOL1     H  727   1.682   0.148   4.816
    2MOL1    Cl  728   3.397   3.934   1.994
    2MOL1     C  729   3.408   3.793   1.888
    2MOL1    Cl  730   3.266   3.783   1.782
    2MOL1    Cl  731   3.557   3.799   1.791
    2MOL1     H  732   3.411   3.703   1.950
    2MOL1    Cl  733   0.366   2.822   2.135
    2MOL1     C  734   0.211   2.736   2.132
    2MOL1    Cl  735   0.230   2.570   2.191
    2MOL1    Cl  736   0.090   2.822   2.229
    2MOL1     H  737   0.176   2.732   2.029
    2MOL1    Cl  738   2.013   0.990   3.686
    2MOL1     C  739   1.862   0.913   3.635
    2MOL1    Cl  740   1.825   0.952   3.466
    2MOL1    Cl  741   1.871   0.737   3.658
    2MOL1     H  742   1.781   0.951   3.698
    2MOL1    Cl  743   1.563   4.455   3.738
    2MOL1     C  744   1.442   4.572   3.683
    2MOL1    Cl  745   1.519   4.710   3.604
    2MOL1    Cl  746   1.326   4.494   3.574
    2MOL1     H  747   1.387   4.608   3.770
    2MOL1    Cl  748   1.324   3.103   3.540
    2MOL1     C  749   1.312   3.277   3.567
    2MOL1    Cl  750   1.168   3.316   3.662
    2MOL1    Cl  751   1.458   3.338   3.646
    2MOL1     H  752   1.303   3.326   3.469
    2MOL1    Cl  753   5.008   2.272   2.532
    2MOL1     C  754   4.851   2.342   2.488
    2MOL1    Cl  755   4.806   2.470   2.601
    2MOL1    Cl  756   4.855   2.403   2.322
    2MOL1     H  757   4.776   2.263   2.493
    2MOL1    Cl  758   2.297   1.620   1.808
    2MOL1     C  759   2.359   1.472   1.884
    2MOL1    Cl  760   2.390   1.348   1.761
    2MOL1    Cl  761   2.506   1.507   1.976
    2MOL1     H  762   2.283   1.434   1.953
    2MOL1    Cl  763   1.103   0.094   3.708
    2MOL1     C  764   1.266   0.138   3.762
    2MOL1    Cl  765   1.265   0.177   3.935
    2MOL1    Cl  766   1.381   0.008   3.728
    2MOL1     H  767   1.297   0.227   3.707
    2MOL1    Cl  768   4.411   3.808   2.605
    2MOL1     C  769   4.340   3.798   2.766
    2MOL1    Cl  770   4.390   3.937   2.865
    2MOL1    Cl  771   4.163   3.789   2.756
    2MOL1     H  772   4.376   3.707   2.814
    2MOL1    Cl  773   4.360   1.236   3.947
    2MOL1     C  774   4.418   1.316   4.094
    2MOL1    Cl  775   4.337   1.249   4.237
    2MOL1    Cl  776   4.594   1.299   4.109
    2MOL1     H  777   4.394   1.422   4.088
    2MOL1    Cl  778   3.623   2.098   2.616
    2MOL1     C  779   3.793   2.052   2.633
    2MOL1    Cl  780   3.859   2.000   2.477
    2MOL1    Cl  781   3.888   2.186   2.699
    2MOL1     H  782   3.799   1.968   2.703
    2MOL1    Cl  783   5.125   3.995   3.437
    2MOL1     C  784   4.975   3.971   3.347
    2MOL1    Cl  785   4.854   4.092   3.394
    2MOL1    Cl  786   5.005   3.978   3.172
    2MOL1     H  787   4.935   3.872   3.371
    2MOL1    Cl  788   0.343   1.963   0.592
    2MOL1     C  789   0.461   1.833   0.564
    2MOL1    Cl  790   0.394   1.711   0.454
    2MOL1    Cl  791   0.612   1.899   0.500
    2MOL1     H  792   0.482   1.785   0.660
    2MOL1    Cl  793   3.613   1.587   3.634
    2MOL1     C  794   3.633   1.761   3.654
    2MOL1    Cl  795   3.513   1.825   3.769
    2MOL1    Cl  796   3.797   1.800   3.708
    2MOL1     H  797   3.616   1.809   3.557
    2MOL1    Cl  798   1.284   2.391   3.079
    2MOL1     C  799   1.422   2.478   3.011
    2MOL1    Cl  800   1.563   2.465   3.118
    2MOL1    Cl  801   1.461   2.416   2.849
    2MOL1     H  802   1.395   2.583   3.001
    2MOL1    Cl  803   0.468   3.107   0.179
    2MOL1     C  804   0.309   3.050   0.125
    2MOL1    Cl  805   0.211   3.185   0.065
    2MOL1    Cl  806   0.327   2.926   0.000
    2MOL1     H  807   0.258   3.006   0.210
    2MOL1    Cl  808   0.837   4.812   5.052
    2MOL1     C  809   0.817   4.646   4.993
    2MOL1    Cl  810   0.899   4.532   5.100
    2MOL1    Cl  811   0.645   4.606   4.979
    2MOL1     H  812   0.862   4.639   4.894
    2MOL1    Cl  813   4.708   4.650   0.043
    2MOL1     C  814   4.715   4.777   0.167
    2MOL1    Cl  815   4.727   4.937   0.092
    2MOL1    Cl  816   4.572   4.769   0.272
    2MOL1     H  817   4.804   4.761   0.228
    2MOL1    Cl  818   0.691   1.719   0.703
    2MOL1     C  819   0.813   1.593   0.686
    2MOL1    Cl  820   0.740   1.442   0.628
    2MOL1    Cl  821   0.942   1.646   0.576
    2MOL1     H  822   0.858   1.574   0.784
    2MOL1    Cl  823   2.576   0.207   3.598
    2MOL1     C  824   2.464   0.341   3.571
    2MOL1    Cl  825   2.518   0.441   3.434
    2MOL1    Cl  826   2.300   0.281   3.544
    2MOL1     H  827   2.463   0.404   3.661
    2MOL1    Cl  828   0.593   1.656   3.198
    2MOL1     C  829   0.521   1.528   3.298
    2MOL1    Cl  830   0.554   1.557   3.470
    2MOL1    Cl  831   0.346   1.518   3.270
    2MOL1     H  832   0.566   1.433   3.270
    2MOL1    Cl  833   0.278   4.537   4.906
    2MOL1     C  834   0.362   4.438   5.027
    2MOL1    Cl  835   0.360   4.518   5.185
    2MOL1    Cl  836   0.288   4.277   5.038
    2MOL1     H  837   0.466   4.426   4.996
    2MOL1    Cl  838   4.185   1.562   2.239
    2MOL1     C  839   4.302   1.431   2.216
    2MOL1    Cl  840   4.229   1.297   2.126
    2MOL1    Cl  841   4.447   1.491   2.133
    2MOL1     H  842   4.331   1.394   2.315
    2MOL1    Cl  843   1.342   0.583   1.760
    2MOL1     C  844   1.494   0.669   1.791
    2MOL1    Cl  845   1.469   0.799   1.910
    2MOL1    Cl  846   1.619   0.557   1.846
    2MOL1     H  847   1.527   0.715   1.697
    2MOL1    Cl  848   2.140   1.904   3.701
    2MOL1     C  849   2.089   1.814   3.557
    2MOL1    Cl  850   2.041   1.650   3.600
    2MOL1    Cl  851   1.957   1.898   3.473
    2MOL1     H  852   2.175   1.809   3.488
    2MOL1    Cl  853   2.806   3.496   3.788
    2MOL1     C  854   2.640   3.554   3.768
    2MOL1    Cl  855   2.527   3.447   3.852
    2MOL1    Cl  856   2.625   3.720   3.827
    2MOL1     H  857   2.616   3.553   3.661
    2MOL1    Cl  858   0.964   1.260   3.716
    2MOL1     C  859   0.881   1.415   3.700
    2MOL1    Cl  860   0.722   1.410   3.778
    2MOL1    Cl  861   0.979   1.546   3.768
    2MOL1     H  862   0.866   1.436   3.593
    2MOL1    Cl  863   0.869   4.415   2.080
    2MOL1     C  864   0.789   4.433   1.922
    2MOL1    Cl  865   0.787   4.278   1.836
    2MOL1    Cl  866   0.624   4.495   1.943
    2MOL1     H  867   0.846   4.505   1.863
    2MOL1    Cl  868   3.763   4.253   2.742
    2MOL1     C  869   3.734   4.169   2.588
    2MOL1    Cl  870   3.885   4.100   2.526
    2MOL1    Cl  871   3.612   4.043   2.609
    2MOL1     H  872   3.697   4.242   2.516
    2MOL1    Cl  873   0.552   2.559   3.548
    2MOL1     C  874   0.718   2.506   3.580
    2MOL1    Cl  875   0.803   2.623   3.682
    2MOL1    Cl  876   0.718   2.345   3.655
    2MOL1     H  877   0.771   2.499   3.484
    2MOL1    Cl  878   1.845   4.005   1.684
    2MOL1     C  879   1.775   3.920   1.823
    2MOL1    Cl  880   1.606   3.877   1.791
    2MOL1    Cl  881   1.870   3.775   1.861
    2MOL1     H  882   1.778   3.987   1.909
    2MOL1    Cl  883   1.550   1.753   2.585
    2MOL1     C  884   1.707   1.671   2.592
    2MOL1    Cl  885   1.828   1.774   2.670
    2MOL1    Cl  886   1.693   1.516   2.677
    2MOL1     H  887   1.740   1.651   2.490
    2MOL1    Cl  888   3.869   0.063   3.897
    2MOL1     C  889   3.965   0.116   4.036
    2MOL1    Cl  890   3.944   0.289   4.064
    2MOL1    Cl  891   3.921   0.023   4.180
    2MOL1     H  892   4.071   0.097   4.014
    2MOL1    Cl  893   0.327   4.509   4.601
    2MOL1     C  894   0.161   4.563   4.571
    2MOL1    Cl  895   0.116   4.535   4.401
    2MOL1    Cl  896   0.048   4.481   4.679
    2MOL1     H  897   0.156   4.670   4.590
    2MOL1    Cl  898   1.229   1.663   0.718
    2MOL1     C  899   1.148   1.613   0.868
    2MOL1    Cl  900   1.098   1.444   0.858
    2MOL1    Cl  901   1.253   1.640   1.008
    2MOL1     H  902   1.058   1.675   0.880
    2MOL1    Cl  903   2.669   2.946   0.414
    2MOL1     C  904   2.742   2.790   0.373
    2MOL1    Cl  905   2.692   2.738   0.211
    2MOL1    Cl  906   2.919   2.799   0.383
    2MOL1     H  907   2.707   2.715   0.445
    2MOL1    Cl  908   3.760   1.346   3.578
    2MOL1     C  909   3.647   1.406   3.456
    2MOL1    Cl  910   3.698   1.565   3.396
    2MOL1    Cl  911   3.633   1.291   3.322
    2MOL1     H  912   3.549   1.417   3.502
    2MOL1    Cl  913   3.374   0.287   1.921
    2MOL1     C  914   3.532   0.329   1.989
    2MOL1    Cl  915   3.569   0.227   2.129
    2MOL1    Cl  916   3.658   0.313   1.866
    2MOL1     H  917   3.529   0.433   2.022
    2MOL1    Cl  918   4.290   2.644   1.451
    2MOL1     C  919   4.126   2.683   1.504
    2MOL1    Cl  920   4.078   2.579   1.639
    2MOL1    Cl  921   4.114   2.854   1.550
    2MOL1     H  922   4.058   2.665   1.421
    2MOL1    Cl  923   2.803   4.291   2.694
    2MOL1     C  924   2.970   4.233   2.691
    2MOL1    Cl  925   2.978   4.065   2.636
    2MOL1    Cl  926   3.071   4.337   2.589
    2MOL1     H  927   3.010   4.238   2.793
    2MOL1    Cl  928   4.304   1.249   2.757
    2MOL1     C  929   4.440   1.134   2.761
    2MOL1    Cl  930   4.550   1.172   2.894
    2MOL1    Cl  931   4.380   0.968   2.775
    2MOL1     H  932   4.495   1.143   2.667
    2MOL1    Cl  933   0.987   2.156   5.082
    2MOL1     C  934   1.070   2.107   4.933
    2MOL1    Cl  935   1.167   1.961   4.962
    2MOL1    Cl  936   0.954   2.080   4.803
    2MOL1     H  937   1.137   2.188   4.903
    2MOL1    Cl  938   2.450   4.525   4.675
    2MOL1     C  939   2.384   4.660   4.581
    2MOL1    Cl  940   2.452   4.814   4.639
    2MOL1    Cl  941   2.418   4.638   4.409
    2MOL1     H  942   2.276   4.663   4.595
    2MOL1    Cl  943   2.274   5.261   5.197
    2MOL1     C  944   2.328   5.132   5.088
    2MOL1    Cl  945   2.328   4.976   5.171
    2MOL1    Cl  946   2.225   5.126   4.944
    2MOL1     H  947   2.430   5.155   5.057
    2MOL1    Cl  948   2.172   1.346   3.048
    2MOL1     C  949   2.000   1.326   3.008
    2MOL1    Cl  950   1.946   1.451   2.896
    2MOL1    Cl  951   1.971   1.165   2.941
    2MOL1     H  952   1.942   1.335   3.101
    2MOL1    Cl  953   1.887   2.065   5.084
    2MOL1     C  954   1.932   2.220   5.157
    2MOL1    Cl  955   2.108   2.240   5.157
    2MOL1    Cl  956   1.853   2.354   5.071
    2MOL1     H  957   1.897   2.221   5.260
    2MOL1    Cl  958   2.277   1.704   1.584
    2MOL1     C  959   2.307   1.860   1.663
    2MOL1    Cl  960   2.465   1.924   1.615
    2MOL1    Cl  961   2.178   1.975   1.623
    2MOL1     H  962   2.307   1.844   1.771
    2MOL1    Cl  963   2.791   2.869   0.933
    2MOL1     C  964   2.693   2.724   0.907
    2MOL1    Cl  965   2.646   2.709   0.737
    2MOL1    Cl  966   2.780   2.579   0.961
    2MOL1     H  967   2.602   2.733   0.967
    2MOL1    Cl  968   2.935   1.859   1.886
    2MOL1     C  969   3.057   1.886   2.012
    2MOL1    Cl  970   3.116   1.732   2.074
    2MOL1    Cl  971   3.191   1.984   1.949
    2MOL1     H  972   3.010   1.941   2.094
    2MOL1    Cl  973   4.613   4.767   2.675
    2MOL1     C  974   4.689   4.628   2.753
    2MOL1    Cl  975   4.715   4.660   2.926
    2MOL1    Cl  976   4.591   4.482   2.732
    2MOL1     H  977   4.786   4.611   2.707
    2MOL1    Cl  978   3.380   0.425   4.792
    2MOL1     C  979   3.254   0.417   4.916
    2MOL1    Cl  980   3.326   0.409   5.078
    2MOL1    Cl  981   3.145   0.557   4.904
    2MOL1     H  982   3.195   0.326   4.900
    2MOL1    Cl  983   3.949   3.822   4.136
    2MOL1     C  984   3.958   3.999   4.135
    2MOL1    Cl  985   3.908   4.065   4.291
    2MOL1    Cl  986   4.122   4.053   4.093
    2MOL1     H  987   3.889   4.036   4.058
    2MOL1    Cl  988   2.018   1.569   2.619
    2MOL1     C  989   2.022   1.394   2.645
    2MOL1    Cl  990   2.157   1.350   2.752
    2MOL1    Cl  991   1.869   1.337   2.711
    2MOL1     H  992   2.038   1.346   2.548
    2MOL1    Cl  993   2.844   0.505   0.174
    2MOL1     C  994   2.669   0.494   0.151
    2MOL1    Cl  995   2.612   0.621   0.042
    2MOL1    Cl  996   2.625   0.334   0.089
    2MOL1     H  997   2.621   0.508   0.248
    2MOL1    Cl  998   2.389   2.822   2.212
    2MOL1     C  999   2.421   2.912   2.063
    2MOL1    Cl 1000   2.591   2.899   2.016
    2MOL1    Cl 1001   2.316   2.854   1.932
    2MOL1     H 1002   2.398   3.018   2.081
    2MOL1    Cl 1003   1.049   4.936   1.426
    2MOL1     C 1004   1.081   4.936   1.600
    2MOL1    Cl 1005   1.022   4.786   1.674
    2MOL1    Cl 1006   1.254   4.958   1.632
    2MOL1     H 1007   1.027   5.020   1.644
    2MOL1    Cl 1008   4.255   2.147   4.438
    2MOL1     C 1009   4.243   2.320   4.403
    2MOL1    Cl 1010   4.100   2.390   4.480
    2MOL1    Cl 1011   4.390   2.405   4.455
    2MOL1     H 1012   4.233   2.332   4.294
    2MOL1    Cl 1013   1.940   5.184   4.971
    2MOL1     C 1014   1.933   5.071   5.107
    2MOL1    Cl 1015   2.072   4.961   5.104
    2MOL1    Cl 1016   1.927   5.159   5.261
    2MOL1     H 1017   1.842   5.011   5.098
    2MOL1    Cl 1018   4.161   5.340   5.179
    2MOL1     C 1019   4.056   5.223   5.262
    2MOL1    Cl 1020   3.920   5.306   5.339
    2MOL1    Cl 1021   3.999   5.100   5.149
    2MOL1     H 1022   4.115   5.174   5.340
    2MOL1    Cl 1023   3.251   3.923   0.558
    2MOL1     C 1024   3.386   3.852   0.648
    2MOL1    Cl 1025   3.516   3.971   0.670
    2MOL1    Cl 1026   3.330   3.791   0.805
    2MOL1     H 1027   3.425   3.768   0.591
    2MOL1    Cl 1028   4.690   1.096   1.211
    2MOL1     C 1029   4.663   0.983   1.077
    2MOL1    Cl 1030   4.520   0.884   1.106
    2MOL1    Cl 1031   4.648   1.071   0.923
    2MOL1     H 1032   4.750   0.917   1.070
    2MOL1    Cl 1033   4.068   1.910   2.053
    2MOL1     C 1034   4.166   1.883   1.907
    2MOL1    Cl 1035   4.330   1.946   1.929
    2MOL1    Cl 1036   4.170   1.710   1.868
    2MOL1     H 1037   4.119   1.936   1.824
    2MOL1    Cl 1038   4.256   1.721   0.005
    2MOL1     C 1039   4.123   1.730   0.121
    2MOL1    Cl 1040   4.183   1.713   0.287
    2MOL1    Cl 1041   4.034   1.882   0.102
    2MOL1     H 1042   4.054   1.647   0.101
    2MOL1    Cl 1043   0.142   0.262   4.472
    2MOL1     C 1044   0.127   0.087   4.450
    2MOL1    Cl 1045   0.041   0.050   4.299
    2MOL1    Cl 1046   0.287   0.010   4.450
    2MOL1     H 1047   0.069   0.046   4.533
    2MOL1    Cl 1048   3.922   3.298   4.660
    2MOL1     C 1049   4.007   3.254   4.809
    2MOL1    Cl 1050   3.901   3.278   4.950
    2MOL1    Cl 1051   4.064   3.087   4.802
    2MOL1     H 1052   4.093   3.320   4.820
    2MOL1    Cl 1053   1.139   0.585   3.726
    2MOL1     C 1054   1.303   0.532   3.765
    2MOL1    Cl 1055   1.393   0.660   3.848
    2MOL1    Cl 1056   1.299   0.385   3.864
    2MOL1     H 1057   1.355   0.508   3.671
    2MOL1    Cl 1058   3.419   0.421   1.385
    2MOL1     C 1059   3.565   0.353   1.459
    2MOL1    Cl 1060   3.692   0.331   1.338
    2MOL1    Cl 1061   3.622   0.457   1.591
    2MOL1     H 1062   3.540   0.255   1.501
    2MOL1    Cl 1063   1.167   0.527   4.327
    2MOL1     C 1064   1.206   0.413   4.197
    2MOL1    Cl 1065   1.278   0.265   4.262
    2MOL1    Cl 1066   1.062   0.375   4.101
    2MOL1     H 1067   1.279   0.461   4.131
    2MOL1    Cl 1068   3.123   5.111   3.677
    2MOL1     C 1069   3.162   5.279   3.636
    2MOL1    Cl 1070   3.292   5.340   3.741
    2MOL1    Cl 1071   3.209   5.293   3.466
    2MOL1     H 1072   3.073   5.340   3.653
    2MOL1    Cl 1073   2.207   0.987   4.274
    2MOL1     C 1074   2.344   1.077   4.207
    2MOL1    Cl 1075   2.293   1.174   4.068
    2MOL1    Cl 1076   2.418   1.179   4.331
    2MOL1     H 1077   2.419   1.005   4.173
    2MOL1    Cl 1078   3.465   0.666   0.280
    2MOL1     C 1079   3.328   0.738   0.366
    2MOL1    Cl 1080   3.191   0.762   0.257
    2MOL1    Cl 1081   3.280   0.636   0.503
    2MOL1     H 1082   3.359   0.835   0.405
    2MOL1    Cl 1083   1.807   2.351   2.763
    2MOL1     C 1084   1.687   2.223   2.737
    2MOL1    Cl 1085   1.555   2.282   2.634
    2MOL1    Cl 1086   1.763   2.081   2.664
    2MOL1     H 1087   1.646   2.195   2.834
    2MOL1    Cl 1088   4.914   3.889   4.729
    2MOL1     C 1089   5.035   4.017   4.710
    2MOL1    Cl 1090   5.165   3.965   4.601
    2MOL1    Cl 1091   4.958   4.165   4.649
    2MOL1     H 1092   5.078   4.038   4.808
    2MOL1    Cl 1093   0.873   1.041   2.591
    2MOL1     C 1094   0.900   0.965   2.749
    2MOL1    Cl 1095   0.764   0.997   2.857
    2MOL1    Cl 1096   0.925   0.791   2.730
    2MOL1     H 1097   0.990   1.008   2.793
    2MOL1    Cl 1098   4.658   1.134   3.581
    2MOL1     C 1099   4.715   0.988   3.664
    2MOL1    Cl 1100   4.701   0.847   3.558
    2MOL1    Cl 1101   4.883   1.008   3.718
    2MOL1     H 1102   4.653   0.971   3.752
    2MOL1    Cl 1103   4.904   4.844   0.646
    2MOL1     C 1104   5.075   4.802   0.659
    2MOL1    Cl 1105   5.105   4.640   0.592
    2MOL1    Cl 1106   5.176   4.923   0.577
    2MOL1     H 1107   5.102   4.801   0.765
    2MOL1    Cl 1108   0.559   3.313   0.142
    2MOL1     C 1109   0.706   3.377   0.217
    2MOL1    Cl 1110   0.670   3.442   0.378
    2MOL1    Cl 1111   0.830   3.251   0.227
    2MOL1     H 1112   0.744   3.458   0.155
    2MOL1    Cl 1113   1.068   2.574   4.754
    2MOL1     C 1114   1.221   2.486   4.762
    2MOL1    Cl 1115   1.347   2.571   4.670
    2MOL1    Cl 1116   1.271   2.464   4.930
    2MOL1     H 1117   1.206   2.387   4.717
    2MOL1    Cl 1118   1.522   4.238   0.003
    2MOL1     C 1119   1.654   4.235   0.121
    2MOL1    Cl 1120   1.753   4.381   0.109
    2MOL1    Cl 1121   1.589   4.217   0.285
    2MOL1     H 1122   1.717   4.148   0.100
    2MOL1    Cl 1123   0.830   3.471   0.514
    2MOL1     C 1124   0.885   3.321   0.591
    2MOL1    Cl 1125   0.894   3.189   0.473
    2MOL1    Cl 1126   1.041   3.345   0.670
    2MOL1     H 1127   0.812   3.293   0.667
    2MOL1    Cl 1128   4.165   1.780   2.569
    2MOL1     C 1129   4.254   1.634   2.615
    2MOL1    Cl 1130   4.258   1.518   2.481
    2MOL1    Cl 1131   4.418   1.675   2.668
    2MOL1     H 1132   4.201   1.588   2.699
    2MOL1    Cl 1133   2.106   0.528   4.524
    2MOL1     C 1134   2.162   0.624   4.387
    2MOL1    Cl 1135   2.269   0.528   4.283
    2MOL1    Cl 1136   2.024   0.686   4.294
    2MOL1     H 1137   2.218   0.710   4.425
    2MOL1    Cl 1138   0.490   0.350   2.607
    2MOL1     C 1139   0.404   0.196   2.617
    2MOL1    Cl 1140   0.229   0.221   2.597
    2MOL1    Cl 1141   0.464   0.082   2.495
    2MOL1     H 1142   0.421   0.153   2.716
    2MOL1    Cl 1143   1.716   4.626   4.456
    2MOL1     C 1144   1.857   4.522   4.476
    2MOL1    Cl 1145   1.973   4.594   4.589
    2MOL1    Cl 1146   1.808   4.361   4.532
    2MOL1     H 1147   1.906   4.511   4.379
    2MOL1    Cl 1148   4.187   4.762   1.613
    2MOL1     C 1149   4.255   4.621   1.530
    2MOL1    Cl 1150   4.332   4.670   1.378
    2MOL1    Cl 1151   4.370   4.537   1.634
    2MOL1     H 1152   4.173   4.553   1.506
    2MOL1    Cl 1153   0.980   2.359   0.557
    2MOL1     C 1154   1.128   2.442   0.509
    2MOL1    Cl 1155   1.171   2.402   0.342
    2MOL1    Cl 1156   1.111   2.617   0.529
    2MOL1     H 1157   1.210   2.408   0.574
    2MOL1    Cl 1158   1.236   0.810   4.283
    2MOL1     C 1159   1.336   0.956   4.283
    2MOL1    Cl 1160   1.258   1.085   4.377
    2MOL1    Cl 1161   1.497   0.921   4.348
    2MOL1     H 1162   1.347   0.990   4.180
    2MOL1    Cl 1163   2.037   1.596   0.963
    2MOL1     C 1164   1.894   1.531   0.881
    2MOL1    Cl 1165   1.915   1.358   0.848
    2MOL1    Cl 1166   1.748   1.559   0.978
    2MOL1     H 1167   1.882   1.583   0.785
    2MOL1    Cl 1168   1.295   4.642   1.285
    2MOL1     C 1169   1.302   4.624   1.461
    2MOL1    Cl 1170   1.401   4.753   1.532
    2MOL1    Cl 1171   1.139   4.626   1.530
    2MOL1     H 1172   1.349   4.528   1.484
    2MOL1    Cl 1173   4.971   2.877   2.648
    2MOL1     C 1174   5.074   2.732   2.647
    2MOL1    Cl 1175   4.984   2.591   2.704
    2MOL1    Cl 1176   5.138   2.703   2.485
    2MOL1     H 1177   5.158   2.749   2.715
    2MOL1    Cl 1178   0.779   2.363   0.216
    2MOL1     C 1179   0.922   2.466   0.196
    2MOL1    Cl 1180   1.066   2.366   0.172
    2MOL1    Cl 1181   0.900   2.578   0.062
    2MOL1     H 1182   0.935   2.524   0.288
    2MOL1    Cl 1183   3.640   4.860   3.394
    2MOL1     C 1184   3.661   4.686   3.419
    2MOL1    Cl 1185   3.741   4.654   3.574
    2MOL1    Cl 1186   3.505   4.603   3.411
    2MOL1     H 1187   3.724   4.647   3.339
    2MOL1    Cl 1188   2.150   0.926   2.534
    2MOL1     C 1189   2.160   1.040   2.398
    2MOL1    Cl 1190   2.279   1.167   2.431
    2MOL1    Cl 1191   2.201   0.954   2.248
    2MOL1     H 1192   2.062   1.087   2.385
    2MOL1    Cl 1193   0.831   4.484   4.526
    2MOL1     C 1194   0.691   4.590   4.498
    2MOL1    Cl 1195   0.604   4.540   4.352
    2MOL1    Cl 1196   0.583   4.588   4.639
    2MOL1     H 1197   0.727   4.692   4.484
    2MOL1    Cl 1198   1.909   4.881   4.017
    2MOL1     C 1199   2.056   4.856   3.922
    2MOL1    Cl 1200   2.179   4.772   4.018
    2MOL1    Cl 1201   2.020   4.765   3.774
    2MOL1     H 1202   2.096   4.954   3.893
    2MOL1    Cl 1203   1.101   0.244   1.363
    2MOL1     C 1204   1.190   0.356   1.259
    2MOL1    Cl 1205   1.093   0.499   1.224
    2MOL1    Cl 1206   1.344   0.402   1.335
    2MOL1     H 1207   1.213   0.305   1.165
    2MOL1    Cl 1208   2.756   3.075   1.143
    2MOL1     C 1209   2.582   3.102   1.151
    2MOL1    Cl 1210   2.494   2.948   1.145
    2MOL1    Cl 1211   2.538   3.192   1.297
    2MOL1     H 1212   2.552   3.162   1.064
    2MOL1    Cl 1213   1.327   3.816   1.474
    2MOL1     C 1214   1.205   3.939   1.508
    2MOL1    Cl 1215   1.152   3.931   1.677
    2MOL1    Cl 1216   1.267   4.101   1.470
    2MOL1     H 1217   1.118   3.920   1.444
    2MOL1    Cl 1218   3.772   2.562   2.124
    2MOL1     C 1219   3.787   2.396   2.062
    2MOL1    Cl 1220   3.649   2.355   1.959
    2MOL1    Cl 1221   3.939   2.377   1.973
    2MOL1     H 1222   3.788   2.328   2.147
    2MOL1    Cl 1223   2.780   2.302   1.217
    2MOL1     C 1224   2.740   2.473   1.233
    2MOL1    Cl 1225   2.640   2.501   1.376
    2MOL1    Cl 1226   2.888   2.571   1.241
    2MOL1     H 1227   2.683   2.504   1.145
    2MOL1    Cl 1228   2.581   3.524   4.315
    2MOL1     C 1229   2.756   3.509   4.293
    2MOL1    Cl 1230   2.811   3.346   4.333
    2MOL1    Cl 1231   2.802   3.551   4.126
    2MOL1     H 1232   2.805   3.580   4.360
    2MOL1    Cl 1233   1.310   2.805   4.033
    2MOL1     C 1234   1.151   2.793   4.111
    2MOL1    Cl 1235   1.164   2.716   4.270
    2MOL1    Cl 1236   1.077   2.953   4.126
    2MOL1     H 1237   1.086   2.731   4.048
    2MOL1    Cl 1238   1.363   2.897   3.364
    2MOL1     C 1239   1.513   2.919   3.455
    2MOL1    Cl 1240   1.612   3.046   3.382
    2MOL1    Cl 1241   1.477   2.958   3.625
    2MOL1     H 1242   1.569   2.826   3.452
    2MOL1    Cl 1243   3.976   4.755   3.880
    2MOL1     C 1244   3.804   4.764   3.920
    2MOL1    Cl 1245   3.746   4.607   3.978
    2MOL1    Cl 1246   3.774   4.890   4.041
    2MOL1     H 1247   3.749   4.790   3.829
    2MOL1    Cl 1248   0.325   3.257   0.586
    2MOL1     C 1249   0.164   3.220   0.521
    2MOL1    Cl 1250   0.096   3.360   0.437
    2MOL1    Cl 1251   0.173   3.080   0.412
    2MOL1     H 1252   0.098   3.194   0.604
    2MOL1    Cl 1253   1.583   2.185   5.152
    2MOL1     C 1254   1.459   2.278   5.066
    2MOL1    Cl 1255   1.320   2.175   5.028
    2MOL1    Cl 1256   1.410   2.418   5.161
    2MOL1     H 1257   1.502   2.313   4.972
    2MOL1    Cl 1258   0.192   2.042   2.998
    2MOL1     C 1259   0.310   1.944   3.086
    2MOL1    Cl 1260   0.400   2.044   3.201
    2MOL1    Cl 1261   0.230   1.810   3.169
    2MOL1     H 1262   0.381   1.903   3.014
    2MOL1    Cl 1263   3.700   0.091   4.957
    2MOL1     C 1264   3.627   0.251   4.944
    2MOL1    Cl 1265   3.570   0.308   5.102
    2MOL1    Cl 1266   3.742   0.366   4.874
    2MOL1     H 1267   3.541   0.244   4.877
    2MOL1    Cl 1268   1.824   2.853   1.945
    2MOL1     C 1269   1.808   2.829   2.120
    2MOL1    Cl 1270   1.645   2.774   2.161
    2MOL1    Cl 1271   1.929   2.714   2.179
    2MOL1     H 1272   1.825   2.925   2.169
    2MOL1    Cl 1273   4.142   0.606   4.387
    2MOL1     C 1274   4.150   0.681   4.227
    2MOL1    Cl 1275   4.070   0.580   4.106
    2MOL1    Cl 1276   4.078   0.843   4.231
    2MOL1     H 1277   4.255   0.692   4.199
    2MOL1    Cl 1278   0.357   3.793   1.573
    2MOL1     C 1279   0.296   3.640   1.639
    2MOL1    Cl 1280   0.190   3.560   1.523
    2MOL1    Cl 1281   0.431   3.534   1.684
    2MOL1     H 1282   0.238   3.662   1.729
    2MOL1    Cl 1283   0.314   1.772   0.874
    2MOL1     C 1284   0.246   1.615   0.919
    2MOL1    Cl 1285   0.372   1.490   0.920
    2MOL1    Cl 1286   0.167   1.625   1.077
    2MOL1     H 1287   0.171   1.588   0.845
    2MOL1    Cl 1288   3.865   2.611   2.907
    2MOL1     C 1289   3.693   2.580   2.879
    2MOL1    Cl 1290   3.657   2.578   2.706
    2MOL1    Cl 1291   3.644   2.427   2.954
    2MOL1     H 1292   3.635   2.660   2.925
    2MOL1    Cl 1293   0.384   5.010   2.794
    2MOL1     C 1294   0.300   4.863   2.846
    2MOL1    Cl 1295   0.125   4.881   2.824
    2MOL1    Cl 1296   0.360   4.722   2.758
    2MOL1     H 1297   0.320   4.848   2.953
    2MOL1    Cl 1298   0.066   4.507   2.387
    2MOL1     C 1299   0.115   4.628   2.506
    2MOL1    Cl 1300   0.028   4.781   2.478
    2MOL1    Cl 1301   0.087   4.570   2.671
    2MOL1     H 1302   0.222   4.647   2.494
    2MOL1    Cl 1303   0.715   2.504   2.516
    2MOL1     C 1304   0.558   2.422   2.505
    2MOL1    Cl 1305   0.442   2.521   2.415
    2MOL1    Cl 1306   0.576   2.263   2.429
    2MOL1     H 1307   0.520   2.407   2.606
    2MOL1    Cl 1308   0.778   4.053   2.748
    2MOL1     C 1309   0.644   4.032   2.862
    2MOL1    Cl 1310   0.556   3.881   2.828
    2MOL1    Cl 1311   0.703   4.033   3.029
    2MOL1     H 1312   0.574   4.115   2.849
    2MOL1    Cl 1313   2.289   0.607   3.981
    2MOL1     C 1314   2.374   0.752   4.038
    2MOL1    Cl 1315   2.549   0.733   4.018
    2MOL1    Cl 1316   2.316   0.895   3.951
    2MOL1     H 1317   2.352   0.765   4.144
    2MOL1    Cl 1318   1.887   1.895   2.166
    2MOL1     C 1319   1.722   1.833   2.150
    2MOL1    Cl 1320   1.661   1.779   2.308
    2MOL1    Cl 1321   1.616   1.956   2.081
    2MOL1     H 1322   1.724   1.747   2.083
    2MOL1    Cl 1323   0.954   3.143   2.219
    2MOL1     C 1324   1.005   3.227   2.366
    2MOL1    Cl 1325   1.150   3.324   2.335
    2MOL1    Cl 1326   0.874   3.329   2.428
    2MOL1     H 1327   1.029   3.152   2.442
    2MOL1    Cl 1328   4.708   3.887   3.225
    2MOL1     C 1329   4.755   3.736   3.144
    2MOL1    Cl 1330   4.655   3.708   3.001
    2MOL1    Cl 1331   4.927   3.740   3.100
    2MOL1     H 1332   4.740   3.653   3.214
    2MOL1    Cl 1333   4.330   1.172   4.591
    2MOL1     C 1334   4.328   1.001   4.546
    2MOL1    Cl 1335   4.205   0.970   4.422
    2MOL1    Cl 1336   4.488   0.949   4.489
    2MOL1     H 1337   4.303   0.942   4.634
    2MOL1    Cl 1338   0.321   2.999   4.649
    2MOL1     C 1339   0.173   3.095   4.634
    2MOL1    Cl 1340   0.150   3.148   4.466
    2MOL1    Cl 1341   0.033   3.003   4.691
    2MOL1     H 1342   0.184   3.184   4.696
    2MOL1    Cl 1343   0.908   1.829   0.205
    2MOL1     C 1344   1.041   1.843   0.320
    2MOL1    Cl 1345   1.197   1.846   0.236
    2MOL1    Cl 1346   1.022   1.988   0.420
    2MOL1     H 1347   1.039   1.756   0.386
    2MOL1    Cl 1348   1.788   2.220   1.794
    2MOL1     C 1349   1.949   2.146   1.787
    2MOL1    Cl 1350   1.942   1.977   1.840
    2MOL1    Cl 1351   2.016   2.157   1.623
    2MOL1     H 1352   2.015   2.200   1.855
    2MOL1    Cl 1353   2.476   4.450   3.716
    2MOL1     C 1354   2.512   4.465   3.889
    2MOL1    Cl 1355   2.628   4.342   3.940
    2MOL1    Cl 1356   2.573   4.627   3.926
    2MOL1     H 1357   2.418   4.450   3.944
    2MOL1    Cl 1358   3.085   0.459   1.700
    2MOL1     C 1359   3.201   0.571   1.775
    2MOL1    Cl 1360   3.364   0.545   1.710
    2MOL1    Cl 1361   3.150   0.739   1.750
    2MOL1     H 1362   3.202   0.551   1.882
    2MOL1    Cl 1363   2.416   4.939   4.824
    2MOL1     C 1364   2.488   4.814   4.926
    2MOL1    Cl 1365   2.640   4.871   4.998
    2MOL1    Cl 1366   2.375   4.764   5.053
    2MOL1     H 1367   2.510   4.727   4.864
    2MOL1    Cl 1368   2.738   2.055   3.448
    2MOL1     C 1369   2.694   1.890   3.494
    2MOL1    Cl 1370   2.611   1.888   3.651
    2MOL1    Cl 1371   2.592   1.815   3.369
    2MOL1     H 1372   2.786   1.831   3.503
    2MOL1    Cl 1373   0.711   1.835   4.962
    2MOL1     C 1374   0.879   1.829   5.018
    2MOL1    Cl 1375   0.897   1.709   5.148
    2MOL1    Cl 1376   0.988   1.792   4.884
    2MOL1     H 1377   0.905   1.927   5.058
    2MOL1    Cl 1378   3.158   0.992   3.132
    2MOL1     C 1379   3.152   1.169   3.137
    2MOL1    Cl 1380   3.292   1.239   3.054
    2MOL1    Cl 1381   3.001   1.228   3.065
    2MOL1     H 1382   3.155   1.200   3.242
    2MOL1    Cl 1383   3.595   0.814   1.711
    2MOL1     C 1384   3.753   0.802   1.634
    2MOL1    Cl 1385   3.877   0.881   1.733
    2MOL1    Cl 1386   3.796   0.632   1.605
    2MOL1     H 1387   3.749   0.852   1.537
    2MOL1    Cl 1388   0.506   0.293   0.703
    2MOL1     C 1389   0.468   0.455   0.644
    2MOL1    Cl 1390   0.587   0.507   0.524
    2MOL1    Cl 1391   0.305   0.460   0.575
    2MOL1     H 1392   0.471   0.525   0.728
    2MOL1    Cl 1393   0.711   3.865   3.644
    2MOL1     C 1394   0.853   3.819   3.740
    2MOL1    Cl 1395   1.002   3.849   3.650
    2MOL1    Cl 1396   0.854   3.907   3.894
    2MOL1     H 1397   0.846   3.712   3.761
    2MOL1    Cl 1398   5.320   4.214   4.351
    2MOL1     C 1399   5.169   4.238   4.441
    2MOL1    Cl 1400   5.110   4.404   4.420
    2MOL1    Cl 1401   5.047   4.121   4.389
    2MOL1     H 1402   5.190   4.222   4.547
    2MOL1    Cl 1403   3.806   1.715   0.795
    2MOL1     C 1404   3.751   1.797   0.942
    2MOL1    Cl 1405   3.889   1.859   1.035
    2MOL1    Cl 1406   3.639   1.929   0.902
    2MOL1     H 1407   3.698   1.725   1.004
    2MOL1    Cl 1408   3.283   4.555   3.845
    2MOL1     C 1409   3.418   4.606   3.741
    2MOL1    Cl 1410   3.535   4.701   3.834
    2MOL1    Cl 1411   3.496   4.466   3.667
    2MOL1     H 1412   3.377   4.669   3.662
    2MOL1    Cl 1413   1.527   4.704   3.218
    2MOL1     C 1414   1.700   4.740   3.234
    2MOL1    Cl 1415   1.726   4.867   3.355
    2MOL1    Cl 1416   1.790   4.594   3.278
    2MOL1     H 1417   1.737   4.775   3.138
    2MOL1    Cl 1418   2.433   0.588   2.568
    2MOL1     C 1419   2.603   0.561   2.607
    2MOL1    Cl 1420   2.618   0.482   2.765
    2MOL1    Cl 1421   2.682   0.463   2.482
    2MOL1     H 1422   2.653   0.657   2.612
    2MOL1    Cl 1423   3.388   2.205   4.383
    2MOL1     C 1424   3.334   2.151   4.223
    2MOL1    Cl 1425   3.175   2.072   4.235
    2MOL1    Cl 1426   3.328   2.287   4.110
    2MOL1     H 1427   3.405   2.077   4.186
    2MOL1    Cl 1428   2.875   2.488   0.509
    2MOL1     C 1429   2.877   2.357   0.628
    2MOL1    Cl 1430   2.952   2.412   0.780
    2MOL1    Cl 1431   2.713   2.297   0.658
    2MOL1     H 1432   2.937   2.275   0.588
    2MOL1    Cl 1433   1.468   0.461   4.914
    2MOL1     C 1434   1.579   0.598   4.898
    2MOL1    Cl 1435   1.516   0.740   4.982
    2MOL1    Cl 1436   1.740   0.555   4.959
    2MOL1     H 1437   1.589   0.622   4.792
    2MOL1    Cl 1438   0.661   1.734   1.612
    2MOL1     C 1439   0.782   1.638   1.698
    2MOL1    Cl 1440   0.759   1.466   1.666
    2MOL1    Cl 1441   0.946   1.689   1.652
    2MOL1     H 1442   0.770   1.655   1.805
    2MOL1    Cl 1443   5.118   3.283   0.384
    2MOL1     C 1444   4.983   3.201   0.304
    2MOL1    Cl 1445   4.983   3.235   0.130
    2MOL1    Cl 1446   4.990   3.027   0.334
    2MOL1     H 1447   4.890   3.240   0.347
    2MOL1    Cl 1448   0.521   1.670   3.926
    2MOL1     C 1449   0.671   1.706   4.012
    2MOL1    Cl 1450   0.640   1.809   4.153
    2MOL1    Cl 1451   0.753   1.556   4.060
    2MOL1     H 1452   0.738   1.761   3.944
    2MOL1    Cl 1453   1.036   0.707   0.326
    2MOL1     C 1454   0.959   0.818   0.442
    2MOL1    Cl 1455   0.916   0.733   0.591
    2MOL1    Cl 1456   1.066   0.955   0.477
    2MOL1     H 1457   0.868   0.857   0.396
    2MOL1    Cl 1458   3.390   5.054   4.902
    2MOL1     C 1459   3.499   4.917   4.927
    2MOL1    Cl 1460   3.450   4.823   5.069
    2MOL1    Cl 1461   3.503   4.814   4.782
    2MOL1     H 1462   3.600   4.955   4.944
    2MOL1    Cl 1463   3.291   3.970   3.617
    2MOL1     C 1464   3.125   3.923   3.656
    2MOL1    Cl 1465   3.124   3.776   3.756
    2MOL1    Cl 1466   3.041   4.055   3.739
    2MOL1     H 1467   3.072   3.901   3.563
    2MOL1    Cl 1468   2.964   4.220   3.387
    2MOL1     C 1469   2.848   4.295   3.277
    2MOL1    Cl 1470   2.683   4.241   3.314
    2MOL1    Cl 1471   2.859   4.471   3.284
    2MOL1     H 1472   2.872   4.263   3.175
    2MOL1    Cl 1473   3.360   1.362   2.804
    2MOL1     C 1474   3.518   1.353   2.725
    2MOL1    Cl 1475   3.500   1.313   2.553
    2MOL1    Cl 1476   3.606   1.505   2.744
    2MOL1     H 1477   3.576   1.274   2.773
    2MOL1    Cl 1478   4.466   2.108   5.291
    2MOL1     C 1479   4.564   2.084   5.145
    2MOL1    Cl 1480   4.722   2.015   5.186
    2MOL1    Cl 1481   4.479   1.980   5.029
    2MOL1     H 1482   4.580   2.182   5.098
    2MOL1    Cl 1483   3.298   2.135   0.904
    2MOL1     C 1484   3.210   2.216   0.774
    2MOL1    Cl 1485   3.188   2.388   0.811
    2MOL1    Cl 1486   3.296   2.196   0.620
    2MOL1     H 1487   3.112   2.170   0.764
    2MOL1    Cl 1488   4.727   4.881   1.528
    2MOL1     C 1489   4.572   4.796   1.537
    2MOL1    Cl 1490   4.582   4.660   1.651
    2MOL1    Cl 1491   4.442   4.907   1.583
    2MOL1     H 1492   4.549   4.755   1.438
    2MOL1    Cl 1493   4.757   0.841   3.290
    2MOL1     C 1494   4.643   0.714   3.242
    2MOL1    Cl 1495   4.704   0.554   3.289
    2MOL1    Cl 1496   4.483   0.743   3.314
    2MOL1     H 1497   4.632   0.716   3.133
    2MOL1    Cl 1498   3.549   2.051   0.387
    2MOL1     C 1499   3.556   2.226   0.410
    2MOL1    Cl 1500   3.574   2.265   0.582
    2MOL1    Cl 1501   3.690   2.296   0.317
    2MOL1     H 1502   3.463   2.270   0.375
    2MOL1    Cl 1503   1.656   0.041   2.674
    2MOL1     C 1504   1.766   0.172   2.721
    2MOL1    Cl 1505   1.717   0.243   2.875
    2MOL1    Cl 1506   1.933   0.112   2.730
    2MOL1     H 1507   1.762   0.249   2.644
    2MOL1    Cl 1508   1.277   4.832   5.034
    2MOL1     C 1509   1.284   4.698   5.150
    2MOL1    Cl 1510   1.451   4.669   5.201
    2MOL1    Cl 1511   1.181   4.732   5.290
    2MOL1     H 1512   1.247   4.608   5.100
    2MOL1    Cl 1513   5.088   0.462   4.503
    2MOL1     C 1514   5.126   0.289   4.501
    2MOL1    Cl 1515   5.246   0.250   4.625
    2MOL1    Cl 1516   4.979   0.192   4.524
    2MOL1     H 1517   5.168   0.264   4.403
    2MOL1    Cl 1518   4.479   4.980   0.331
    2MOL1     C 1519   4.364   4.873   0.250
    2MOL1    Cl 1520   4.416   4.841   0.083
    2MOL1    Cl 1521   4.346   4.721   0.339
    2MOL1     H 1522   4.267   4.923   0.246
    2MOL1    Cl 1523   0.693   2.715   4.074
    2MOL1     C 1524   0.603   2.645   3.939
    2MOL1    Cl 1525   0.582   2.470   3.961
    2MOL1    Cl 1526   0.446   2.725   3.921
    2MOL1     H 1527   0.660   2.661   3.847
    2MOL1    Cl 1528   3.943   1.219   1.730
    2MOL1     C 1529   4.036   1.362   1.685
    2MOL1    Cl 1530   4.180   1.377   1.787
    2MOL1    Cl 1531   4.081   1.357   1.514
    2MOL1     H 1532   3.973   1.450   1.701
    2MOL1    Cl 1533   1.326   4.942   0.484
    2MOL1     C 1534   1.480   4.926   0.398
    2MOL1    Cl 1535   1.499   4.761   0.335
    2MOL1    Cl 1536   1.491   5.044   0.266
    2MOL1     H 1537   1.561   4.945   0.468
    2MOL1    Cl 1538   3.187   1.078   3.904
    2MOL1     C 1539   3.321   1.141   4.003
    2MOL1    Cl 1540   3.307   1.316   4.023
    2MOL1    Cl 1541   3.325   1.060   4.160
    2MOL1     H 1542   3.415   1.119   3.950
    2MOL1    Cl 1543   4.702   3.524   3.544
    2MOL1     C 1544   4.645   3.558   3.708
    2MOL1    Cl 1545   4.490   3.478   3.738
    2MOL1    Cl 1546   4.766   3.507   3.828
    2MOL1     H 1547   4.631   3.666   3.718
    2MOL1    Cl 1548   1.260   0.929   0.723
    2MOL1     C 1549   1.370   0.818   0.640
    2MOL1    Cl 1550   1.280   0.681   0.572
    2MOL1    Cl 1551   1.459   0.903   0.513
    2MOL1     H 1552   1.441   0.779   0.712
    2MOL1    Cl 1553   1.262   1.964   1.247
    2MOL1     C 1554   1.405   1.949   1.145
    2MOL1    Cl 1555   1.533   1.860   1.229
    2MOL1    Cl 1556   1.365   1.870   0.991
    2MOL1     H 1557   1.442   2.050   1.123
    2MOL1    Cl 1558   3.574   2.938   2.339
    2MOL1     C 1559   3.487   3.084   2.390
    2MOL1    Cl 1560   3.423   3.063   2.554
    2MOL1    Cl 1561   3.593   3.226   2.382
    2MOL1     H 1562   3.403   3.099   2.322
    2MOL1    Cl 1563   3.137   3.692   2.804
    2MOL1     C 1564   3.252   3.562   2.836
    2MOL1    Cl 1565   3.324   3.580   2.997
    2MOL1    Cl 1566   3.174   3.403   2.820
    2MOL1     H 1567   3.332   3.568   2.762
    2MOL1    Cl 1568   1.338   1.121   0.156
    2MOL1     C 1569   1.321   1.196   0.315
    2MOL1    Cl 1570   1.477   1.198   0.400
    2MOL1    Cl 1571   1.257   1.361   0.301
    2MOL1     H 1572   1.251   1.137   0.374
    2MOL1    Cl 1573   3.048   0.415   0.897
    2MOL1     C 1574   3.062   0.241   0.865
    2MOL1    Cl 1575   3.169   0.165   0.984
    2MOL1    Cl 1576   2.903   0.165   0.866
    2MOL1     H 1577   3.106   0.228   0.766
    2MOL1    Cl 1578   2.166   2.474   4.285
    2MOL1     C 1579   2.031   2.477   4.170
    2MOL1    Cl 1580   2.038   2.337   4.062
    2MOL1    Cl 1581   1.876   2.481   4.256
    2MOL1     H 1582   2.039   2.568   4.110
    2MOL1    Cl 1583   2.897   3.921   2.052
    2MOL1     C 1584   2.944   3.762   1.990
    2MOL1    Cl 1585   2.940   3.760   1.813
    2MOL1    Cl 1586   3.105   3.717   2.049
    2MOL1     H 1587   2.873   3.688   2.027
    2MOL1    Cl 1588   4.770   0.690   4.205
    2MOL1     C 1589   4.709   0.541   4.131
    2MOL1    Cl 1590   4.606   0.578   3.991
    2MOL1    Cl 1591   4.844   0.436   4.083
    2MOL1     H 1592   4.649   0.488   4.205
    2MOL1    Cl 1593   4.636   2.876   4.881
    2MOL1     C 1594   4.650   3.031   4.797
    2MOL1    Cl 1595   4.805   3.109   4.833
    2MOL1    Cl 1596   4.630   3.010   4.622
    2MOL1     H 1597   4.570   3.097   4.833
    2MOL1    Cl 1598   1.009   4.529   2.446
    2MOL1     C 1599   1.098   4.672   2.390
    2MOL1    Cl 1600   1.027   4.734   2.240
    2MOL1    Cl 1601   1.099   4.798   2.515
    2MOL1     H 1602   1.201   4.643   2.370
    2MOL1    Cl 1603   5.185   0.399   0.384
    2MOL1     C 1604   5.126   0.233   0.364
    2MOL1    Cl 1605   5.028   0.219   0.217
    2MOL1    Cl 1606   5.261   0.119   0.361
    2MOL1     H 1607   5.062   0.209   0.450
    2MOL1    Cl 1608   4.564   0.323   3.614
    2MOL1     C 1609   4.602   0.492   3.651
    2MOL1    Cl 1610   4.483   0.558   3.765
    2MOL1    Cl 1611   4.766   0.506   3.717
    2MOL1     H 1612   4.597   0.550   3.559
    2MOL1    Cl 1613   3.669   5.034   4.598
    2MOL1     C 1614   3.616   5.122   4.454
    2MOL1    Cl 1615   3.719   5.085   4.315
    2MOL1    Cl 1616   3.446   5.084   4.417
    2MOL1     H 1617   3.623   5.229   4.474
    2MOL1    Cl 1618   1.475   2.008   1.390
    2MOL1     C 1619   1.422   1.941   1.545
    2MOL1    Cl 1620   1.301   1.813   1.519
    2MOL1    Cl 1621   1.560   1.878   1.637
    2MOL1     H 1622   1.375   2.020   1.604
    2MOL1    Cl 1623   5.336   0.352   1.555
    2MOL1     C 1624   5.279   0.211   1.465
    2MOL1    Cl 1625   5.327   0.061   1.546
    2MOL1    Cl 1626   5.103   0.217   1.445
    2MOL1     H 1627   5.324   0.213   1.365
    2MOL1    Cl 1628   3.405   1.931   2.890
    2MOL1     C 1629   3.327   1.820   2.775
    2MOL1    Cl 1630   3.396   1.658   2.789
    2MOL1    Cl 1631   3.152   1.817   2.801
    2MOL1     H 1632   3.346   1.857   2.674
    2MOL1    Cl 1633   3.580   0.252   0.521
    2MOL1     C 1634   3.627   0.423   0.529
    2MOL1    Cl 1635   3.621   0.497   0.368
    2MOL1    Cl 1636   3.523   0.511   0.642
    2MOL1     H 1637   3.730   0.429   0.565
    2MOL1    Cl 1638   0.598   1.548   2.009
    2MOL1     C 1639   0.669   1.386   1.998
    2MOL1    Cl 1640   0.596   1.278   2.118
    2MOL1    Cl 1641   0.650   1.321   1.835
    2MOL1     H 1642   0.776   1.394   2.020
    2MOL1    Cl 1643   2.942   3.752   1.319
    2MOL1     C 1644   2.780   3.823   1.324
    2MOL1    Cl 1645   2.656   3.697   1.314
    2MOL1    Cl 1646   2.758   3.920   1.471
    2MOL1     H 1647   2.768   3.889   1.238
    2MOL1    Cl 1648   2.303   2.424   4.426
    2MOL1     C 1649   2.431   2.546   4.426
    2MOL1    Cl 1650   2.551   2.511   4.300
    2MOL1    Cl 1651   2.364   2.708   4.404
    2MOL1     H 1652   2.482   2.543   4.523
    2MOL1    Cl 1653   0.771   2.104   0.824
    2MOL1     C 1654   0.682   1.975   0.907
    2MOL1    Cl 1655   0.783   1.900   1.032
    2MOL1    Cl 1656   0.532   2.037   0.976
    2MOL1     H 1657   0.657   1.898   0.833
    2MOL1    Cl 1658   2.583   0.660   1.643
    2MOL1     C 1659   2.544   0.487   1.645
    2MOL1    Cl 1660   2.593   0.410   1.493
    2MOL1    Cl 1661   2.620   0.407   1.783
    2MOL1     H 1662   2.435   0.477   1.655
    2MOL1    Cl 1663   2.353   3.710   0.101
    2MOL1     C 1664   2.476   3.609   0.177
    2MOL1    Cl 1665   2.573   3.704   0.291
    2MOL1    Cl 1666   2.401   3.471   0.260
    2MOL1     H 1667   2.542   3.570   0.099
    2MOL1    Cl 1668   0.117   3.599   5.035
    2MOL1     C 1669   0.159   3.438   4.974
    2MOL1    Cl 1670   0.063   3.398   4.831
    2MOL1    Cl 1671   0.332   3.429   4.937
    2MOL1     H 1672   0.137   3.365   5.052
    2MOL1    Cl 1673   3.935   1.856   1.684
    2MOL1     C 1674   3.825   1.852   1.823
    2MOL1    Cl 1675   3.855   1.708   1.923
    2MOL1    Cl 1676   3.842   1.999   1.920
    2MOL1     H 1677   3.723   1.847   1.786
    2MOL1    Cl 1678   2.316   2.985   2.782
    2MOL1     C 1679   2.249   2.823   2.758
    2MOL1    Cl 1680   2.360   2.699   2.819
    2MOL1    Cl 1681   2.091   2.808   2.835
    2MOL1     H 1682   2.237   2.807   2.650
    2MOL1    Cl 1683   4.575   2.990   0.772
    2MOL1     C 1684   4.530   2.819   0.782
    2MOL1    Cl 1685   4.658   2.725   0.860
    2MOL1    Cl 1686   4.376   2.801   0.868
    2MOL1     H 1687   4.517   2.781   0.680
    2MOL1    Cl 1688   5.007   4.341   1.661
    2MOL1     C 1689   5.100   4.274   1.796
    2MOL1    Cl 1690   5.096   4.383   1.936
    2MOL1    Cl 1691   5.039   4.113   1.840
    2MOL1     H 1692   5.204   4.263   1.764
    2MOL1    Cl 1693   3.119   1.646   3.754
    2MOL1     C 1694   3.288   1.693   3.773
    2MOL1    Cl 1695   3.302   1.830   3.885
    2MOL1    Cl 1696   3.385   1.556   3.830
    2MOL1     H 1697   3.327   1.724   3.676
    2MOL1    Cl 1698   0.883   3.930   2.489
    2MOL1     C 1699   0.929   3.769   2.432
    2MOL1    Cl 1700   0.836   3.726   2.287
    2MOL1    Cl 1701   1.103   3.761   2.399
    2MOL1     H 1702   0.905   3.696   2.510
    2MOL1    Cl 1703   3.025   4.044   2.379
    2MOL1     C 1704   3.056   4.194   2.291
    2MOL1    Cl 1705   3.197   4.278   2.359
    2MOL1    Cl 1706   3.081   4.160   2.118
    2MOL1     H 1707   2.969   4.259   2.301
    2MOL1    Cl 1708   1.175   2.927   2.322
    2MOL1     C 1709   1.303   3.048   2.346
    2MOL1    Cl 1710   1.313   3.095   2.516
    2MOL1    Cl 1711   1.458   2.985   2.289
    2MOL1     H 1712   1.277   3.136   2.287
    2MOL1    Cl 1713   4.496   0.285   5.140
    2MOL1     C 1714   4.606   0.151   5.178
    2MOL1    Cl 1715   4.730   0.202   5.294
    2MOL1    Cl 1716   4.516   0.012   5.241
    2MOL1     H 1717   4.656   0.120   5.086
    2MOL1    Cl 1718   4.275   4.842   2.444
    2MOL1     C 1719   4.144   4.954   2.409
    2MOL1    Cl 1720   4.058   4.906   2.261
    2MOL1    Cl 1721   4.031   4.964   2.545
    2MOL1     H 1722   4.187   5.054   2.393
    2MOL1    Cl 1723   1.417   5.193   3.029
    2MOL1     C 1724   1.436   5.028   3.091
    2MOL1    Cl 1725   1.548   5.025   3.228
    2MOL1    Cl 1726   1.279   4.961   3.138
    2MOL1     H 1727   1.477   4.966   3.011
    2MOL1    Cl 1728   3.303   4.890   3.809
    2MOL1     C 1729   3.442   4.990   3.765
    2MOL1    Cl 1730   3.459   4.998   3.588
    2MOL1    Cl 1731   3.427   5.152   3.834
    2MOL1     H 1732   3.532   4.943   3.805
    2MOL1    Cl 1733   3.511   2.183   4.755
    2MOL1     C 1734   3.640   2.189   4.876
    2MOL1    Cl 1735   3.796   2.221   4.799
    2MOL1    Cl 1736   3.604   2.311   4.999
    2MOL1     H 1737   3.645   2.091   4.925
    2MOL1    Cl 1738   4.944   4.085   2.473
    2MOL1     C 1739   4.856   4.200   2.575
    2MOL1    Cl 1740   4.740   4.293   2.478
    2MOL1    Cl 1741   4.772   4.114   2.706
    2MOL1     H 1742   4.927   4.269   2.620
    2MOL1    Cl 1743   5.200   3.236   2.383
    2MOL1     C 1744   5.059   3.144   2.438
    2MOL1    Cl 1745   5.099   3.046   2.580
    2MOL1    Cl 1746   4.924   3.252   2.472
    2MOL1     H 1747   5.029   3.076   2.357
    2MOL1    Cl 1748   1.487   2.394   0.863
    2MOL1     C 1749   1.441   2.249   0.954
    2MOL1    Cl 1750   1.522   2.246   1.111
    2MOL1    Cl 1751   1.265   2.241   0.974
    2MOL1     H 1752   1.473   2.161   0.897
    2MOL1    Cl 1753   1.159   1.964   4.239
    2MOL1     C 1754   1.101   1.942   4.073
    2MOL1    Cl 1755   1.237   1.908   3.964
    2MOL1    Cl 1756   0.981   1.812   4.066
    2MOL1     H 1757   1.054   2.035   4.040
    2MOL1    Cl 1758   4.020   3.487   1.322
    2MOL1     C 1759   4.115   3.633   1.290
    2MOL1    Cl 1760   4.104   3.745   1.427
    2MOL1    Cl 1761   4.284   3.592   1.257
    2MOL1     H 1762   4.073   3.682   1.202
    2MOL1    Cl 1763   0.402   5.117   2.216
    2MOL1     C 1764   0.247   5.162   2.143
    2MOL1    Cl 1765   0.245   5.334   2.100
    2MOL1    Cl 1766   0.213   5.062   2.001
    2MOL1     H 1767   0.168   5.144   2.217
    2MOL1    Cl 1768   1.456   2.492   2.020
    2MOL1     C 1769   1.499   2.524   1.851
    2MOL1    Cl 1770   1.666   2.473   1.818
    2MOL1    Cl 1771   1.386   2.442   1.742
    2MOL1     H 1772   1.492   2.632   1.834
    2MOL1    Cl 1773   0.771   2.232   3.996
    2MOL1     C 1774   0.894   2.344   4.055
    2MOL1    Cl 1775   0.827   2.452   4.179
    2MOL1    Cl 1776   1.033   2.255   4.120
    2MOL1     H 1777   0.929   2.405   3.972
    2MOL1    Cl 1778   1.154   0.751   5.138
    2MOL1     C 1779   1.099   0.916   5.172
    2MOL1    Cl 1780   0.928   0.916   5.221
    2MOL1    Cl 1781   1.199   0.991   5.298
    2MOL1     H 1782   1.108   0.975   5.081
    2MOL1    Cl 1783   3.545   3.072   1.079
    2MOL1     C 1784   3.674   2.976   1.004
    2MOL1    Cl 1785   3.812   2.960   1.114
    2MOL1    Cl 1786   3.613   2.816   0.957
    2MOL1     H 1787   3.708   3.028   0.914
    2MOL1    Cl 1788   3.836   4.930   2.986
    2MOL1     C 1789   3.677   4.995   3.027
    2MOL1    Cl 1790   3.667   5.167   2.987
    2MOL1    Cl 1791   3.549   4.904   2.945
    2MOL1     H 1792   3.662   4.984   3.135
    2MOL1    Cl 1793   4.660   3.358   5.121
    2MOL1     C 1794   4.601   3.198   5.166
    2MOL1    Cl 1795   4.424   3.196   5.177
    2MOL1    Cl 1796   4.657   3.076   5.050
    2MOL1     H 1797   4.642   3.172   5.264
    2MOL1    Cl 1798   4.548   2.775   2.831
    2MOL1     C 1799   4.461   2.843   2.969
    2MOL1    Cl 1800   4.293   2.879   2.924
    2MOL1    Cl 1801   4.466   2.733   3.108
    2MOL1     H 1802   4.510   2.937   2.997
    2MOL1    Cl 1803   2.407   4.340   3.531
    2MOL1     C 1804   2.362   4.511   3.524
    2MOL1    Cl 1805   2.237   4.548   3.644
    2MOL1    Cl 1806   2.505   4.614   3.551
    2MOL1     H 1807   2.323   4.533   3.425
    2MOL1    Cl 1808   3.528   2.121   0.862
    2MOL1     C 1809   3.536   2.251   0.981
    2MOL1    Cl 1810   3.680   2.232   1.084
    2MOL1    Cl 1811   3.538   2.409   0.901
    2MOL1     H 1812   3.448   2.246   1.045
    2MOL1    Cl 1813   2.358   2.088   2.778
    2MOL1     C 1814   2.374   2.078   2.602
    2MOL1    Cl 1815   2.338   1.914   2.545
    2MOL1    Cl 1816   2.268   2.196   2.523
    2MOL1     H 1817   2.477   2.101   2.576
    2MOL1    Cl 1818   2.799   2.827   3.398
    2MOL1     C 1819   2.922   2.928   3.476
    2MOL1    Cl 1820   2.879   3.100   3.463
    2MOL1    Cl 1821   2.941   2.881   3.646
    2MOL1     H 1822   3.017   2.912   3.425
    2MOL1    Cl 1823   5.053   1.752   1.718
    2MOL1     C 1824   5.016   1.922   1.688
    2MOL1    Cl 1825   4.944   1.942   1.527
    2MOL1    Cl 1826   4.907   1.986   1.812
    2MOL1     H 1827   5.109   1.979   1.691
    2MOL1    Cl 1828   1.495   1.310   3.630
    2MOL1     C 1829   1.655   1.381   3.606
    2MOL1    Cl 1830   1.776   1.254   3.577
    2MOL1    Cl 1831   1.653   1.496   3.471
    2MOL1     H 1832   1.683   1.435   3.696
    2MOL1    Cl 1833   3.388   4.306   2.118
    2MOL1     C 1834   3.430   4.185   2.239
    2MOL1    Cl 1835   3.421   4.254   2.402
    2MOL1    Cl 1836   3.324   4.044   2.226
    2MOL1     H 1837   3.533   4.153   2.222
    2MOL1    Cl 1838   2.155   3.717   0.592
    2MOL1     C 1839   2.093   3.573   0.510
    2MOL1    Cl 1840   1.956   3.615   0.406
    2MOL1    Cl 1841   2.221   3.495   0.416
    2MOL1     H 1842   2.058   3.503   0.586
    2MOL1    Cl 1843   4.547   2.283   3.214
    2MOL1     C 1844   4.595   2.115   3.242
    2MOL1    Cl 1845   4.737   2.107   3.348
    2MOL1    Cl 1846   4.460   2.023   3.311
    2MOL1     H 1847   4.621   2.070   3.146
    2MOL1    Cl 1848   2.493   4.039   1.399
    2MOL1     C 1849   2.355   3.929   1.386
    2MOL1    Cl 1850   2.211   4.017   1.331
    2MOL1    Cl 1851   2.392   3.795   1.276
    2MOL1     H 1852   2.334   3.888   1.485
    2MOL1    Cl 1853   0.970   4.858   4.614
    2MOL1     C 1854   1.023   4.932   4.766
    2MOL1    Cl 1855   1.181   4.868   4.815
    2MOL1    Cl 1856   1.030   5.109   4.750
    2MOL1     H 1857   0.950   4.908   4.844
    2MOL1    Cl 1858   3.875   3.235   3.633
    2MOL1     C 1859   3.700   3.219   3.660
    2MOL1    Cl 1860   3.666   3.086   3.772
    2MOL1    Cl 1861   3.633   3.371   3.722
    2MOL1     H 1862   3.652   3.197   3.564
    2MOL1    Cl 1863   3.663   3.724   1.298
    2MOL1     C 1864   3.814   3.812   1.272
    2MOL1    Cl 1865   3.845   3.832   1.098
    2MOL1    Cl 1866   3.810   3.969   1.353
    2MOL1     H 1867   3.896   3.754   1.315
    2MOL1    Cl 1868   2.625   1.282   4.116
    2MOL1     C 1869   2.552   1.292   3.955
    2MOL1    Cl 1870   2.386   1.353   3.965
    2MOL1    Cl 1871   2.649   1.395   3.849
    2MOL1     H 1872   2.549   1.191   3.912
    2MOL1    Cl 1873   2.072   3.785   4.818
    2MOL1     C 1874   2.147   3.650   4.906
    2MOL1    Cl 1875   2.053   3.501   4.883
    2MOL1    Cl 1876   2.315   3.627   4.853
    2MOL1     H 1877   2.147   3.675   5.012
    2MOL1    Cl 1878   4.151   3.823   3.091
    2MOL1     C 1879   4.307   3.862   3.167
    2MOL1    Cl 1880   4.322   4.036   3.192
    2MOL1    Cl 1881   4.325   3.774   3.320
    2MOL1     H 1882   4.387   3.830   3.099
    2MOL1    Cl 1883   3.107   1.426   5.052
    2MOL1     C 1884   3.090   1.594   5.001
    2MOL1    Cl 1885   3.179   1.625   4.852
    2MOL1    Cl 1886   2.919   1.636   4.981
    2MOL1     H 1887   3.131   1.658   5.080
    2MOL1    Cl 1888   0.527   0.737   4.118
    2MOL1     C 1889   0.660   0.621   4.130
    2MOL1    Cl 1890   0.598   0.456   4.151
    2MOL1    Cl 1891   0.763   0.630   3.986
    2MOL1     H 1892   0.721   0.646   4.217
    2MOL1    Cl 1893   3.661   0.846   2.169
    2MOL1     C 1894   3.554   0.926   2.052
    2MOL1    Cl 1895   3.487   0.808   1.938
    2MOL1    Cl 1896   3.425   1.013   2.136
    2MOL1     H 1897   3.614   0.999   1.996
    2MOL1    Cl 1898   2.869   4.516   2.522
    2MOL1     C 1899   2.700   4.555   2.487
    2MOL1    Cl 1900   2.690   4.694   2.377
    2MOL1    Cl 1901   2.617   4.415   2.418
    2MOL1     H 1902   2.650   4.582   2.581
    2MOL1    Cl 1903   0.881   1.005   2.322
    2MOL1     C 1904   0.973   1.064   2.183
    2MOL1    Cl 1905   0.914   0.991   2.032
    2MOL1    Cl 1906   0.964   1.241   2.173
    2MOL1     H 1907   1.078   1.036   2.196
    2MOL1    Cl 1908   2.372   4.253   3.294
    2MOL1     C 1909   2.375   4.378   3.169
    2MOL1    Cl 1910   2.480   4.513   3.217
    2MOL1    Cl 1911   2.429   4.310   3.014
    2MOL1     H 1912   2.274   4.417   3.156
    2MOL1    Cl 1913   4.331   2.008   4.838
    2MOL1     C 1914   4.256   1.867   4.763
    2MOL1    Cl 1915   4.345   1.719   4.805
    2MOL1    Cl 1916   4.086   1.853   4.810
    2MOL1     H 1917   4.260   1.879   4.654
    2MOL1    Cl 1918   0.176   0.487   0.337
    2MOL1     C 1919   0.335   0.541   0.282
    2MOL1    Cl 1920   0.339   0.558   0.106
    2MOL1    Cl 1921   0.380   0.693   0.360
    2MOL1     H 1922   0.409   0.465   0.311
    2MOL1    Cl 1923   3.752   3.768   5.272
    2MOL1     C 1924   3.899   3.839   5.205
    2MOL1    Cl 1925   3.889   4.016   5.206
    2MOL1    Cl 1926   4.042   3.785   5.295
    2MOL1     H 1927   3.910   3.806   5.101
    2MOL1    Cl 1928   1.969   2.230   2.610
    2MOL1     C 1929   2.037   2.336   2.734
    2MOL1    Cl 1930   1.993   2.505   2.703
    2MOL1    Cl 1931   1.982   2.285   2.895
    2MOL1     H 1932   2.146   2.328   2.731
    2MOL1    Cl 1933   2.025   4.253   1.581
    2MOL1     C 1934   2.168   4.150   1.591
    2MOL1    Cl 1935   2.285   4.217   1.706
    2MOL1    Cl 1936   2.123   3.985   1.637
    2MOL1     H 1937   2.215   4.146   1.492
    2MOL1    Cl 1938   3.944   3.601   1.878
    2MOL1     C 1939   4.115   3.637   1.850
    2MOL1    Cl 1940   4.143   3.678   1.680
    2MOL1    Cl 1941   4.170   3.768   1.955
    2MOL1     H 1942   4.174   3.547   1.874
    2MOL1    Cl 1943   2.724   4.748   0.638
    2MOL1     C 1944   2.614   4.609   0.636
    2MOL1    Cl 1945   2.684   4.473   0.727
    2MOL1    Cl 1946   2.456   4.653   0.701
    2MOL1     H 1947   2.601   4.577   0.532
    2MOL1    Cl 1948   2.668   2.238   4.789
    2MOL1     C 1949   2.777   2.375   4.763
    2MOL1    Cl 1950   2.906   2.330   4.650
    2MOL1    Cl 1951   2.688   2.516   4.703
    2MOL1     H 1952   2.823   2.401   4.859
    2MOL1    Cl 1953   1.713   3.342   2.750
    2MOL1     C 1954   1.546   3.351   2.693
    2MOL1    Cl 1955   1.511   3.512   2.627
    2MOL1    Cl 1956   1.515   3.226   2.571
    2MOL1     H 1957   1.479   3.334   2.777
    2MOL1    Cl 1958   0.621   4.343   4.857
    2MOL1     C 1959   0.678   4.183   4.906
    2MOL1    Cl 1960   0.731   4.184   5.075
    2MOL1    Cl 1961   0.551   4.062   4.881
    2MOL1     H 1962   0.764   4.156   4.844
    2MOL1    Cl 1963   0.005   2.438   1.804
    2MOL1     C 1964   0.162   2.388   1.868
    2MOL1    Cl 1965   0.201   2.476   2.016
    2MOL1    Cl 1966   0.165   2.213   1.897
    2MOL1     H 1967   0.239   2.411   1.793
    2MOL1    Cl 1968   4.240   1.054   4.159
    2MOL1     C 1969   4.410   1.008   4.180
    2MOL1    Cl 1970   4.425   0.832   4.194
    2MOL1    Cl 1971   4.507   1.068   4.044
    2MOL1     H 1972   4.447   1.053   4.272
    2MOL1    Cl 1973   3.858   1.089   0.353
    2MOL1     C 1974   4.011   1.133   0.431
    2MOL1    Cl 1975   3.982   1.241   0.568
    2MOL1    Cl 1976   4.099   0.989   0.482
    2MOL1     H 1977   4.072   1.187   0.357
    2MOL1    Cl 1978   2.014   1.698   4.011
    2MOL1     C 1979   1.922   1.829   3.936
    2MOL1    Cl 1980   1.751   1.784   3.922
    2MOL1    Cl 1981   1.940   1.979   4.028
    2MOL1     H 1982   1.961   1.845   3.835
    2MOL1    Cl 1983   0.412   1.755   2.200
    2MOL1     C 1984   0.373   1.892   2.096
    2MOL1    Cl 1985   0.441   1.869   1.934
    2MOL1    Cl 1986   0.197   1.916   2.086
    2MOL1     H 1987   0.417   1.982   2.139
    2MOL1    Cl 1988   1.833   0.526   3.470
    2MOL1     C 1989   1.686   0.610   3.418
    2MOL1    Cl 1990   1.727   0.758   3.331
    2MOL1    Cl 1991   1.586   0.504   3.318
    2MOL1     H 1992   1.629   0.637   3.508
    2MOL1    Cl 1993   2.383   4.194   1.041
    2MOL1     C 1994   2.355   4.352   1.115
    2MOL1    Cl 1995   2.440   4.365   1.270
    2MOL1    Cl 1996   2.405   4.482   1.005
    2MOL1     H 1997   2.248   4.363   1.134
    2MOL1    Cl 1998   3.651   1.756   4.349
    2MOL1     C 1999   3.475   1.748   4.363
    2MOL1    Cl 2000   3.427   1.614   4.469
    2MOL1    Cl 2001   3.410   1.902   4.423
    2MOL1     H 2002   3.434   1.730   4.264
    2MOL1    Cl 2003   2.430   3.790   4.274
    2MOL1     C 2004   2.286   3.754   4.177
    2MOL1    Cl 2005   2.267   3.873   4.048
    2MOL1    Cl 2006   2.296   3.590   4.110
    2MOL1     H 2007   2.199   3.759   4.242
    2MOL1    Cl 2008   3.020   1.058   4.889
    2MOL1     C 2009   3.169   0.979   4.944
    2MOL1    Cl 2010   3.307   1.090   4.931
    2MOL1    Cl 2011   3.151   0.921   5.110
    2MOL1     H 2012   3.188   0.893   4.880
    2MOL1    Cl 2013   3.081   2.958   2.598
    2MOL1     C 2014   3.102   2.822   2.487
    2MOL1    Cl 2015   3.273   2.782   2.469
    2MOL1    Cl 2016   3.010   2.681   2.544
    2MOL1     H 2017   3.063   2.851   2.389
    2MOL1    Cl 2018   4.558   4.279   0.862
    2MOL1     C 2019   4.732   4.244   0.851
    2MOL1    Cl 2020   4.822   4.338   0.971
    2MOL1    Cl 2021   4.762   4.071   0.872
    2MOL1     H 2022   4.766   4.273   0.751
    2MOL1    Cl 2023   2.008   2.766   4.420
    2MOL1     C 2024   2.110   2.891   4.494
    2MOL1    Cl 2025   2.012   3.004   4.589
    2MOL1    Cl 2026   2.235   2.816   4.595
    2MOL1     H 2027   2.159   2.946   4.414
    2MOL1    Cl 2028   2.760   4.261   4.421
    2MOL1     C 2029   2.633   4.138   4.425
    2MOL1    Cl 2030   2.689   3.988   4.351
    2MOL1    Cl 2031   2.579   4.110   4.591
    2MOL1     H 2032   2.548   4.176   4.367
    2MOL1    Cl 2033   4.358   5.274   2.543
    2MOL1     C 2034   4.449   5.165   2.649
    2MOL1    Cl 2035   4.338   5.058   2.738
    2MOL1    Cl 2036   4.566   5.070   2.556
    2MOL1     H 2037   4.503   5.226   2.722
    2MOL1    Cl 2038   1.609   3.917   2.130
    2MOL1     C 2039   1.716   3.778   2.152
    2MOL1    Cl 2040   1.841   3.814   2.273
    2MOL1    Cl 2041   1.623   3.635   2.200
    2MOL1     H 2042   1.765   3.757   2.057
    2MOL1    Cl 2043   3.640   0.928   1.019
    2MOL1     C 2044   3.518   0.800   1.032
    2MOL1    Cl 2045   3.380   0.856   1.127
    2MOL1    Cl 2046   3.466   0.748   0.871
    2MOL1     H 2047   3.563   0.715   1.082
    2MOL1    Cl 2048   0.434   3.824   3.059
    2MOL1     C 2049   0.275   3.746   3.052
    2MOL1    Cl 2050   0.155   3.855   2.979
    2MOL1    Cl 2051   0.284   3.595   2.961
    2MOL1     H 2052   0.243   3.723   3.154
    2MOL1    Cl 2053   2.962   2.631   4.983
    2MOL1     C 2054   2.990   2.684   4.817
    2MOL1    Cl 2055   3.057   2.552   4.720
    2MOL1    Cl 2056   2.840   2.744   4.744
    2MOL1     H 2057   3.063   2.766   4.818
    2MOL1    Cl 2058   2.303   0.504   0.673
    2MOL1     C 2059   2.276   0.679   0.679
    2MOL1    Cl 2060   2.103   0.716   0.672
    2MOL1    Cl 2061   2.349   0.748   0.825
    2MOL1     H 2062   2.324   0.724   0.592
    2MOL1    Cl 2063   3.078   0.465   2.258
    2MOL1     C 2064   2.962   0.339   2.301
    2MOL1    Cl 2065   2.796   0.398   2.282
    2MOL1    Cl 2066   2.988   0.194   2.202
    2MOL1     H 2067   2.977   0.312   2.406
    2MOL1    Cl 2068   1.675   3.548   4.765
    2MOL1     C 2069   1.811   3.549   4.651
    2MOL1    Cl 2070   1.931   3.427   4.697
    2MOL1    Cl 2071   1.754   3.522   4.485
    2MOL1     H 2072   1.858   3.647   4.655
    2MOL1    Cl 2073   0.463   2.822   0.496
    2MOL1     C 2074   0.629   2.839   0.555
    2MOL1    Cl 2075   0.685   2.689   0.632
    2MOL1    Cl 2076   0.738   2.885   0.422
    2MOL1     H 2077   0.631   2.919   0.629
    2MOL1    Cl 2078   2.926   0.263   3.208
    2MOL1     C 2079   2.997   0.215   3.363
    2MOL1    Cl 2080   2.914   0.073   3.428
    2MOL1    Cl 2081   3.170   0.185   3.346
    2MOL1     H 2082   2.984   0.298   3.434
    2MOL1    Cl 2083   1.439   2.072   3.685
    2MOL1     C 2084   1.324   2.204   3.711
    2MOL1    Cl 2085   1.183   2.148   3.802
    2MOL1    Cl 2086   1.403   2.339   3.795
    2MOL1     H 2087   1.290   2.240   3.614
    2MOL1    Cl 2088   2.968   5.192   4.130
    2MOL1     C 2089   3.117   5.179   4.035
    2MOL1    Cl 2090   3.121   5.026   3.947
    2MOL1    Cl 2091   3.133   5.316   3.924
    2MOL1     H 2092   3.202   5.181   4.104
    2MOL1    Cl 2093   0.254   0.523   4.319
    2MOL1     C 2094   0.241   0.436   4.165
    2MOL1    Cl 2095   0.339   0.516   4.040
    2MOL1    Cl 2096   0.291   0.267   4.185
    2MOL1     H 2097   0.137   0.438   4.133
    2MOL1    Cl 2098   2.541   2.773   3.878
    2MOL1     C 2099   2.480   2.616   3.932
    2MOL1    Cl 2100   2.579   2.553   4.065
    2MOL1    Cl 2101   2.310   2.628   3.981
    2MOL1     H 2102   2.487   2.546   3.848
    2MOL1    Cl 2103   0.786   1.339   0.156
    2MOL1     C 2104   0.716   1.495   0.203
    2MOL1    Cl 2105   0.561   1.472   0.286
    2MOL1    Cl 2106   0.829   1.585   0.307
    2MOL1     H 2107   0.699   1.554   0.113
    2MOL1    Cl 2108   4.745   3.143   1.902
    2MOL1     C 2109   4.660   2.995   1.948
    2MOL1    Cl 2110   4.534   2.957   1.830
    2MOL1    Cl 2111   4.774   2.860   1.963
    2MOL1     H 2112   4.613   3.011   2.045
    2MOL1    Cl 2113   3.234   3.178   0.702
    2MOL1     C 2114   3.126   3.259   0.587
    2MOL1    Cl 2115   3.061   3.142   0.471
    2MOL1    Cl 2116   2.995   3.341   0.673
    2MOL1     H 2117   3.184   3.334   0.532
    2MOL1    Cl 2118   2.470   4.774   1.664
    2MOL1     C 2119   2.544   4.901   1.565
    2MOL1    Cl 2120   2.708   4.937   1.622
    2MOL1    Cl 2121   2.547   4.854   1.394
    2MOL1     H 2122   2.484   4.992   1.575
    2MOL1    Cl 2123   2.757   4.012   4.742
    2MOL1     C 2124   2.649   4.012   4.882
    2MOL1    Cl 2125   2.681   4.152   4.986
    2MOL1    Cl 2126   2.479   4.011   4.830
    2MOL1     H 2127   2.667   3.921   4.940
    2MOL1    Cl 2128   4.089   3.964   2.914
    2MOL1     C 2129   3.971   4.007   2.789
    2MOL1    Cl 2130   3.809   3.952   2.834
    2MOL1    Cl 2131   3.971   4.182   2.761
    2MOL1     H 2132   4.000   3.958   2.696
    2MOL1    Cl 2133   2.494   1.506   2.457
    2MOL1     C 2134   2.318   1.505   2.480
    2MOL1    Cl 2135   2.254   1.670   2.472
    2MOL1    Cl 2136   2.240   1.402   2.360
    2MOL1     H 2137   2.297   1.465   2.580
    2MOL1    Cl 2138   4.821   2.463   0.772
    2MOL1     C 2139   4.901   2.377   0.640
    2MOL1    Cl 2140   4.784   2.285   0.545
    2MOL1    Cl 2141   4.989   2.491   0.536
    2MOL1     H 2142   4.974   2.307   0.683
    2MOL1    Cl 2143   4.262   0.640   3.357
    2MOL1     C 2144   4.228   0.593   3.190
    2MOL1    Cl 2145   4.236   0.733   3.083
    2MOL1    Cl 2146   4.341   0.467   3.137
    2MOL1     H 2147   4.127   0.552   3.186
    2MOL1    Cl 2148   4.919   2.191   0.142
    2MOL1     C 2149   4.833   2.343   0.170
    2MOL1    Cl 2150   4.695   2.318   0.279
    2MOL1    Cl 2151   4.942   2.466   0.235
    2MOL1     H 2152   4.794   2.379   0.074
    2MOL1    Cl 2153   0.619   3.682   5.301
    2MOL1     C 2154   0.725   3.557   5.234
    2MOL1    Cl 2155   0.727   3.415   5.339
    2MOL1    Cl 2156   0.673   3.513   5.070
    2MOL1     H 2157   0.826   3.597   5.228
    2MOL1    Cl 2158   3.270   1.351   1.012
    2MOL1     C 2159   3.400   1.239   1.057
    2MOL1    Cl 2160   3.340   1.117   1.170
    2MOL1    Cl 2161   3.468   1.162   0.913
    2MOL1     H 2162   3.478   1.296   1.106
    2MOL1    Cl 2163   2.683   4.621   4.650
    2MOL1     C 2164   2.735   4.496   4.764
    2MOL1    Cl 2165   2.642   4.348   4.741
    2MOL1    Cl 2166   2.909   4.464   4.747
    2MOL1     H 2167   2.717   4.533   4.866
    2MOL1    Cl 2168   1.633   5.209   0.726
    2MOL1     C 2169   1.505   5.241   0.608
    2MOL1    Cl 2170   1.573   5.258   0.445
    2MOL1    Cl 2171   1.383   5.112   0.612
    2MOL1     H 2172   1.456   5.335   0.635
    2MOL1    Cl 2173   1.493   3.163   4.477
    2MOL1     C 2174   1.409   3.316   4.503
    2MOL1    Cl 2175   1.501   3.451   4.434
    2MOL1    Cl 2176   1.246   3.310   4.433
    2MOL1     H 2177   1.399   3.332   4.610
    2MOL1    Cl 2178   1.005   2.331   2.444
    2MOL1     C 2179   1.174   2.290   2.410
    2MOL1    Cl 2180   1.183   2.144   2.309
    2MOL1    Cl 2181   1.256   2.425   2.330
    2MOL1     H 2182   1.225   2.269   2.504
    2MOL1    Cl 2183   1.199   1.429   0.607
    2MOL1     C 2184   1.375   1.439   0.595
    2MOL1    Cl 2185   1.448   1.277   0.604
    2MOL1    Cl 2186   1.422   1.520   0.444
    2MOL1     H 2187   1.413   1.498   0.679
    2MOL1    Cl 2188   0.284   5.332   3.285
    2MOL1     C 2189   0.335   5.167   3.249
    2MOL1    Cl 2190   0.466   5.167   3.129
    2MOL1    Cl 2191   0.386   5.084   3.397
    2MOL1     H 2192   0.250   5.113   3.206
    2MOL1    Cl 2193   2.810   4.053   0.469
    2MOL1     C 2194   2.809   3.979   0.309
    2MOL1    Cl 2195   2.689   4.057   0.205
    2MOL1    Cl 2196   2.970   3.987   0.235
    2MOL1     H 2197   2.781   3.874   0.320
    2MOL1    Cl 2198   5.016   1.936   0.802
    2MOL1     C 2199   5.191   1.962   0.799
    2MOL1    Cl 2200   5.255   1.939   0.635
    2MOL1    Cl 2201   5.231   2.124   0.859
    2MOL1     H 2202   5.238   1.889   0.865
    2MOL1    Cl 2203   3.390   4.669   4.159
    2MOL1     C 2204   3.270   4.787   4.105
    2MOL1    Cl 2205   3.165   4.717   3.981
    2MOL1    Cl 2206   3.173   4.844   4.243
    2MOL1     H 2207   3.322   4.873   4.062
    2MOL1    Cl 2208   0.243   3.356   3.426
    2MOL1     C 2209   0.384   3.250   3.426
    2MOL1    Cl 2210   0.363   3.117   3.310
    2MOL1    Cl 2211   0.532   3.341   3.389
    2MOL1     H 2212   0.395   3.207   3.526
    2MOL1    Cl 2213   2.818   0.532   1.782
    2MOL1     C 2214   2.901   0.473   1.927
    2MOL1    Cl 2215   2.787   0.455   2.062
    2MOL1    Cl 2216   2.983   0.320   1.894
    2MOL1     H 2217   2.976   0.547   1.956
    2MOL1    Cl 2218   4.817   5.161   4.264
    2MOL1     C 2219   4.840   5.011   4.354
    2MOL1    Cl 2220   4.701   4.903   4.333
    2MOL1    Cl 2221   4.990   4.931   4.305
    2MOL1     H 2222   4.847   5.036   4.461
    2MOL1    Cl 2223   4.189   1.057   1.994
    2MOL1     C 2224   4.038   0.985   2.055
    2MOL1    Cl 2225   4.010   1.032   2.223
    2MOL1    Cl 2226   3.901   1.032   1.953
    2MOL1     H 2227   4.048   0.876   2.050
    2MOL1    Cl 2228   2.428   4.919   2.443
    2MOL1     C 2229   2.360   4.758   2.413
    2MOL1    Cl 2230   2.393   4.650   2.550
    2MOL1    Cl 2231   2.186   4.768   2.383
    2MOL1     H 2232   2.408   4.716   2.325
    2MOL1    Cl 2233   2.343   2.794   0.878
    2MOL1     C 2234   2.284   2.628   0.893
    2MOL1    Cl 2235   2.375   2.540   1.017
    2MOL1    Cl 2236   2.110   2.627   0.931
    2MOL1     H 2237   2.298   2.578   0.797
    2MOL1    Cl 2238   2.207   4.543   0.444
    2MOL1     C 2239   2.245   4.716   0.446
    2MOL1    Cl 2240   2.315   4.767   0.292
    2MOL1    Cl 2241   2.101   4.811   0.483
    2MOL1     H 2242   2.319   4.734   0.525
    2MOL1    Cl 2243   3.445   1.125   2.392
    2MOL1     C 2244   3.621   1.146   2.403
    2MOL1    Cl 2245   3.705   1.022   2.310
    2MOL1    Cl 2246   3.668   1.308   2.348
    2MOL1     H 2247   3.650   1.136   2.508
    2MOL1    Cl 2248   3.916   4.114   0.910
    2MOL1     C 2249   3.756   4.073   0.845
    2MOL1    Cl 2250   3.771   3.985   0.693
    2MOL1    Cl 2251   3.663   3.979   0.963
    2MOL1     H 2252   3.702   4.166   0.826
    2MOL1    Cl 2253   1.716   4.251   2.018
    2MOL1     C 2254   1.725   4.290   2.191
    2MOL1    Cl 2255   1.615   4.422   2.232
    2MOL1    Cl 2256   1.689   4.146   2.288
    2MOL1     H 2257   1.827   4.322   2.213
    2MOL1    Cl 2258   5.074   2.684   2.951
    2MOL1     C 2259   4.965   2.811   3.007
    2MOL1    Cl 2260   4.838   2.744   3.111
    2MOL1    Cl 2261   5.056   2.937   3.094
    2MOL1     H 2262   4.918   2.857   2.920
    2MOL1    Cl 2263   1.717   1.250   2.125
    2MOL1     C 2264   1.631   1.255   2.280
    2MOL1    Cl 2265   1.527   1.398   2.289
    2MOL1    Cl 2266   1.536   1.107   2.303
    2MOL1     H 2267   1.705   1.261   2.360
    2MOL1    Cl 2268   0.276   0.652   1.499
    2MOL1     C 2269   0.152   0.528   1.473
    2MOL1    Cl 2270   0.216   0.368   1.512
    2MOL1    Cl 2271   0.008   0.563   1.570
    2MOL1     H 2272   0.124   0.530   1.368
    2MOL1    Cl 2273   0.960   4.380   0.186
    2MOL1     C 2274   1.101   4.274   0.189
    2MOL1    Cl 2275   1.052   4.104   0.177
    2MOL1    Cl 2276   1.213   4.315   0.058
    2MOL1     H 2277   1.153   4.288   0.284
    2MOL1    Cl 2278   3.316   2.579   0.863
    2MOL1     C 2279   3.167   2.674   0.873
    2MOL1    Cl 2280   3.091   2.656   1.032
    2MOL1    Cl 2281   3.200   2.845   0.839
    2MOL1     H 2282   3.097   2.637   0.797
    2MOL1    Cl 2283   0.469   2.086   2.612
    2MOL1     C 2284   0.592   1.985   2.535
    2MOL1    Cl 2285   0.741   2.077   2.509
    2MOL1    Cl 2286   0.624   1.841   2.632
    2MOL1     H 2287   0.554   1.953   2.437
    2MOL1    Cl 2288   2.604   0.675   4.857
    2MOL1     C 2289   2.633   0.786   4.992
    2MOL1    Cl 2290   2.522   0.924   4.984
    2MOL1    Cl 2291   2.618   0.702   5.147
    2MOL1     H 2292   2.736   0.824   4.984
    2MOL1    Cl 2293   0.247   4.305   4.180
    2MOL1     C 2294   0.406   4.353   4.240
    2MOL1    Cl 2295   0.465   4.236   4.360
    2MOL1    Cl 2296   0.521   4.369   4.107
    2MOL1     H 2297   0.396   4.450   4.289
    2MOL1    Cl 2298   5.020   3.917   1.609
    2MOL1     C 2299   5.147   4.009   1.527
    2MOL1    Cl 2300   5.271   3.900   1.461
    2MOL1    Cl 2301   5.078   4.109   1.398
    2MOL1     H 2302   5.195   4.074   1.600
    2MOL1    Cl 2303   2.547   2.230   0.491
    2MOL1     C 2304   2.649   2.344   0.401
    2MOL1    Cl 2305   2.652   2.502   0.482
    2MOL1    Cl 2306   2.813   2.280   0.384
    2MOL1     H 2307   2.607   2.357   0.302
    2MOL1    Cl 2308   3.377   2.476   2.001
    2MOL1     C 2309   3.328   2.484   2.171
    2MOL1    Cl 2310   3.197   2.601   2.193
    2MOL1    Cl 2311   3.278   2.324   2.229
    2MOL1     H 2312   3.413   2.516   2.230
    2MOL1    Cl 2313   4.032   1.455   5.156
    2MOL1     C 2314   4.088   1.291   5.192
    2MOL1    Cl 2315   4.260   1.292   5.234
    2MOL1    Cl 2316   3.993   1.221   5.324
    2MOL1     H 2317   4.074   1.230   5.103
    2MOL1    Cl 2318   1.187   2.087   4.689
    2MOL1     C 2319   1.160   2.056   4.517
    2MOL1    Cl 2320   1.258   1.919   4.462
    2MOL1    Cl 2321   0.988   2.026   4.485
    2MOL1     H 2322   1.190   2.145   4.461
    2MOL1    Cl 2323   0.580   0.343   2.210
    2MOL1     C 2324   0.412   0.385   2.173
    2MOL1    Cl 2325   0.394   0.427   2.002
    2MOL1    Cl 2326   0.304   0.251   2.216
    2MOL1     H 2327   0.384   0.472   2.233
    2MOL1    Cl 2328   3.706   0.535   1.162
    2MOL1     C 2329   3.823   0.431   1.081
    2MOL1    Cl 2330   3.803   0.439   0.905
    2MOL1    Cl 2331   3.989   0.476   1.127
    2MOL1     H 2332   3.806   0.328   1.113
    2MOL1    Cl 2333   3.061   2.329   3.763
    2MOL1     C 2334   3.199   2.296   3.656
    2MOL1    Cl 2335   3.255   2.129   3.676
    2MOL1    Cl 2336   3.157   2.329   3.488
    2MOL1     H 2337   3.281   2.363   3.685
    2MOL1    Cl 2338   3.588   2.909   3.446
    2MOL1     C 2339   3.716   2.845   3.551
    2MOL1    Cl 2340   3.861   2.946   3.540
    2MOL1    Cl 2341   3.660   2.835   3.719
    2MOL1     H 2342   3.741   2.744   3.517
    2MOL1    Cl 2343   3.060   4.414   1.754
    2MOL1     C 2344   3.218   4.492   1.778
    2MOL1    Cl 2345   3.349   4.386   1.723
    2MOL1    Cl 2346   3.224   4.647   1.694
    2MOL1     H 2347   3.231   4.510   1.885
    2MOL1    Cl 2348   0.556   1.275   4.050
    2MOL1     C 2349   0.522   1.340   4.212
    2MOL1    Cl 2350   0.509   1.208   4.329
    2MOL1    Cl 2351   0.648   1.455   4.260
    2MOL1     H 2352   0.427   1.392   4.208
    2MOL1    Cl 2353   0.325   1.650   1.551
    2MOL1     C 2354   0.284   1.821   1.577
    2MOL1    Cl 2355   0.145   1.836   1.686
    2MOL1    Cl 2356   0.423   1.909   1.643
    2MOL1     H 2357   0.258   1.865   1.481
    2MOL1    Cl 2358   0.120   3.288   1.415
    2MOL1     C 2359   0.087   3.177   1.282
    2MOL1    Cl 2360   0.225   3.170   1.171
    2MOL1    Cl 2361   0.049   3.015   1.343
    2MOL1     H 2362   0.000   3.214   1.227
    2MOL1    Cl 2363   0.898   3.912   0.102
    2MOL1     C 2364   0.984   3.758   0.113
    2MOL1    Cl 2365   1.116   3.768   0.232
    2MOL1    Cl 2366   0.873   3.627   0.155
    2MOL1     H 2367   1.028   3.736   0.015
    2MOL1    Cl 2368   3.823   1.396   1.522
    2MOL1     C 2369   3.680   1.298   1.486
    2MOL1    Cl 2370   3.650   1.292   1.311
    2MOL1    Cl 2371   3.698   1.134   1.551
    2MOL1     H 2372   3.593   1.344   1.534
    2MOL1    Cl 2373   3.526   1.584   4.677
    2MOL1     C 2374   3.470   1.732   4.756
    2MOL1    Cl 2375   3.554   1.757   4.910
    2MOL1    Cl 2376   3.494   1.872   4.649
    2MOL1     H 2377   3.363   1.722   4.776
    2MOL1    Cl 2378   0.745   3.841   4.209
    2MOL1     C 2379   0.702   3.997   4.281
    2MOL1    Cl 2380   0.587   3.975   4.414
    2MOL1    Cl 2381   0.847   4.082   4.337
    2MOL1     H 2382   0.654   4.058   4.204
    2MOL1    Cl 2383   3.461   3.293   5.230
    2MOL1     C 2384   3.610   3.218   5.169
    2MOL1    Cl 2385   3.737   3.339   5.149
    2MOL1    Cl 2386   3.663   3.089   5.278
    2MOL1     H 2387   3.588   3.173   5.072
    2MOL1    Cl 2388   0.957   2.605   1.740
    2MOL1     C 2389   1.083   2.485   1.704
    2MOL1    Cl 2390   1.096   2.367   1.835
    2MOL1    Cl 2391   1.050   2.404   1.549
    2MOL1     H 2392   1.179   2.538   1.695
    2MOL1    Cl 2393   4.388   5.175   5.257
    2MOL1     C 2394   4.482   5.056   5.166
    2MOL1    Cl 2395   4.391   5.001   5.024
    2MOL1    Cl 2396   4.638   5.123   5.118
    2MOL1     H 2397   4.500   4.970   5.231
    2MOL1    Cl 2398   4.511   1.174   0.218
    2MOL1     C 2399   4.366   1.143   0.314
    2MOL1    Cl 2400   4.314   0.975   0.297
    2MOL1    Cl 2401   4.394   1.184   0.484
    2MOL1     H 2402   4.285   1.208   0.277
    2MOL1    Cl 2403   3.177   0.981   3.502
    2MOL1     C 2404   3.087   0.828   3.498
    2MOL1    Cl 2405   3.115   0.743   3.346
    2MOL1    Cl 2406   3.131   0.726   3.636
    2MOL1     H 2407   2.980   0.851   3.505
    2MOL1    Cl 2408   4.233   1.399   4.884
    2MOL1     C 2409   4.400   1.368   4.933
    2MOL1    Cl 2410   4.430   1.431   5.096
    2MOL1    Cl 2411   4.437   1.195   4.925
    2MOL1     H 2412   4.466   1.420   4.863
    2MOL1    Cl 2413   4.685   2.230   3.943
    2MOL1     C 2414   4.778   2.151   3.815
    2MOL1    Cl 2415   4.701   1.999   3.767
    2MOL1    Cl 2416   4.796   2.259   3.676
    2MOL1     H 2417   4.878   2.129   3.854
    2MOL1    Cl 2418   3.244   0.655   3.845
    2MOL1     C 2419   3.372   0.774   3.816
    2MOL1    Cl 2420   3.506   0.702   3.726
    2MOL1    Cl 2421   3.306   0.915   3.729
    2MOL1     H 2422   3.409   0.808   3.913
    2MOL1    Cl 2423   3.859   3.586   1.616
    2MOL1     C 2424   3.838   3.758   1.652
    2MOL1    Cl 2425   3.985   3.848   1.614
    2MOL1    Cl 2426   3.699   3.823   1.563
    2MOL1     H 2427   3.818   3.768   1.759
    2MOL1    Cl 2428   0.531   0.108   1.206
    2MOL1     C 2429   0.535   0.183   1.367
    2MOL1    Cl 2430   0.471   0.072   1.489
    2MOL1    Cl 2431   0.700   0.233   1.408
    2MOL1     H 2432   0.472   0.272   1.365
    2MOL1    Cl 2433   2.300   4.079   3.631
    2MOL1     C 2434   2.168   3.980   3.695
    2MOL1    Cl 2435   2.048   3.948   3.569
    2MOL1    Cl 2436   2.231   3.827   3.760
    2MOL1     H 2437   2.120   4.034   3.776
    2MOL1    Cl 2438   4.365   3.836   1.305
    2MOL1     C 2439   4.498   3.947   1.345
    2MOL1    Cl 2440   4.516   3.961   1.521
    2MOL1    Cl 2441   4.649   3.891   1.272
    2MOL1     H 2442   4.474   4.045   1.305
    2MOL1    Cl 2443   3.280   4.229   4.596
    2MOL1     C 2444   3.155   4.354   4.606
    2MOL1    Cl 2445   3.222   4.512   4.560
    2MOL1    Cl 2446   3.016   4.313   4.505
    2MOL1     H 2447   3.122   4.361   4.710
    2MOL1    Cl 2448   2.116   1.801   4.641
    2MOL1     C 2449   2.053   1.872   4.791
    2MOL1    Cl 2450   2.025   1.746   4.912
    2MOL1    Cl 2451   2.165   1.994   4.853
    2MOL1     H 2452   1.958   1.921   4.769
    2MOL1    Cl 2453   1.780   3.328   2.014
    2MOL1     C 2454   1.632   3.388   1.937
    2MOL1    Cl 2455   1.569   3.269   1.822
    2MOL1    Cl 2456   1.510   3.427   2.060
    2MOL1     H 2457   1.656   3.480   1.883
    2MOL1    Cl 2458   1.827   0.092   1.340
    2MOL1     C 2459   1.846   0.151   1.506
    2MOL1    Cl 2460   1.703   0.243   1.556
    2MOL1    Cl 2461   1.874   0.016   1.617
    2MOL1     H 2462   1.933   0.217   1.509
    2MOL1    Cl 2463   4.107   4.369   3.784
    2MOL1     C 2464   4.246   4.451   3.856
    2MOL1    Cl 2465   4.397   4.372   3.806
    2MOL1    Cl 2466   4.248   4.622   3.811
    2MOL1     H 2467   4.238   4.444   3.965
    2MOL1    Cl 2468   0.665   1.120   3.928
    2MOL1     C 2469   0.703   1.027   3.782
    2MOL1    Cl 2470   0.769   1.133   3.657
    2MOL1    Cl 2471   0.816   0.896   3.819
    2MOL1     H 2472   0.610   0.984   3.745
    2MOL1    Cl 2473   1.720   4.593   0.603
    2MOL1     C 2474   1.693   4.450   0.703
    2MOL1    Cl 2475   1.827   4.428   0.818
    2MOL1    Cl 2476   1.539   4.463   0.790
    2MOL1     H 2477   1.689   4.363   0.638
    2MOL1    Cl 2478   3.436   0.395   0.131
    2MOL1     C 2479   3.268   0.449   0.117
    2MOL1    Cl 2480   3.255   0.582   0.000
    2MOL1    Cl 2481   3.163   0.315   0.070
    2MOL1     H 2482   3.236   0.486   0.214
    2MOL1    Cl 2483   3.906   0.777   3.249
    2MOL1     C 2484   3.834   0.937   3.268
    2MOL1    Cl 2485   3.666   0.937   3.214
    2MOL1    Cl 2486   3.845   0.991   3.437
    2MOL1     H 2487   3.890   1.008   3.207
    2MOL1    Cl 2488   0.250   4.700   4.120
    2MOL1     C 2489   0.160   4.620   3.990
    2MOL1    Cl 2490   0.149   4.727   3.848
    2MOL1    Cl 2491   0.237   4.467   3.946
    2MOL1     H 2492   0.059   4.600   4.025
    2MOL1    Cl 2493   4.395   1.871   5.284
    2MOL1     C 2494   4.363   1.731   5.181
    2MOL1    Cl 2495   4.488   1.716   5.056
    2MOL1    Cl 2496   4.353   1.583   5.278
    2MOL1     H 2497   4.266   1.746   5.132
    2MOL1    Cl 2498   0.362   0.602   2.651
    2MOL1     C 2499   0.466   0.693   2.762
    2MOL1    Cl 2500   0.370   0.805   2.860
    2MOL1    Cl 2501   0.558   0.582   2.866
    2MOL1     H 2502   0.537   0.751   2.703
    2MOL1    Cl 2503   0.338   2.106   1.922
    2MOL1     C 2504   0.470   2.188   2.007
    2MOL1    Cl 2505   0.434   2.204   2.179
    2MOL1    Cl 2506   0.622   2.100   1.983
    2MOL1     H 2507   0.482   2.288   1.965
    2MOL1    Cl 2508   3.645   2.184   1.797
    2MOL1     C 2509   3.708   2.184   1.632
    2MOL1    Cl 2510   3.687   2.344   1.558
    2MOL1    Cl 2511   3.878   2.136   1.629
    2MOL1     H 2512   3.651   2.112   1.573
    2MOL1    Cl 2513   2.482   0.942   4.398
    2MOL1     C 2514   2.640   0.891   4.336
    2MOL1    Cl 2515   2.714   1.021   4.240
    2MOL1    Cl 2516   2.747   0.844   4.468
    2MOL1     H 2517   2.625   0.805   4.271
    2MOL1    Cl 2518   4.537   2.648   4.880
    2MOL1     C 2519   4.665   2.536   4.930
    2MOL1    Cl 2520   4.772   2.614   5.049
    2MOL1    Cl 2521   4.596   2.387   4.996
    2MOL1     H 2522   4.725   2.511   4.842
    2MOL1    Cl 2523   3.946   0.891   2.784
    2MOL1     C 2524   3.822   0.791   2.859
    2MOL1    Cl 2525   3.701   0.740   2.740
    2MOL1    Cl 2526   3.895   0.649   2.938
    2MOL1     H 2527   3.771   0.850   2.936
    2MOL1    Cl 2528   3.412   2.175   3.286
    2MOL1     C 2529   3.261   2.094   3.241
    2MOL1    Cl 2530   3.148   2.091   3.377
    2MOL1    Cl 2531   3.187   2.173   3.101
    2MOL1     H 2532   3.284   1.991   3.213
    2MOL1    Cl 2533   3.664   1.833   1.537
    2MOL1     C 2534   3.802   1.737   1.482
    2MOL1    Cl 2535   3.750   1.616   1.362
    2MOL1    Cl 2536   3.928   1.841   1.414
    2MOL1     H 2537   3.844   1.684   1.568
    2MOL1    Cl 2538   0.274   3.617   2.065
    2MOL1     C 2539   0.402   3.496   2.044
    2MOL1    Cl 2540   0.495   3.479   2.194
    2MOL1    Cl 2541   0.333   3.340   1.995
    2MOL1     H 2542   0.469   3.530   1.966
    2MOL1    Cl 2543   2.602   3.891   4.581
    2MOL1     C 2544   2.470   3.793   4.646
    2MOL1    Cl 2545   2.411   3.678   4.525
    2MOL1    Cl 2546   2.522   3.708   4.792
    2MOL1     H 2547   2.388   3.859   4.673
    2MOL1    Cl 2548   2.072   1.684   2.039
    2MOL1     C 2549   1.940   1.595   1.963
    2MOL1    Cl 2550   1.825   1.707   1.887
    2MOL1    Cl 2551   2.002   1.480   1.843
    2MOL1     H 2552   1.887   1.538   2.040
    2MOL1    Cl 2553   4.488   2.736   0.327
    2MOL1     C 2554   4.552   2.572   0.304
    2MOL1    Cl 2555   4.449   2.480   0.193
    2MOL1    Cl 2556   4.718   2.580   0.243
    2MOL1     H 2557   4.554   2.522   0.401
    2MOL1    Cl 2558   3.236   4.553   3.462
    2MOL1     C 2559   3.077   4.559   3.538
    2MOL1    Cl 2560   2.975   4.426   3.479
    2MOL1    Cl 2561   3.092   4.552   3.714
    2MOL1     H 2562   3.029   4.653   3.511
    2MOL1    Cl 2563   5.107   3.745   5.312
    2MOL1     C 2564   5.063   3.857   5.181
    2MOL1    Cl 2565   5.000   3.768   5.042
    2MOL1    Cl 2566   4.945   3.976   5.238
    2MOL1     H 2567   5.153   3.910   5.150
    2MOL1    Cl 2568   1.152   2.840   3.293
    2MOL1     C 2569   1.209   2.677   3.331
    2MOL1    Cl 2570   1.203   2.648   3.506
    2MOL1    Cl 2571   1.114   2.556   3.245
    2MOL1     H 2572   1.313   2.668   3.298
    2MOL1    Cl 2573   2.696   2.798   1.157
    2MOL1     C 2574   2.616   2.805   1.315
    2MOL1    Cl 2575   2.579   2.972   1.359
    2MOL1    Cl 2576   2.468   2.707   1.313
    2MOL1     H 2577   2.683   2.763   1.390
    2MOL1    Cl 2578   2.547   4.967   3.410
    2MOL1     C 2579   2.477   4.819   3.342
    2MOL1    Cl 2580   2.395   4.855   3.188
    2MOL1    Cl 2581   2.602   4.696   3.318
    2MOL1     H 2582   2.403   4.780   3.412
    2MOL1    Cl 2583   5.113   2.716   4.066
    2MOL1     C 2584   5.012   2.727   4.211
    2MOL1    Cl 2585   5.087   2.832   4.332
    2MOL1    Cl 2586   4.850   2.786   4.169
    2MOL1     H 2587   5.002   2.627   4.254
    2MOL1    Cl 2588   2.748   2.269   3.564
    2MOL1     C 2589   2.573   2.293   3.548
    2MOL1    Cl 2590   2.534   2.366   3.392
    2MOL1    Cl 2591   2.488   2.139   3.568
    2MOL1     H 2592   2.541   2.361   3.627
    2MOL1    Cl 2593   2.010   0.794   3.964
    2MOL1     C 2594   1.951   0.953   4.014
    2MOL1    Cl 2595   1.840   0.938   4.151
    2MOL1    Cl 2596   2.087   1.060   4.056
    2MOL1     H 2597   1.898   0.998   3.930
    2MOL1    Cl 2598   0.959   0.523   0.929
    2MOL1     C 2599   0.924   0.365   0.858
    2MOL1    Cl 2600   0.803   0.279   0.954
    2MOL1    Cl 2601   0.870   0.382   0.690
    2MOL1     H 2602   1.017   0.306   0.859
    2MOL1    Cl 2603   4.184   1.358   3.817
    2MOL1     C 2604   4.163   1.436   3.659
    2MOL1    Cl 2605   4.001   1.507   3.646
    2MOL1    Cl 2606   4.288   1.559   3.634
    2MOL1     H 2607   4.174   1.360   3.582
    2MOL1    Cl 2608   3.238   4.836   3.256
    2MOL1     C 2609   3.225   4.959   3.383
    2MOL1    Cl 2610   3.125   5.095   3.328
    2MOL1    Cl 2611   3.157   4.889   3.531
    2MOL1     H 2612   3.325   4.996   3.405
    2MOL1    Cl 2613   2.036   2.501   3.060
    2MOL1     C 2614   2.205   2.548   3.083
    2MOL1    Cl 2615   2.216   2.691   3.187
    2MOL1    Cl 2616   2.298   2.414   3.151
    2MOL1     H 2617   2.247   2.573   2.985
    2MOL1    Cl 2618   1.595   0.525   5.327
    2MOL1     C 2619   1.506   0.649   5.235
    2MOL1    Cl 2620   1.423   0.576   5.096
    2MOL1    Cl 2621   1.391   0.733   5.340
    2MOL1     H 2622   1.578   0.722   5.198
    2MOL1    Cl 2623   2.201   4.560   4.398
    2MOL1     C 2624   2.267   4.396   4.393
    2MOL1    Cl 2625   2.422   4.389   4.478
    2MOL1    Cl 2626   2.152   4.280   4.464
    2MOL1     H 2627   2.284   4.368   4.289
    2MOL1    Cl 2628   0.941   3.782   5.053
    2MOL1     C 2629   0.790   3.874   5.041
    2MOL1    Cl 2630   0.770   3.939   4.877
    2MOL1    Cl 2631   0.652   3.772   5.085
    2MOL1     H 2632   0.795   3.957   5.111
    2MOL1    Cl 2633   5.110   3.238   1.861
    2MOL1     C 2634   5.112   3.061   1.868
    2MOL1    Cl 2635   5.103   3.005   2.036
    2MOL1    Cl 2636   4.979   2.993   1.772
    2MOL1     H 2637   5.206   3.026   1.825
    2MOL1    Cl 2638   3.309   1.396   3.517
    2MOL1     C 2639   3.335   1.231   3.578
    2MOL1    Cl 2640   3.448   1.143   3.474
    2MOL1    Cl 2641   3.396   1.236   3.745
    2MOL1     H 2642   3.240   1.179   3.578
    2MOL1    Cl 2643   0.009   1.235   1.695
    2MOL1     C 2644   0.076   1.310   1.842
    2MOL1    Cl 2645   0.252   1.324   1.830
    2MOL1    Cl 2646   0.002   1.468   1.870
    2MOL1     H 2647   0.052   1.245   1.927
    2MOL1    Cl 2648   1.579   0.252   1.243
    2MOL1     C 2649   1.522   0.087   1.273
    2MOL1    Cl 2650   1.631   0.003   1.385
    2MOL1    Cl 2651   1.357   0.089   1.337
    2MOL1     H 2652   1.521   0.033   1.178
    2MOL1    Cl 2653   2.709   3.075   3.800
    2MOL1     C 2654   2.762   2.950   3.913
    2MOL1    Cl 2655   2.794   2.798   3.827
    2MOL1    Cl 2656   2.906   3.003   4.002
    2MOL1     H 2657   2.682   2.932   3.985
    2MOL1    Cl 2658   5.135   3.467   1.117
    2MOL1     C 2659   5.109   3.356   1.253
    2MOL1    Cl 2660   5.264   3.289   1.308
    2MOL1    Cl 2661   5.026   3.438   1.386
    2MOL1     H 2662   5.046   3.274   1.218
    2MOL1    Cl 2663   1.751   0.346   0.107
    2MOL1     C 2664   1.898   0.280   0.180
    2MOL1    Cl 2665   1.989   0.407   0.262
    2MOL1    Cl 2666   1.859   0.149   0.292
    2MOL1     H 2667   1.961   0.239   0.100
    2MOL1    Cl 2668   0.884   1.819   2.982
    2MOL1     C 2669   1.041   1.896   2.952
    2MOL1    Cl 2670   1.110   1.958   3.103
    2MOL1    Cl 2671   1.153   1.782   2.874
    2MOL1     H 2672   1.026   1.981   2.884
    2MOL1    Cl 2673   2.839   3.761   2.454
    2MOL1     C 2674   2.709   3.881   2.468
    2MOL1    Cl 2675   2.553   3.809   2.426
    2MOL1    Cl 2676   2.705   3.949   2.631
    2MOL1     H 2677   2.730   3.962   2.398
    2MOL1    Cl 2678   1.617   0.706   2.812
    2MOL1     C 2679   1.502   0.588   2.877
    2MOL1    Cl 2680   1.359   0.576   2.774
    2MOL1    Cl 2681   1.580   0.429   2.894
    2MOL1     H 2682   1.471   0.621   2.977
    2MOL1    Cl 2683   5.220   4.926   2.790
    2MOL1     C 2684   5.063   5.003   2.762
    2MOL1    Cl 2685   5.054   5.066   2.596
    2MOL1    Cl 2686   4.931   4.888   2.792
    2MOL1     H 2687   5.052   5.087   2.831
    2MOL1    Cl 2688   2.765   4.011   3.168
    2MOL1     C 2689   2.631   3.908   3.222
    2MOL1    Cl 2690   2.667   3.738   3.189
    2MOL1    Cl 2691   2.599   3.933   3.394
    2MOL1     H 2692   2.541   3.936   3.166
    2MOL1    Cl 2693   5.197   5.057   0.248
    2MOL1     C 2694   5.022   5.074   0.236
    2MOL1    Cl 2695   4.949   4.926   0.171
    2MOL1    Cl 2696   4.952   5.113   0.394
    2MOL1     H 2697   4.999   5.156   0.167
    2MOL1    Cl 2698   1.705   4.077   5.185
    2MOL1     C 2699   1.529   4.054   5.191
    2MOL1    Cl 2700   1.445   4.203   5.146
    2MOL1    Cl 2701   1.480   3.921   5.085
    2MOL1     H 2702   1.501   4.028   5.293
    2MOL1    Cl 2703   0.452   1.811   3.422
    2MOL1     C 2704   0.450   1.956   3.523
    2MOL1    Cl 2705   0.561   1.938   3.660
    2MOL1    Cl 2706   0.493   2.099   3.428
    2MOL1     H 2707   0.349   1.970   3.562
    2MOL1    Cl 2708   4.482   0.598   4.863
    2MOL1     C 2709   4.609   0.475   4.870
    2MOL1    Cl 2710   4.734   0.509   4.749
    2MOL1    Cl 2711   4.680   0.468   5.032
    2MOL1     H 2712   4.565   0.378   4.848
    2MOL1    Cl 2713   4.341   2.386   2.357
    2MOL1     C 2714   4.319   2.482   2.503
    2MOL1    Cl 2715   4.188   2.600   2.482
    2MOL1    Cl 2716   4.286   2.377   2.642
    2MOL1     H 2717   4.411   2.537   2.523
    2MOL1    Cl 2718   3.539   4.511   1.625
    2MOL1     C 2719   3.500   4.661   1.711
    2MOL1    Cl 2720   3.646   4.733   1.781
    2MOL1    Cl 2721   3.420   4.777   1.603
    2MOL1     H 2722   3.431   4.637   1.792
    2MOL1    Cl 2723   5.324   5.332   0.792
    2MOL1     C 2724   5.219   5.195   0.752
    2MOL1    Cl 2725   5.089   5.246   0.643
    2MOL1    Cl 2726   5.312   5.062   0.681
    2MOL1     H 2727   5.173   5.159   0.845
    2MOL1    Cl 2728   4.124   5.232   0.318
    2MOL1     C 2729   3.973   5.164   0.254
    2MOL1    Cl 2730   4.005   5.065   0.111
    2MOL1    Cl 2731   3.891   5.068   0.379
    2MOL1     H 2732   3.908   5.246   0.225
    2MOL1    Cl 2733   0.712   4.911   2.398
    2MOL1     C 2734   0.654   5.069   2.343
    2MOL1    Cl 2735   0.515   5.122   2.439
    2MOL1    Cl 2736   0.784   5.189   2.350
    2MOL1     H 2737   0.621   5.059   2.239
    2MOL1    Cl 2738   2.700   5.200   4.447
    2MOL1     C 2739   2.861   5.133   4.414
    2MOL1    Cl 2740   2.850   4.997   4.300
    2MOL1    Cl 2741   2.969   5.258   4.351
    2MOL1     H 2742   2.903   5.095   4.508
    2MOL1    Cl 2743   4.315   4.034   1.869
    2MOL1     C 2744   4.410   4.183   1.862
    2MOL1    Cl 2745   4.582   4.146   1.843
    2MOL1    Cl 2746   4.353   4.286   1.730
    2MOL1     H 2747   4.396   4.237   1.956
    2MOL1    Cl 2748   3.114   3.712   4.838
    2MOL1     C 2749   3.274   3.688   4.907
    2MOL1    Cl 2750   3.290   3.776   5.060
    2MOL1    Cl 2751   3.306   3.515   4.932
    2MOL1     H 2752   3.349   3.727   4.837
    2MOL1    Cl 2753   2.836   0.712   4.307
    2MOL1     C 2754   2.745   0.566   4.349
    2MOL1    Cl 2755   2.815   0.489   4.492
    2MOL1    Cl 2756   2.574   0.604   4.375
    2MOL1     H 2757   2.753   0.496   4.265
    2MOL1    Cl 2758   3.419   3.212   1.705
    2MOL1     C 2759   3.366   3.321   1.834
    2MOL1    Cl 2760   3.467   3.466   1.838
    2MOL1    Cl 2761   3.196   3.364   1.813
    2MOL1     H 2762   3.377   3.268   1.930
    2MOL1    Cl 2763   0.250   2.908   3.632
    2MOL1     C 2764   0.104   3.004   3.663
    2MOL1    Cl 2765   0.000   2.924   3.781
    2MOL1    Cl 2766   0.148   3.167   3.718
    2MOL1     H 2767   0.049   3.014   3.569
    2MOL1    Cl 2768   1.522   4.037   3.072
    2MOL1     C 2769   1.479   3.866   3.086
    2MOL1    Cl 2770   1.617   3.763   3.045
    2MOL1    Cl 2771   1.421   3.830   3.250
    2MOL1     H 2772   1.398   3.845   3.016
    2MOL1    Cl 2773   2.916   4.217   1.927
    2MOL1     C 2774   2.835   4.219   1.770
    2MOL1    Cl 2775   2.674   4.144   1.782
    2MOL1    Cl 2776   2.822   4.385   1.709
    2MOL1     H 2777   2.895   4.161   1.700
    2MOL1    Cl 2778   5.114   1.826   2.888
    2MOL1     C 2779   5.147   1.662   2.948
    2MOL1    Cl 2780   5.269   1.666   3.077
    2MOL1    Cl 2781   4.998   1.586   3.005
    2MOL1     H 2782   5.187   1.603   2.865
    2MOL1    Cl 2783   4.281   3.503   2.928
    2MOL1     C 2784   4.423   3.440   3.011
    2MOL1    Cl 2785   4.566   3.450   2.908
    2MOL1    Cl 2786   4.450   3.527   3.163
    2MOL1     H 2787   4.406   3.335   3.035
    2MOL1    Cl 2788   2.606   4.836   2.685
    2MOL1     C 2789   2.755   4.931   2.671
    2MOL1    Cl 2790   2.750   5.070   2.780
    2MOL1    Cl 2791   2.897   4.830   2.705
    2MOL1     H 2792   2.763   4.967   2.568
    2MOL1    Cl 2793   3.114   3.197   2.563
    2MOL1     C 2794   3.037   3.225   2.406
    2MOL1    Cl 2795   2.960   3.077   2.347
    2MOL1    Cl 2796   2.918   3.356   2.419
    2MOL1     H 2797   3.113   3.255   2.335
    2MOL1    Cl 2798   2.074   3.448   4.131
    2MOL1     C 2799   1.904   3.492   4.151
    2MOL1    Cl 2800   1.866   3.638   4.058
    2MOL1    Cl 2801   1.798   3.358   4.103
    2MOL1     H 2802   1.886   3.513   4.257
    2MOL1    Cl 2803   4.788   1.752   0.835
    2MOL1     C 2804   4.809   1.755   0.660
    2MOL1    Cl 2805   4.981   1.746   0.618
    2MOL1    Cl 2806   4.720   1.622   0.584
    2MOL1     H 2807   4.770   1.849   0.622
    2MOL1    Cl 2808   2.119   2.892   2.179
    2MOL1     C 2809   2.101   3.065   2.212
    2MOL1    Cl 2810   2.214   3.160   2.114
    2MOL1    Cl 2811   1.934   3.116   2.182
    2MOL1     H 2812   2.123   3.082   2.317
    2MOL1    Cl 2813   1.923   1.018   5.104
    2MOL1     C 2814   1.985   0.962   4.948
    2MOL1    Cl 2815   2.152   1.017   4.923
    2MOL1    Cl 2816   1.976   0.785   4.937
    2MOL1     H 2817   1.923   1.004   4.869
    2MOL1    Cl 2818   0.225   5.247   4.014
    2MOL1     C 2819   0.300   5.090   3.983
    2MOL1    Cl 2820   0.203   4.995   3.870
    2MOL1    Cl 2821   0.465   5.111   3.921
    2MOL1     H 2822   0.306   5.036   4.078
    2MOL1    Cl 2823   1.498   4.499   1.663
    2MOL1     C 2824   1.672   4.490   1.696
    2MOL1    Cl 2825   1.725   4.631   1.790
    2MOL1    Cl 2826   1.712   4.340   1.782
    2MOL1     H 2827   1.725   4.491   1.601
    2MOL1    Cl 2828   5.072   0.998   4.244
    2MOL1     C 2829   4.895   1.002   4.249
    2MOL1    Cl 2830   4.826   0.907   4.116
    2MOL1    Cl 2831   4.836   0.941   4.406
    2MOL1     H 2832   4.862   1.105   4.238
    2MOL1    Cl 2833   2.199   3.247   0.307
    2MOL1     C 2834   2.376   3.244   0.291
    2MOL1    Cl 2835   2.425   3.290   0.127
    2MOL1    Cl 2836   2.451   3.351   0.411
    2MOL1     H 2837   2.410   3.142   0.310
    2MOL1    Cl 2838   2.743   4.189   1.529
    2MOL1     C 2839   2.742   4.288   1.382
    2MOL1    Cl 2840   2.659   4.204   1.250
    2MOL1    Cl 2841   2.665   4.445   1.413
    2MOL1     H 2842   2.845   4.306   1.352
    2MOL1    Cl 2843   1.420   0.856   4.011
    2MOL1     C 2844   1.582   0.874   3.943
    2MOL1    Cl 2845   1.637   1.042   3.956
    2MOL1    Cl 2846   1.696   0.766   4.025
    2MOL1     H 2847   1.579   0.847   3.837
    2MOL1    Cl 2848   1.702   1.019   2.950
    2MOL1     C 2849   1.596   1.151   2.899
    2MOL1    Cl 2850   1.642   1.211   2.739
    2MOL1    Cl 2851   1.427   1.097   2.899
    2MOL1     H 2852   1.606   1.232   2.971
    2MOL1    Cl 2853   1.931   3.249   3.320
    2MOL1     C 2854   2.008   3.190   3.468
    2MOL1    Cl 2855   2.098   3.321   3.548
    2MOL1    Cl 2856   1.887   3.121   3.578
    2MOL1     H 2857   2.079   3.111   3.441
    2MOL1    Cl 2858   3.705   4.324   3.114
    2MOL1     C 2859   3.849   4.296   3.015
    2MOL1    Cl 2860   3.996   4.337   3.105
    2MOL1    Cl 2861   3.855   4.127   2.960
    2MOL1     H 2862   3.843   4.360   2.927
    2MOL1    Cl 2863   2.647   5.117   0.321
    2MOL1     C 2864   2.686   5.128   0.493
    2MOL1    Cl 2865   2.655   5.292   0.553
    2MOL1    Cl 2866   2.592   5.009   0.586
    2MOL1     H 2867   2.792   5.106   0.506
    2MOL1    Cl 2868   1.757   3.850   3.974
    2MOL1     C 2869   1.648   3.815   4.109
    2MOL1    Cl 2870   1.579   3.964   4.174
    2MOL1    Cl 2871   1.520   3.704   4.057
    2MOL1     H 2872   1.706   3.766   4.188
    2MOL1    Cl 2873   2.245   2.163   1.241
    2MOL1     C 2874   2.373   2.253   1.326
    2MOL1    Cl 2875   2.309   2.404   1.393
    2MOL1    Cl 2876   2.444   2.153   1.454
    2MOL1     H 2877   2.451   2.277   1.253
    2MOL1    Cl 2878   3.119   0.219   3.628
    2MOL1     C 2879   3.072   0.175   3.793
    2MOL1    Cl 2880   2.906   0.230   3.826
    2MOL1    Cl 2881   3.085   0.000   3.817
    2MOL1     H 2882   3.139   0.225   3.862
    2MOL1    Cl 2883   1.955   1.322   2.250
    2MOL1     C 2884   2.059   1.277   2.115
    2MOL1    Cl 2885   2.222   1.236   2.172
    2MOL1    Cl 2886   1.989   1.141   2.025
    2MOL1     H 2887   2.067   1.362   2.047
    2MOL1    Cl 2888   2.424   2.873   0.279
    2MOL1     C 2889   2.249   2.866   0.306
    2MOL1    Cl 2890   2.208   2.733   0.415
    2MOL1    Cl 2891   2.191   3.020   0.371
    2MOL1     H 2892   2.200   2.849   0.210
    2MOL1    Cl 2893   3.439   2.628   4.309
    2MOL1     C 2894   3.584   2.536   4.353
    2MOL1    Cl 2895   3.557   2.448   4.504
    2MOL1    Cl 2896   3.629   2.425   4.222
    2MOL1     H 2897   3.666   2.607   4.368
    2MOL1    Cl 2898   0.940   0.385   1.922
    2MOL1     C 2899   0.770   0.386   1.972
    2MOL1    Cl 2900   0.727   0.543   2.043
    2MOL1    Cl 2901   0.664   0.349   1.835
    2MOL1     H 2902   0.756   0.309   2.048
    2MOL1    Cl 2903   4.366   4.967   0.914
    2MOL1     C 2904   4.281   4.859   0.802
    2MOL1    Cl 2905   4.148   4.944   0.721
    2MOL1    Cl 2906   4.394   4.792   0.682
    2MOL1     H 2907   4.239   4.776   0.860
    2MOL1    Cl 2908   0.309   4.496   1.005
    2MOL1     C 2909   0.226   4.342   1.029
    2MOL1    Cl 2910   0.321   4.234   1.132
    2MOL1    Cl 2911   0.065   4.368   1.098
    2MOL1     H 2912   0.214   4.294   0.931
    2MOL1    Cl 2913   2.346   2.374   3.776
    2MOL1     C 2914   2.174   2.343   3.746
    2MOL1    Cl 2915   2.106   2.242   3.875
    2MOL1    Cl 2916   2.085   2.495   3.732
    2MOL1     H 2917   2.165   2.289   3.652
    2MOL1    Cl 2918   0.573   3.975   1.164
    2MOL1     C 2919   0.680   4.095   1.090
    2MOL1    Cl 2920   0.808   4.143   1.203
    2MOL1    Cl 2921   0.750   4.033   0.940
    2MOL1     H 2922   0.620   4.184   1.066
    2MOL1    Cl 2923   1.616   3.895   0.012
    2MOL1     C 2924   1.579   3.734   0.075
    2MOL1    Cl 2925   1.430   3.672   0.002
    2MOL1    Cl 2926   1.714   3.623   0.046
    2MOL1     H 2927   1.564   3.742   0.183
    2MOL1    Cl 2928   3.194   2.267   2.560
    2MOL1     C 2929   3.182   2.090   2.556
    2MOL1    Cl 2930   3.065   2.033   2.676
    2MOL1    Cl 2931   3.137   2.035   2.394
    2MOL1     H 2932   3.280   2.049   2.580
    2MOL1    Cl 2933   2.005   2.613   2.426
    2MOL1     C 2934   1.902   2.749   2.472
    2MOL1    Cl 2935   1.735   2.695   2.496
    2MOL1    Cl 2936   1.963   2.828   2.618
    2MOL1     H 2937   1.903   2.822   2.391
    2MOL1    Cl 2938   3.325   4.982   2.124
    2MOL1     C 2939   3.409   5.137   2.110
    2MOL1    Cl 2940   3.545   5.124   1.997
    2MOL1    Cl 2941   3.298   5.264   2.059
    2MOL1     H 2942   3.449   5.163   2.209
    2MOL1    Cl 2943   0.828   2.537   4.397
    2MOL1     C 2944   0.981   2.523   4.485
    2MOL1    Cl 2945   1.111   2.471   4.377
    2MOL1    Cl 2946   1.022   2.676   4.563
    2MOL1     H 2947   0.969   2.447   4.563
    2MOL1    Cl 2948   4.514   3.800   5.029
    2MOL1     C 2949   4.634   3.899   4.944
    2MOL1    Cl 2950   4.653   3.845   4.777
    2MOL1    Cl 2951   4.588   4.070   4.950
    2MOL1     H 2952   4.730   3.887   4.996
    2MOL1    Cl 2953   5.015   2.037   4.116
    2MOL1     C 2954   4.921   1.894   4.164
    2MOL1    Cl 2955   4.809   1.847   4.035
    2MOL1    Cl 2956   5.029   1.760   4.205
    2MOL1     H 2957   4.863   1.920   4.253
    2MOL1    Cl 2958   4.109   2.225   2.654
    2MOL1     C 2959   4.124   2.264   2.826
    2MOL1    Cl 2960   3.966   2.256   2.906
    2MOL1    Cl 2961   4.239   2.155   2.905
    2MOL1     H 2962   4.162   2.366   2.835
    2MOL1    Cl 2963   1.598   2.848   5.212
    2MOL1     C 2964   1.434   2.910   5.238
    2MOL1    Cl 2965   1.340   2.800   5.340
    2MOL1    Cl 2966   1.439   3.072   5.310
    2MOL1     H 2967   1.384   2.918   5.141
    2MOL1    Cl 2968   3.846   2.078   3.059
    2MOL1     C 2969   3.710   2.174   3.120
    2MOL1    Cl 2970   3.582   2.185   2.998
    2MOL1    Cl 2971   3.647   2.104   3.270
    2MOL1     H 2972   3.746   2.275   3.142
    2MOL1    Cl 2973   2.686   4.788   1.127
    2MOL1     C 2974   2.785   4.870   1.005
    2MOL1    Cl 2975   2.799   4.771   0.858
    2MOL1    Cl 2976   2.717   5.029   0.966
    2MOL1     H 2977   2.885   4.885   1.046
    2MOL1    Cl 2978   1.656   3.980   0.855
    2MOL1     C 2979   1.782   3.858   0.838
    2MOL1    Cl 2980   1.715   3.695   0.859
    2MOL1    Cl 2981   1.862   3.872   0.681
    2MOL1     H 2982   1.857   3.874   0.916
    2MOL1    Cl 2983   5.186   3.059   5.144
    2MOL1     C 2984   5.105   3.217   5.153
    2MOL1    Cl 2985   5.045   3.266   4.994
    2MOL1    Cl 2986   4.973   3.212   5.271
    2MOL1     H 2987   5.178   3.291   5.187
    2MOL1    Cl 2988   2.992   5.188   3.069
    2MOL1     C 2989   2.931   5.023   3.091
    2MOL1    Cl 2990   2.756   5.018   3.067
    2MOL1    Cl 2991   3.013   4.912   2.981
    2MOL1     H 2992   2.953   4.992   3.194
    2MOL1    Cl 2993   4.734   3.755   3.524
    2MOL1     C 2994   4.807   3.862   3.644
    2MOL1    Cl 2995   4.695   3.993   3.687
    2MOL1    Cl 2996   4.855   3.771   3.788
    2MOL1     H 2997   4.896   3.907   3.600
    2MOL1    Cl 2998   1.486   1.079   3.112
    2MOL1     C 2999   1.563   0.942   3.193
    2MOL1    Cl 3000   1.569   0.801   3.086
    2MOL1    Cl 3001   1.725   0.985   3.249
    2MOL1     H 3002   1.502   0.915   3.280
    2MOL1    Cl 3003   3.456   2.833   4.645
    2MOL1     C 3004   3.316   2.734   4.599
    2MOL1    Cl 3005   3.277   2.618   4.727
    2MOL1    Cl 3006   3.176   2.836   4.562
    2MOL1     H 3007   3.342   2.678   4.509
    2MOL1    Cl 3008   2.475   4.229   0.666
    2MOL1     C 3009   2.351   4.335   0.597
    2MOL1    Cl 3010   2.338   4.310   0.422
    2MOL1    Cl 3011   2.195   4.307   0.676
    2MOL1     H 3012   2.380   4.439   0.614
    2MOL1    Cl 3013   3.143   1.691   0.162
    2MOL1     C 3014   3.244   1.608   0.282
    2MOL1    Cl 3015   3.190   1.647   0.446
    2MOL1    Cl 3016   3.240   1.432   0.256
    2MOL1     H 3017   3.347   1.642   0.270
    2MOL1    Cl 3018   2.252   1.621   4.060
    2MOL1     C 3019   2.352   1.767   4.058
    2MOL1    Cl 3020   2.452   1.772   3.912
    2MOL1    Cl 3021   2.250   1.912   4.068
    2MOL1     H 3022   2.418   1.765   4.145
    2MOL1    Cl 3023   1.429   1.105   2.679
    2MOL1     C 3024   1.281   1.010   2.656
    2MOL1    Cl 3025   1.165   1.098   2.556
    2MOL1    Cl 3026   1.319   0.853   2.583
    2MOL1     H 3027   1.236   0.992   2.754
    2MOL1    Cl 3028   2.910   4.480   5.199
    2MOL1     C 3029   2.829   4.333   5.143
    2MOL1    Cl 3030   2.710   4.371   5.017
    2MOL1    Cl 3031   2.948   4.216   5.083
    2MOL1     H 3032   2.777   4.288   5.228
    2MOL1    Cl 3033   2.143   4.680   1.469
    2MOL1     C 3034   2.274   4.574   1.523
    2MOL1    Cl 3035   2.258   4.413   1.449
    2MOL1    Cl 3036   2.432   4.645   1.485
    2MOL1     H 3037   2.266   4.562   1.631
    2MOL1    Cl 3038   0.929   2.401   5.038
    2MOL1     C 3039   0.934   2.537   5.150
    2MOL1    Cl 3040   0.777   2.620   5.157
    2MOL1    Cl 3041   0.982   2.482   5.312
    2MOL1     H 3042   1.009   2.609   5.115
    2MOL1    Cl 3043   1.711   1.341   1.868
    2MOL1     C 3044   1.649   1.179   1.834
    2MOL1    Cl 3045   1.672   1.139   1.663
    2MOL1    Cl 3046   1.728   1.059   1.938
    2MOL1     H 3047   1.542   1.178   1.856
    2MOL1    Cl 3048   0.538   3.527   3.805
    2MOL1     C 3049   0.519   3.629   3.661
    2MOL1    Cl 3050   0.673   3.645   3.576
    2MOL1    Cl 3051   0.395   3.562   3.553
    2MOL1     H 3052   0.486   3.728   3.693
    2MOL1    Cl 3053   0.178   0.028   3.903
    2MOL1     C 3054   0.290   0.148   3.836
    2MOL1    Cl 3055   0.418   0.068   3.742
    2MOL1    Cl 3056   0.203   0.265   3.736
    2MOL1     H 3057   0.337   0.201   3.919
    2MOL1    Cl 3058   4.134   5.252   3.394
    2MOL1     C 3059   4.276   5.209   3.296
    2MOL1    Cl 3060   4.404   5.142   3.398
    2MOL1    Cl 3061   4.231   5.094   3.169
    2MOL1     H 3062   4.314   5.300   3.249
    2MOL1    Cl 3063   3.168   3.872   1.561
    2MOL1     C 3064   3.259   4.023   1.547
    2MOL1    Cl 3065   3.279   4.099   1.706
    2MOL1    Cl 3066   3.417   3.994   1.472
    2MOL1     H 3067   3.203   4.092   1.483
    2MOL1    Cl 3068   4.537   4.171   3.916
    2MOL1     C 3069   4.629   4.266   3.798
    2MOL1    Cl 3070   4.556   4.252   3.637
    2MOL1    Cl 3071   4.638   4.436   3.847
    2MOL1     H 3072   4.730   4.226   3.792
    2MOL1    Cl 3073   0.960   3.999   0.330
    2MOL1     C 3074   0.815   4.070   0.404
    2MOL1    Cl 3075   0.845   4.112   0.573
    2MOL1    Cl 3076   0.763   4.212   0.313
    2MOL1     H 3077   0.735   3.995   0.400
    2MOL1    Cl 3078   4.939   2.314   5.118
    2MOL1     C 3079   5.113   2.347   5.107
    2MOL1    Cl 3080   5.192   2.231   4.999
    2MOL1    Cl 3081   5.141   2.513   5.052
    2MOL1     H 3082   5.156   2.336   5.207
    2MOL1    Cl 3083   1.161   5.235   2.461
    2MOL1     C 3084   1.019   5.206   2.562
    2MOL1    Cl 3085   0.888   5.318   2.520
    2MOL1    Cl 3086   0.965   5.038   2.547
    2MOL1     H 3087   1.047   5.224   2.667
    2MOL1    Cl 3088   1.112   1.192   4.082
    2MOL1     C 3089   0.972   1.267   4.161
    2MOL1    Cl 3090   0.870   1.144   4.237
    2MOL1    Cl 3091   1.025   1.387   4.280
    2MOL1     H 3092   0.913   1.319   4.085
    2MOL1    Cl 3093   3.894   2.656   4.386
    2MOL1     C 3094   3.902   2.709   4.217
    2MOL1    Cl 3095   3.866   2.574   4.108
    2MOL1    Cl 3096   3.792   2.844   4.189
    2MOL1     H 3097   4.004   2.743   4.197
    2MOL1    Cl 3098   2.136   3.478   5.204
    2MOL1     C 3099   2.306   3.516   5.172
    2MOL1    Cl 3100   2.329   3.692   5.158
    2MOL1    Cl 3101   2.410   3.450   5.300
    2MOL1     H 3102   2.335   3.470   5.077
    2MOL1    Cl 3103   1.426   0.677   1.054
    2MOL1     C 3104   1.291   0.617   0.957
    2MOL1    Cl 3105   1.300   0.441   0.940
    2MOL1    Cl 3106   1.136   0.664   1.030
    2MOL1     H 3107   1.297   0.662   0.858
    2MOL1    Cl 3108   0.472   3.715   0.710
    2MOL1     C 3109   0.382   3.685   0.560
    2MOL1    Cl 3110   0.447   3.543   0.476
    2MOL1    Cl 3111   0.210   3.664   0.595
    2MOL1     H 3112   0.394   3.772   0.496
    2MOL1    Cl 3113   3.274   1.611   3.489
    2MOL1     C 3114   3.219   1.764   3.418
    2MOL1    Cl 3115   3.266   1.774   3.248
    2MOL1    Cl 3116   3.044   1.781   3.435
    2MOL1     H 3117   3.267   1.846   3.472
    2MOL1    Cl 3118   2.837   4.611   0.191
    2MOL1     C 3119   2.828   4.749   0.301
    2MOL1    Cl 3120   2.921   4.886   0.237
    2MOL1    Cl 3121   2.659   4.796   0.329
    2MOL1     H 3122   2.872   4.720   0.397
    2MOL1    Cl 3123   3.725   3.392   3.279
    2MOL1     C 3124   3.681   3.527   3.385
    2MOL1    Cl 3125   3.511   3.516   3.432
    2MOL1    Cl 3126   3.785   3.530   3.528
    2MOL1     H 3127   3.696   3.620   3.330
    2MOL1    Cl 3128   3.067   4.089   1.075
    2MOL1     C 3129   2.957   3.969   1.006
    2MOL1    Cl 3130   3.000   3.932   0.839
    2MOL1    Cl 3131   2.957   3.821   1.104
    2MOL1     H 3132   2.856   4.011   1.007
    2MOL1    Cl 3133   4.402   4.257   1.124
    2MOL1     C 3134   4.500   4.368   1.222
    2MOL1    Cl 3135   4.616   4.277   1.321
    2MOL1    Cl 3136   4.584   4.484   1.119
    2MOL1     H 3137   4.434   4.423   1.289
    2MOL1    Cl 3138   4.526   3.222   0.242
    2MOL1     C 3139   4.585   3.064   0.296
    2MOL1    Cl 3140   4.501   2.934   0.210
    2MOL1    Cl 3141   4.760   3.051   0.270
    2MOL1     H 3142   4.565   3.054   0.402
    2MOL1    Cl 3143   2.705   0.973   2.272
    2MOL1     C 3144   2.878   0.981   2.235
    2MOL1    Cl 3145   2.959   1.100   2.338
    2MOL1    Cl 3146   2.953   0.822   2.253
    2MOL1     H 3147   2.889   1.013   2.131
    2MOL1    Cl 3148   3.280   4.609   3.050
    2MOL1     C 3149   3.452   4.622   3.006
    2MOL1    Cl 3150   3.535   4.468   3.032
    2MOL1    Cl 3151   3.468   4.674   2.838
    2MOL1     H 3152   3.498   4.698   3.070
    2MOL1    Cl 3153   3.844   3.422   4.098
    2MOL1     C 3154   3.754   3.538   3.999
    2MOL1    Cl 3155   3.846   3.580   3.853
    2MOL1    Cl 3156   3.595   3.472   3.955
    2MOL1     H 3157   3.739   3.629   4.058
    2MOL1    Cl 3158   4.234   0.164   0.198
    2MOL1     C 3159   4.178   0.331   0.215
    2MOL1    Cl 3160   4.295   0.444   0.145
    2MOL1    Cl 3161   4.019   0.351   0.138
    2MOL1     H 3162   4.168   0.353   0.321
    2MOL1    Cl 3163   3.383   3.286   3.525
    2MOL1     C 3164   3.285   3.143   3.487
    2MOL1    Cl 3165   3.132   3.191   3.411
    2MOL1    Cl 3166   3.374   3.031   3.382
    2MOL1     H 3167   3.262   3.091   3.581
    2MOL1    Cl 3168   0.523   2.914   1.997
    2MOL1     C 3169   0.619   2.766   1.977
    2MOL1    Cl 3170   0.785   2.792   2.033
    2MOL1    Cl 3171   0.544   2.631   2.063
    2MOL1     H 3172   0.622   2.742   1.870
    2MOL1    Cl 3173   5.274   4.481   2.966
    2MOL1     C 3174   5.186   4.329   2.988
    2MOL1    Cl 3175   5.277   4.218   3.092
    2MOL1    Cl 3176   5.025   4.360   3.056
    2MOL1     H 3177   5.173   4.282   2.890
    2MOL1    Cl 3178   2.426   3.588   1.669
    2MOL1     C 3179   2.423   3.496   1.518
    2MOL1    Cl 3180   2.538   3.362   1.524
    2MOL1    Cl 3181   2.260   3.437   1.483
    2MOL1     H 3182   2.453   3.563   1.436
    2MOL1    Cl 3183   5.065   1.349   2.269
    2MOL1     C 3184   5.068   1.390   2.441
    2MOL1    Cl 3185   5.099   1.245   2.539
    2MOL1    Cl 3186   5.191   1.514   2.473
    2MOL1     H 3187   4.970   1.430   2.469
    2MOL1    Cl 3188   4.307   3.153   4.137
    2MOL1     C 3189   4.188   3.130   4.008
    2MOL1    Cl 3190   4.263   3.051   3.868
    2MOL1    Cl 3191   4.050   3.036   4.066
    2MOL1     H 3192   4.152   3.228   3.977
    2MOL1    Cl 3193   1.616   3.359   3.409
    2MOL1     C 3194   1.604   3.526   3.469
    2MOL1    Cl 3195   1.677   3.539   3.629
    2MOL1    Cl 3196   1.681   3.638   3.355
    2MOL1     H 3197   1.498   3.552   3.476
    2MOL1    Cl 3198   2.470   3.436   2.612
    2MOL1     C 3199   2.538   3.272   2.618
    2MOL1    Cl 3200   2.455   3.166   2.503
    2MOL1    Cl 3201   2.712   3.276   2.586
    2MOL1     H 3202   2.522   3.232   2.719
    2MOL1    Cl 3203   1.840   2.968   0.265
    2MOL1     C 3204   1.924   2.871   0.142
    2MOL1    Cl 3205   1.810   2.809   0.022
    2MOL1    Cl 3206   2.051   2.967   0.064
    2MOL1     H 3207   1.972   2.786   0.192
    2MOL1    Cl 3208   4.819   0.697   2.998
    2MOL1     C 3209   4.838   0.813   2.866
    2MOL1    Cl 3210   4.721   0.946   2.883
    2MOL1    Cl 3211   5.003   0.876   2.861
    2MOL1     H 3212   4.817   0.762   2.772
    2MOL1    Cl 3213   4.730   2.146   1.247
    2MOL1     C 3214   4.880   2.054   1.262
    2MOL1    Cl 3215   4.940   2.004   1.103
    2MOL1    Cl 3216   5.003   2.150   1.347
    2MOL1     H 3217   4.860   1.965   1.321
    2MOL1    Cl 3218   3.350   3.892   0.362
    2MOL1     C 3219   3.258   4.043   0.372
    2MOL1    Cl 3220   3.258   4.126   0.215
    2MOL1    Cl 3221   3.092   4.012   0.426
    2MOL1     H 3222   3.307   4.108   0.445
    2MOL1    Cl 3223   2.827   4.006   3.534
    2MOL1     C 3224   2.707   4.109   3.614
    2MOL1    Cl 3225   2.594   4.010   3.708
    2MOL1    Cl 3226   2.787   4.229   3.717
    2MOL1     H 3227   2.650   4.162   3.537
    2MOL1    Cl 3228   2.108   4.403   2.128
    2MOL1     C 3229   2.019   4.545   2.184
    2MOL1    Cl 3230   2.035   4.563   2.360
    2MOL1    Cl 3231   2.075   4.692   2.102
    2MOL1     H 3232   1.913   4.531   2.161
    2MOL1    Cl 3233   1.658   1.770   0.848
    2MOL1     C 3234   1.587   1.796   0.688
    2MOL1    Cl 3235   1.633   1.665   0.578
    2MOL1    Cl 3236   1.411   1.810   0.698
    2MOL1     H 3237   1.627   1.890   0.648
    2MOL1    Cl 3238   0.084   2.915   4.431
    2MOL1     C 3239   0.248   2.869   4.383
    2MOL1    Cl 3240   0.326   2.774   4.511
    2MOL1    Cl 3241   0.245   2.778   4.231
    2MOL1     H 3242   0.306   2.960   4.367
    2MOL1    Cl 3243   0.352   1.605   4.690
    2MOL1     C 3244   0.523   1.637   4.723
    2MOL1    Cl 3245   0.590   1.515   4.832
    2MOL1    Cl 3246   0.615   1.643   4.572
    2MOL1     H 3247   0.530   1.735   4.772
    2MOL1    Cl 3248   5.127   2.958   0.569
    2MOL1     C 3249   4.965   2.901   0.614
    2MOL1    Cl 3250   4.938   2.922   0.788
    2MOL1    Cl 3251   4.841   2.986   0.521
    2MOL1     H 3252   4.959   2.794   0.591
    2MOL1    Cl 3253   2.274   4.210   4.954
    2MOL1     C 3254   2.182   4.243   4.806
    2MOL1    Cl 3255   2.146   4.416   4.792
    2MOL1    Cl 3256   2.271   4.186   4.664
    2MOL1     H 3257   2.087   4.189   4.812
    2MOL1    Cl 3258   2.903   3.477   3.197
    2MOL1     C 3259   3.078   3.474   3.225
    2MOL1    Cl 3260   3.155   3.355   3.119
    2MOL1    Cl 3261   3.147   3.635   3.199
    2MOL1     H 3262   3.096   3.445   3.329
    2MOL1    Cl 3263   3.087   4.450   0.348
    2MOL1     C 3264   2.950   4.351   0.398
    2MOL1    Cl 3265   2.990   4.257   0.543
    2MOL1    Cl 3266   2.807   4.452   0.427
    2MOL1     H 3267   2.926   4.281   0.317
    2MOL1    Cl 3268   3.266   4.535   0.446
    2MOL1     C 3269   3.434   4.483   0.465
    2MOL1    Cl 3270   3.490   4.513   0.630
    2MOL1    Cl 3271   3.452   4.312   0.422
    2MOL1     H 3272   3.496   4.542   0.397
    2MOL1    Cl 3273   2.313   3.941   1.002
    2MOL1     C 3274   2.392   3.783   1.016
    2MOL1    Cl 3275   2.558   3.802   1.075
    2MOL1    Cl 3276   2.300   3.676   1.123
    2MOL1     H 3277   2.396   3.738   0.916
    2MOL1    Cl 3278   4.107   3.747   3.808
    2MOL1     C 3279   4.080   3.906   3.734
    2MOL1    Cl 3280   3.966   4.001   3.831
    2MOL1    Cl 3281   4.234   3.992   3.717
    2MOL1     H 3282   4.037   3.891   3.635
    2MOL1    Cl 3283   4.193   0.454   3.694
    2MOL1     C 3284   4.184   0.334   3.564
    2MOL1    Cl 3285   4.034   0.240   3.575
    2MOL1    Cl 3286   4.196   0.412   3.405
    2MOL1     H 3287   4.268   0.265   3.575
    2MOL1    Cl 3288   2.340   2.547   3.417
    2MOL1     C 3289   2.448   2.684   3.443
    2MOL1    Cl 3290   2.374   2.803   3.552
    2MOL1    Cl 3291   2.604   2.629   3.508
    2MOL1     H 3292   2.467   2.732   3.347
    2MOL1    Cl 3293   4.944   4.769   2.563
    2MOL1     C 3294   5.048   4.665   2.662
    2MOL1    Cl 3295   4.975   4.636   2.821
    2MOL1    Cl 3296   5.079   4.511   2.579
    2MOL1     H 3297   5.143   4.715   2.677
    2MOL1    Cl 3298   2.526   0.733   2.016
    2MOL1     C 3299   2.381   0.831   2.043
    2MOL1    Cl 3300   2.283   0.763   2.174
    2MOL1    Cl 3301   2.425   0.999   2.079
    2MOL1     H 3302   2.321   0.830   1.951
    2MOL1    Cl 3303   0.415   2.384   2.978
    2MOL1     C 3304   0.250   2.361   3.039
    2MOL1    Cl 3305   0.157   2.258   2.928
    2MOL1    Cl 3306   0.252   2.290   3.201
    2MOL1     H 3307   0.201   2.458   3.044
    2MOL1    Cl 3308   1.175   4.056   1.075
    2MOL1     C 3309   1.003   4.073   1.111
    2MOL1    Cl 3310   0.909   3.948   1.027
    2MOL1    Cl 3311   0.975   4.065   1.286
    2MOL1     H 3312   0.969   4.170   1.075
    2MOL1    Cl 3313   2.480   3.017   0.601
    2MOL1     C 3314   2.621   3.059   0.701
    2MOL1    Cl 3315   2.682   3.220   0.659
    2MOL1    Cl 3316   2.579   3.051   0.873
    2MOL1     H 3317   2.700   2.986   0.681
    2MOL1    Cl 3318   0.728   0.718   1.065
    2MOL1     C 3319   0.708   0.652   0.902
    2MOL1    Cl 3320   0.680   0.477   0.909
    2MOL1    Cl 3321   0.575   0.733   0.818
    2MOL1     H 3322   0.800   0.670   0.846
    2MOL1    Cl 3323   5.270   2.124   3.267
    2MOL1     C 3324   5.107   2.185   3.236
    2MOL1    Cl 3325   5.112   2.323   3.124
    2MOL1    Cl 3326   5.004   2.057   3.171
    2MOL1     H 3327   5.064   2.219   3.330
    2MOL1    Cl 3328   2.541   1.183   3.465
    2MOL1     C 3329   2.529   1.011   3.505
    2MOL1    Cl 3330   2.675   0.957   3.589
    2MOL1    Cl 3331   2.385   0.980   3.604
    2MOL1     H 3332   2.520   0.955   3.412
    2MOL1    Cl 3333   5.128   0.989   2.406
    2MOL1     C 3334   5.079   1.015   2.238
    2MOL1    Cl 3335   5.119   0.873   2.140
    2MOL1    Cl 3336   4.905   1.050   2.229
    2MOL1     H 3337   5.133   1.100   2.199
    2MOL1    Cl 3338   4.106   0.463   4.574
    2MOL1     C 3339   3.964   0.564   4.546
    2MOL1    Cl 3340   3.846   0.545   4.677
    2MOL1    Cl 3341   4.011   0.734   4.528
    2MOL1     H 3342   3.917   0.532   4.452
    2MOL1    Cl 3343   5.145   1.047   5.053
    2MOL1     C 3344   5.108   0.874   5.058
    2MOL1    Cl 3345   5.235   0.785   5.143
    2MOL1    Cl 3346   4.951   0.847   5.136
    2MOL1     H 3347   5.102   0.837   4.956
    2MOL1    Cl 3348   2.847   0.634   1.316
    2MOL1     C 3349   2.958   0.546   1.422
    2MOL1    Cl 3350   2.991   0.639   1.570
    2MOL1    Cl 3351   2.892   0.386   1.462
    2MOL1     H 3352   3.053   0.532   1.369
    2MOL1    Cl 3353   2.087   1.489   3.749
    2MOL1     C 3354   2.122   1.341   3.840
    2MOL1    Cl 3355   1.974   1.247   3.866
    2MOL1    Cl 3356   2.244   1.243   3.755
    2MOL1     H 3357   2.162   1.369   3.937
    2MOL1    Cl 3358   3.412   1.372   2.244
    2MOL1     C 3359   3.535   1.380   2.117
    2MOL1    Cl 3360   3.647   1.514   2.148
    2MOL1    Cl 3361   3.623   1.226   2.106
    2MOL1     H 3362   3.485   1.398   2.022
    2MOL1    Cl 3363   3.837   2.308   4.286
    2MOL1     C 3364   3.893   2.147   4.333
    2MOL1    Cl 3365   4.009   2.158   4.466
    2MOL1    Cl 3366   3.756   2.044   4.377
    2MOL1     H 3367   3.943   2.102   4.247
  5.5400000  5.5400000  5.5400000
