Generated by Interchange
197
    1MOP     C1    1  -0.263   0.547   0.089
    1MOP     O2    2  -0.151   0.466   0.056
    1MOP     C3    3  -0.171   0.331   0.045
    1MOP     C4    4  -0.291   0.264   0.066
    1MOP     C5    5  -0.296   0.125   0.054
    1MOP     C6    6  -0.182   0.049   0.020
    1MOP     C7    7  -0.194  -0.098   0.013
    1MOP     C8    8  -0.286  -0.160  -0.074
    1MOP     C9    9  -0.297  -0.300  -0.080
    1MOP    C10   10  -0.405  -0.359  -0.162
    1MOP    O11   11  -0.476  -0.295  -0.238
    1MOP    C12   12  -0.212  -0.380  -0.002
    1MOP    C13   13  -0.120  -0.320   0.084
    1MOP    C14   14  -0.114  -0.181   0.094
    1MOP    C15   15  -0.060   0.118  -0.005
    1MOP    C16   16   0.062   0.047  -0.047
    1MOP    C17   17   0.182   0.056   0.028
    1MOP    C18   18   0.294  -0.024  -0.002
    1MOP    C19   19   0.419  -0.016   0.085
    1MOP    C20   20   0.443  -0.142   0.167
    1MOP    N21   21   0.543   0.027   0.018
    1MOP    C22   22   0.281  -0.116  -0.106
    1MOP    C23   23   0.168  -0.120  -0.187
    1MOP    C24   24   0.060  -0.038  -0.158
    1MOP    C25   25  -0.057   0.258   0.010
    1MOP    H26   26  -0.304   0.520   0.187
    1MOP    H27   27  -0.340   0.541   0.011
    1MOP    H28   28  -0.229   0.651   0.094
    1MOP    H29   29  -0.383   0.316   0.091
    1MOP    H30   30  -0.390   0.074   0.074
    1MOP    H31   31  -0.350  -0.099  -0.137
    1MOP    H32   32  -0.217  -0.488  -0.006
    1MOP    H33   33  -0.055  -0.382   0.145
    1MOP    H34   34  -0.044  -0.137   0.164
    1MOP    H35   35   0.185   0.123   0.114
    1MOP    H36   36   0.402   0.065   0.157
    1MOP    H37   37   0.525  -0.126   0.238
    1MOP    H38   38   0.354  -0.170   0.225
    1MOP    H39   39   0.470  -0.227   0.104
    1MOP    H40   40   0.606   0.072   0.083
    1MOP    H41   41   0.361  -0.187  -0.128
    1MOP    H42   42   0.164  -0.188  -0.272
    1MOP    H43   43  -0.029  -0.044  -0.221
    1MOP    H44   44   0.036   0.312  -0.007
    2MOP    C45   45   1.123  -0.646  -0.606
    2MOP    O46   46   1.120  -0.664  -0.464
    2MOP    C47   47   1.067  -0.562  -0.390
    2MOP    C48   48   1.013  -0.445  -0.441
    2MOP    C49   49   0.965  -0.347  -0.354
    2MOP    C50   50   0.968  -0.364  -0.214
    2MOP    C51   51   0.922  -0.251  -0.129
    2MOP    C52   52   0.794  -0.194  -0.145
    2MOP    C53   53   0.746  -0.093  -0.060
    2MOP    C54   54   0.605  -0.047  -0.082
    2MOP    O55   55   0.550  -0.079  -0.187
    2MOP    C56   56   0.828  -0.047   0.044
    2MOP    C57   57   0.957  -0.099   0.059
    2MOP    C58   58   1.004  -0.198  -0.028
    2MOP    C59   59   1.017  -0.487  -0.162
    2MOP    C60   60   1.011  -0.520  -0.018
    2MOP    C61   61   1.126  -0.550   0.057
    2MOP    C62   62   1.121  -0.565   0.197
    2MOP    C63   63   1.249  -0.594   0.275
    2MOP    C64   64   1.292  -0.475   0.361
    2MOP    N65   65   1.257  -0.718   0.353
    2MOP    C66   66   0.999  -0.542   0.261
    2MOP    C67   67   0.882  -0.523   0.188
    2MOP    C68   68   0.888  -0.515   0.049
    2MOP    C69   69   1.068  -0.583  -0.252
    2MOP    H70   70   1.184  -0.559  -0.633
    2MOP    H71   71   1.021  -0.638  -0.646
    2MOP    H72   72   1.169  -0.735  -0.650
    2MOP    H73   73   1.008  -0.425  -0.547
    2MOP    H74   74   0.924  -0.255  -0.396
    2MOP    H75   75   0.729  -0.233  -0.223
    2MOP    H76   76   0.796   0.028   0.115
    2MOP    H77   77   1.021  -0.064   0.139
    2MOP    H78   78   1.105  -0.237  -0.014
    2MOP    H79   79   1.222  -0.558   0.006
    2MOP    H80   80   1.328  -0.607   0.200
    2MOP    H81   81   1.393  -0.491   0.400
    2MOP    H82   82   1.293  -0.382   0.303
    2MOP    H83   83   1.225  -0.461   0.447
    2MOP    H84   84   1.353  -0.743   0.369
    2MOP    H85   85   0.992  -0.542   0.369
    2MOP    H86   86   0.787  -0.513   0.239
    2MOP    H87   87   0.795  -0.499  -0.006
    2MOP    H88   88   1.107  -0.678  -0.214
    3MOP    C89   89   0.726  -0.839   1.289
    3MOP    O90   90   0.847  -0.764   1.284
    3MOP    C91   91   0.921  -0.773   1.170
    3MOP    C92   92   0.891  -0.853   1.060
    3MOP    C93   93   0.979  -0.857   0.951
    3MOP    C94   94   1.097  -0.781   0.948
    3MOP    C95   95   1.188  -0.796   0.832
    3MOP    C96   96   1.143  -0.775   0.700
    3MOP    C97   97   1.229  -0.785   0.589
    3MOP    C98   98   1.170  -0.750   0.456
    3MOP    O99   99   1.048  -0.747   0.447
    3MOP   C100  100   1.363  -0.819   0.609
    3MOP   C101  101   1.409  -0.842   0.739
    3MOP   C102  102   1.323  -0.832   0.848
    3MOP   C103  103   1.124  -0.695   1.057
    3MOP   C104  104   1.240  -0.603   1.058
    3MOP   C105  105   1.339  -0.610   1.158
    3MOP   C106  106   1.457  -0.533   1.150
    3MOP   C107  107   1.564  -0.548   1.257
    3MOP   C108  108   1.691  -0.612   1.201
    3MOP   N109  109   1.598  -0.429   1.337
    3MOP   C110  110   1.474  -0.453   1.037
    3MOP   C111  111   1.374  -0.438   0.942
    3MOP   C112  112   1.256  -0.510   0.954
    3MOP   C113  113   1.036  -0.695   1.168
    3MOP   H114  114   0.747  -0.946   1.283
    3MOP   H115  115   0.657  -0.807   1.210
    3MOP   H116  116   0.678  -0.820   1.385
    3MOP   H117  117   0.802  -0.914   1.056
    3MOP   H118  118   0.954  -0.922   0.867
    3MOP   H119  119   1.039  -0.745   0.685
    3MOP   H120  120   1.434  -0.828   0.528
    3MOP   H121  121   1.514  -0.867   0.755
    3MOP   H122  122   1.362  -0.850   0.948
    3MOP   H123  123   1.326  -0.680   1.240
    3MOP   H124  124   1.525  -0.618   1.332
    3MOP   H125  125   1.763  -0.630   1.281
    3MOP   H126  126   1.669  -0.708   1.153
    3MOP   H127  127   1.740  -0.548   1.127
    3MOP   H128  128   1.637  -0.456   1.426
    3MOP   H129  129   1.566  -0.397   1.022
    3MOP   H130  130   1.388  -0.370   0.858
    3MOP   H131  131   1.178  -0.498   0.880
    3MOP   H132  132   1.057  -0.630   1.253
    4MOP   C133  133   2.195   0.369   0.914
    4MOP   O134  134   2.256   0.248   0.958
    4MOP   C135  135   2.180   0.165   1.036
    4MOP   C136  136   2.047   0.186   1.072
    4MOP   C137  137   1.982   0.093   1.154
    4MOP   C138  138   2.046  -0.023   1.201
    4MOP   C139  139   1.972  -0.114   1.291
    4MOP   C140  140   1.848  -0.169   1.253
    4MOP   C141  141   1.777  -0.259   1.335
    4MOP   C142  142   1.649  -0.313   1.282
    4MOP   O143  143   1.596  -0.252   1.189
    4MOP   C144  144   1.832  -0.296   1.458
    4MOP   C145  145   1.955  -0.243   1.498
    4MOP   C146  146   2.022  -0.152   1.416
    4MOP   C147  147   2.180  -0.046   1.160
    4MOP   C148  148   2.252  -0.170   1.193
    4MOP   C149  149   2.372  -0.167   1.265
    4MOP   C150  150   2.438  -0.285   1.301
    4MOP   C151  151   2.565  -0.283   1.384
    4MOP   C152  152   2.536  -0.316   1.531
    4MOP   N153  153   2.675  -0.361   1.326
    4MOP   C154  154   2.379  -0.406   1.262
    4MOP   C155  155   2.260  -0.411   1.189
    4MOP   C156  156   2.198  -0.293   1.153
    4MOP   C157  157   2.245   0.050   1.078
    4MOP   H158  158   2.163   0.430   0.999
    4MOP   H159  159   2.111   0.347   0.847
    4MOP   H160  160   2.269   0.426   0.858
    4MOP   H161  161   1.992   0.273   1.039
    4MOP   H162  162   1.878   0.113   1.182
    4MOP   H163  163   1.807  -0.144   1.155
    4MOP   H164  164   1.783  -0.365   1.526
    4MOP   H165  165   1.999  -0.273   1.593
    4MOP   H166  166   2.117  -0.111   1.451
    4MOP   H167  167   2.415  -0.071   1.294
    4MOP   H168  168   2.604  -0.180   1.383
    4MOP   H169  169   2.629  -0.316   1.590
    4MOP   H170  170   2.468  -0.242   1.575
    4MOP   H171  171   2.488  -0.413   1.543
    4MOP   H172  172   2.765  -0.331   1.360
    4MOP   H173  173   2.426  -0.499   1.286
    4MOP   H174  174   2.218  -0.507   1.160
    4MOP   H175  175   2.106  -0.298   1.095
    4MOP   H176  176   2.347   0.032   1.046
    5CAP   C177  177  -0.542  -0.551  -0.175
    5CAP   O178  178  -0.421  -0.490  -0.129
    5CAP   H179  179  -0.619  -0.537  -0.099
    5CAP   H180  180  -0.523  -0.658  -0.186
    5CAP   H181  181  -0.576  -0.512  -0.272
    6CAP   C182  182   2.558  -0.711   1.590
    6CAP   C183  183   2.603  -0.695   1.444
    6CAP   C184  184   2.726  -0.782   1.419
    6CAP   C185  185   2.486  -0.736   1.354
    6CAP   O186  186   2.633  -0.554   1.432
    6CAP   C187  187   2.675  -0.498   1.317
    6CAP   O188  188   2.709  -0.558   1.216
    6CAP   H189  189   2.530  -0.814   1.614
    6CAP   H190  190   2.636  -0.679   1.660
    6CAP   H191  191   2.471  -0.647   1.610
    6CAP   H192  192   2.810  -0.749   1.481
    6CAP   H193  193   2.759  -0.777   1.315
    6CAP   H194  194   2.705  -0.887   1.442
    6CAP   H195  195   2.398  -0.676   1.377
    6CAP   H196  196   2.509  -0.722   1.248
    6CAP   H197  197   2.458  -0.841   1.370
  5.0000000  5.0000000  5.0000000
