[ defaults ]
; nbfunc	comb-rule	gen-pairs	fudgeLJ	fudgeQQ
     1	     2	yes   	0.500000	0.833333

[ atomtypes ]
;type, bondingtype, atomic_number, mass, charge, ptype, sigma, epsilon
mom_tetramer.pdb_0	     6	12.01078	0.0000000000000000	A    	0.337953176162662	0.4553891161106184
mom_tetramer.pdb_1	     8	15.99943	0.0000000000000000	A    	0.3025106490435313	0.7048581468486769
mom_tetramer.pdb_2	     6	12.01078	0.0000000000000000	A    	0.3480646886945065	0.3635030558377792
mom_tetramer.pdb_3	     6	12.01078	0.0000000000000000	A    	0.3480646886945065	0.3635030558377792
mom_tetramer.pdb_4	     6	12.01078	0.0000000000000000	A    	0.3480646886945065	0.3635030558377792
mom_tetramer.pdb_5	     6	12.01078	0.0000000000000000	A    	0.3480646886945065	0.3635030558377792
mom_tetramer.pdb_6	     6	12.01078	0.0000000000000000	A    	0.3480646886945065	0.3635030558377792
mom_tetramer.pdb_7	     6	12.01078	0.0000000000000000	A    	0.3480646886945065	0.3635030558377792
mom_tetramer.pdb_8	     6	12.01078	0.0000000000000000	A    	0.3480646886945065	0.3635030558377792
mom_tetramer.pdb_9	     6	12.01078	0.0000000000000000	A    	0.3480646886945065	0.3635030558377792
mom_tetramer.pdb_10	     8	15.99943	0.0000000000000000	A    	0.3039812205065809	0.8795023257036865
mom_tetramer.pdb_11	     6	12.01078	0.0000000000000000	A    	0.3480646886945065	0.3635030558377792
mom_tetramer.pdb_12	     6	12.01078	0.0000000000000000	A    	0.3480646886945065	0.3635030558377792
mom_tetramer.pdb_13	     6	12.01078	0.0000000000000000	A    	0.3480646886945065	0.3635030558377792
mom_tetramer.pdb_14	     6	12.01078	0.0000000000000000	A    	0.3480646886945065	0.3635030558377792
mom_tetramer.pdb_15	     6	12.01078	0.0000000000000000	A    	0.3480646886945065	0.3635030558377792
mom_tetramer.pdb_16	     6	12.01078	0.0000000000000000	A    	0.3480646886945065	0.3635030558377792
mom_tetramer.pdb_17	     6	12.01078	0.0000000000000000	A    	0.3480646886945065	0.3635030558377792
mom_tetramer.pdb_18	     6	12.01078	0.0000000000000000	A    	0.337953176162662	0.4553891161106184
mom_tetramer.pdb_19	     6	12.01078	0.0000000000000000	A    	0.337953176162662	0.4553891161106184
mom_tetramer.pdb_20	     7	14.00672	0.0000000000000000	A    	0.3206876023663901	0.7016212989374017
mom_tetramer.pdb_21	     6	12.01078	0.0000000000000000	A    	0.3480646886945065	0.3635030558377792
mom_tetramer.pdb_22	     6	12.01078	0.0000000000000000	A    	0.3480646886945065	0.3635030558377792
mom_tetramer.pdb_23	     6	12.01078	0.0000000000000000	A    	0.3480646886945065	0.3635030558377792
mom_tetramer.pdb_24	     6	12.01078	0.0000000000000000	A    	0.3480646886945065	0.3635030558377792
mom_tetramer.pdb_25	     1	1.007947	0.0000000000000000	A    	0.2583225710839196	0.068656285380106
mom_tetramer.pdb_26	     1	1.007947	0.0000000000000000	A    	0.2583225710839196	0.068656285380106
mom_tetramer.pdb_27	     1	1.007947	0.0000000000000000	A    	0.2583225710839196	0.068656285380106
mom_tetramer.pdb_28	     1	1.007947	0.0000000000000000	A    	0.2572581535063279	0.06531785996356952
mom_tetramer.pdb_29	     1	1.007947	0.0000000000000000	A    	0.2572581535063279	0.06531785996356952
mom_tetramer.pdb_30	     1	1.007947	0.0000000000000000	A    	0.2572581535063279	0.06531785996356952
mom_tetramer.pdb_31	     1	1.007947	0.0000000000000000	A    	0.2572581535063279	0.06531785996356952
mom_tetramer.pdb_32	     1	1.007947	0.0000000000000000	A    	0.2572581535063279	0.06531785996356952
mom_tetramer.pdb_33	     1	1.007947	0.0000000000000000	A    	0.2572581535063279	0.06531785996356952
mom_tetramer.pdb_34	     1	1.007947	0.0000000000000000	A    	0.2572581535063279	0.06531785996356952
mom_tetramer.pdb_35	     1	1.007947	0.0000000000000000	A    	0.2583225710839196	0.068656285380106
mom_tetramer.pdb_36	     1	1.007947	0.0000000000000000	A    	0.2644543413268124	0.06602135607582665
mom_tetramer.pdb_37	     1	1.007947	0.0000000000000000	A    	0.2644543413268124	0.06602135607582665
mom_tetramer.pdb_38	     1	1.007947	0.0000000000000000	A    	0.2644543413268124	0.06602135607582665
mom_tetramer.pdb_39	     1	1.007947	0.0000000000000000	A    	0.1103427677297317	0.05895596890015097
mom_tetramer.pdb_40	     1	1.007947	0.0000000000000000	A    	0.2572581535063279	0.06531785996356952
mom_tetramer.pdb_41	     1	1.007947	0.0000000000000000	A    	0.2572581535063279	0.06531785996356952
mom_tetramer.pdb_42	     1	1.007947	0.0000000000000000	A    	0.2572581535063279	0.06531785996356952
mom_tetramer.pdb_43	     1	1.007947	0.0000000000000000	A    	0.2572581535063279	0.06531785996356952
mom_tetramer.pdb_44	     6	12.01078	0.0000000000000000	A    	0.337953176162662	0.4553891161106184
mom_tetramer.pdb_45	     8	15.99943	0.0000000000000000	A    	0.3025106490435313	0.7048581468486769
mom_tetramer.pdb_46	     6	12.01078	0.0000000000000000	A    	0.3480646886945065	0.3635030558377792
mom_tetramer.pdb_47	     6	12.01078	0.0000000000000000	A    	0.3480646886945065	0.3635030558377792
mom_tetramer.pdb_48	     6	12.01078	0.0000000000000000	A    	0.3480646886945065	0.3635030558377792
mom_tetramer.pdb_49	     6	12.01078	0.0000000000000000	A    	0.3480646886945065	0.3635030558377792
mom_tetramer.pdb_50	     6	12.01078	0.0000000000000000	A    	0.3480646886945065	0.3635030558377792
mom_tetramer.pdb_51	     6	12.01078	0.0000000000000000	A    	0.3480646886945065	0.3635030558377792
mom_tetramer.pdb_52	     6	12.01078	0.0000000000000000	A    	0.3480646886945065	0.3635030558377792
mom_tetramer.pdb_53	     6	12.01078	0.0000000000000000	A    	0.3480646886945065	0.3635030558377792
mom_tetramer.pdb_54	     8	15.99943	0.0000000000000000	A    	0.3039812205065809	0.8795023257036865
mom_tetramer.pdb_55	     6	12.01078	0.0000000000000000	A    	0.3480646886945065	0.3635030558377792
mom_tetramer.pdb_56	     6	12.01078	0.0000000000000000	A    	0.3480646886945065	0.3635030558377792
mom_tetramer.pdb_57	     6	12.01078	0.0000000000000000	A    	0.3480646886945065	0.3635030558377792
mom_tetramer.pdb_58	     6	12.01078	0.0000000000000000	A    	0.3480646886945065	0.3635030558377792
mom_tetramer.pdb_59	     6	12.01078	0.0000000000000000	A    	0.3480646886945065	0.3635030558377792
mom_tetramer.pdb_60	     6	12.01078	0.0000000000000000	A    	0.3480646886945065	0.3635030558377792
mom_tetramer.pdb_61	     6	12.01078	0.0000000000000000	A    	0.3480646886945065	0.3635030558377792
mom_tetramer.pdb_62	     6	12.01078	0.0000000000000000	A    	0.337953176162662	0.4553891161106184
mom_tetramer.pdb_63	     6	12.01078	0.0000000000000000	A    	0.337953176162662	0.4553891161106184
mom_tetramer.pdb_64	     7	14.00672	0.0000000000000000	A    	0.3206876023663901	0.7016212989374017
mom_tetramer.pdb_65	     6	12.01078	0.0000000000000000	A    	0.3480646886945065	0.3635030558377792
mom_tetramer.pdb_66	     6	12.01078	0.0000000000000000	A    	0.3480646886945065	0.3635030558377792
mom_tetramer.pdb_67	     6	12.01078	0.0000000000000000	A    	0.3480646886945065	0.3635030558377792
mom_tetramer.pdb_68	     6	12.01078	0.0000000000000000	A    	0.3480646886945065	0.3635030558377792
mom_tetramer.pdb_69	     1	1.007947	0.0000000000000000	A    	0.2583225710839196	0.068656285380106
mom_tetramer.pdb_70	     1	1.007947	0.0000000000000000	A    	0.2583225710839196	0.068656285380106
mom_tetramer.pdb_71	     1	1.007947	0.0000000000000000	A    	0.2583225710839196	0.068656285380106
mom_tetramer.pdb_72	     1	1.007947	0.0000000000000000	A    	0.2572581535063279	0.06531785996356952
mom_tetramer.pdb_73	     1	1.007947	0.0000000000000000	A    	0.2572581535063279	0.06531785996356952
mom_tetramer.pdb_74	     1	1.007947	0.0000000000000000	A    	0.2572581535063279	0.06531785996356952
mom_tetramer.pdb_75	     1	1.007947	0.0000000000000000	A    	0.2572581535063279	0.06531785996356952
mom_tetramer.pdb_76	     1	1.007947	0.0000000000000000	A    	0.2572581535063279	0.06531785996356952
mom_tetramer.pdb_77	     1	1.007947	0.0000000000000000	A    	0.2572581535063279	0.06531785996356952
mom_tetramer.pdb_78	     1	1.007947	0.0000000000000000	A    	0.2572581535063279	0.06531785996356952
mom_tetramer.pdb_79	     1	1.007947	0.0000000000000000	A    	0.2583225710839196	0.068656285380106
mom_tetramer.pdb_80	     1	1.007947	0.0000000000000000	A    	0.2644543413268124	0.06602135607582665
mom_tetramer.pdb_81	     1	1.007947	0.0000000000000000	A    	0.2644543413268124	0.06602135607582665
mom_tetramer.pdb_82	     1	1.007947	0.0000000000000000	A    	0.2644543413268124	0.06602135607582665
mom_tetramer.pdb_83	     1	1.007947	0.0000000000000000	A    	0.1103427677297317	0.05895596890015097
mom_tetramer.pdb_84	     1	1.007947	0.0000000000000000	A    	0.2572581535063279	0.06531785996356952
mom_tetramer.pdb_85	     1	1.007947	0.0000000000000000	A    	0.2572581535063279	0.06531785996356952
mom_tetramer.pdb_86	     1	1.007947	0.0000000000000000	A    	0.2572581535063279	0.06531785996356952
mom_tetramer.pdb_87	     1	1.007947	0.0000000000000000	A    	0.2572581535063279	0.06531785996356952
mom_tetramer.pdb_88	     6	12.01078	0.0000000000000000	A    	0.337953176162662	0.4553891161106184
mom_tetramer.pdb_89	     8	15.99943	0.0000000000000000	A    	0.3025106490435313	0.7048581468486769
mom_tetramer.pdb_90	     6	12.01078	0.0000000000000000	A    	0.3480646886945065	0.3635030558377792
mom_tetramer.pdb_91	     6	12.01078	0.0000000000000000	A    	0.3480646886945065	0.3635030558377792
mom_tetramer.pdb_92	     6	12.01078	0.0000000000000000	A    	0.3480646886945065	0.3635030558377792
mom_tetramer.pdb_93	     6	12.01078	0.0000000000000000	A    	0.3480646886945065	0.3635030558377792
mom_tetramer.pdb_94	     6	12.01078	0.0000000000000000	A    	0.3480646886945065	0.3635030558377792
mom_tetramer.pdb_95	     6	12.01078	0.0000000000000000	A    	0.3480646886945065	0.3635030558377792
mom_tetramer.pdb_96	     6	12.01078	0.0000000000000000	A    	0.3480646886945065	0.3635030558377792
mom_tetramer.pdb_97	     6	12.01078	0.0000000000000000	A    	0.3480646886945065	0.3635030558377792
mom_tetramer.pdb_98	     8	15.99943	0.0000000000000000	A    	0.3039812205065809	0.8795023257036865
mom_tetramer.pdb_99	     6	12.01078	0.0000000000000000	A    	0.3480646886945065	0.3635030558377792
mom_tetramer.pdb_100	     6	12.01078	0.0000000000000000	A    	0.3480646886945065	0.3635030558377792
mom_tetramer.pdb_101	     6	12.01078	0.0000000000000000	A    	0.3480646886945065	0.3635030558377792
mom_tetramer.pdb_102	     6	12.01078	0.0000000000000000	A    	0.3480646886945065	0.3635030558377792
mom_tetramer.pdb_103	     6	12.01078	0.0000000000000000	A    	0.3480646886945065	0.3635030558377792
mom_tetramer.pdb_104	     6	12.01078	0.0000000000000000	A    	0.3480646886945065	0.3635030558377792
mom_tetramer.pdb_105	     6	12.01078	0.0000000000000000	A    	0.3480646886945065	0.3635030558377792
mom_tetramer.pdb_106	     6	12.01078	0.0000000000000000	A    	0.337953176162662	0.4553891161106184
mom_tetramer.pdb_107	     6	12.01078	0.0000000000000000	A    	0.337953176162662	0.4553891161106184
mom_tetramer.pdb_108	     7	14.00672	0.0000000000000000	A    	0.3206876023663901	0.7016212989374017
mom_tetramer.pdb_109	     6	12.01078	0.0000000000000000	A    	0.3480646886945065	0.3635030558377792
mom_tetramer.pdb_110	     6	12.01078	0.0000000000000000	A    	0.3480646886945065	0.3635030558377792
mom_tetramer.pdb_111	     6	12.01078	0.0000000000000000	A    	0.3480646886945065	0.3635030558377792
mom_tetramer.pdb_112	     6	12.01078	0.0000000000000000	A    	0.3480646886945065	0.3635030558377792
mom_tetramer.pdb_113	     1	1.007947	0.0000000000000000	A    	0.2583225710839196	0.068656285380106
mom_tetramer.pdb_114	     1	1.007947	0.0000000000000000	A    	0.2583225710839196	0.068656285380106
mom_tetramer.pdb_115	     1	1.007947	0.0000000000000000	A    	0.2583225710839196	0.068656285380106
mom_tetramer.pdb_116	     1	1.007947	0.0000000000000000	A    	0.2572581535063279	0.06531785996356952
mom_tetramer.pdb_117	     1	1.007947	0.0000000000000000	A    	0.2572581535063279	0.06531785996356952
mom_tetramer.pdb_118	     1	1.007947	0.0000000000000000	A    	0.2572581535063279	0.06531785996356952
mom_tetramer.pdb_119	     1	1.007947	0.0000000000000000	A    	0.2572581535063279	0.06531785996356952
mom_tetramer.pdb_120	     1	1.007947	0.0000000000000000	A    	0.2572581535063279	0.06531785996356952
mom_tetramer.pdb_121	     1	1.007947	0.0000000000000000	A    	0.2572581535063279	0.06531785996356952
mom_tetramer.pdb_122	     1	1.007947	0.0000000000000000	A    	0.2572581535063279	0.06531785996356952
mom_tetramer.pdb_123	     1	1.007947	0.0000000000000000	A    	0.2583225710839196	0.068656285380106
mom_tetramer.pdb_124	     1	1.007947	0.0000000000000000	A    	0.2644543413268124	0.06602135607582665
mom_tetramer.pdb_125	     1	1.007947	0.0000000000000000	A    	0.2644543413268124	0.06602135607582665
mom_tetramer.pdb_126	     1	1.007947	0.0000000000000000	A    	0.2644543413268124	0.06602135607582665
mom_tetramer.pdb_127	     1	1.007947	0.0000000000000000	A    	0.1103427677297317	0.05895596890015097
mom_tetramer.pdb_128	     1	1.007947	0.0000000000000000	A    	0.2572581535063279	0.06531785996356952
mom_tetramer.pdb_129	     1	1.007947	0.0000000000000000	A    	0.2572581535063279	0.06531785996356952
mom_tetramer.pdb_130	     1	1.007947	0.0000000000000000	A    	0.2572581535063279	0.06531785996356952
mom_tetramer.pdb_131	     1	1.007947	0.0000000000000000	A    	0.2572581535063279	0.06531785996356952
mom_tetramer.pdb_132	     6	12.01078	0.0000000000000000	A    	0.337953176162662	0.4553891161106184
mom_tetramer.pdb_133	     8	15.99943	0.0000000000000000	A    	0.3025106490435313	0.7048581468486769
mom_tetramer.pdb_134	     6	12.01078	0.0000000000000000	A    	0.3480646886945065	0.3635030558377792
mom_tetramer.pdb_135	     6	12.01078	0.0000000000000000	A    	0.3480646886945065	0.3635030558377792
mom_tetramer.pdb_136	     6	12.01078	0.0000000000000000	A    	0.3480646886945065	0.3635030558377792
mom_tetramer.pdb_137	     6	12.01078	0.0000000000000000	A    	0.3480646886945065	0.3635030558377792
mom_tetramer.pdb_138	     6	12.01078	0.0000000000000000	A    	0.3480646886945065	0.3635030558377792
mom_tetramer.pdb_139	     6	12.01078	0.0000000000000000	A    	0.3480646886945065	0.3635030558377792
mom_tetramer.pdb_140	     6	12.01078	0.0000000000000000	A    	0.3480646886945065	0.3635030558377792
mom_tetramer.pdb_141	     6	12.01078	0.0000000000000000	A    	0.3480646886945065	0.3635030558377792
mom_tetramer.pdb_142	     8	15.99943	0.0000000000000000	A    	0.3039812205065809	0.8795023257036865
mom_tetramer.pdb_143	     6	12.01078	0.0000000000000000	A    	0.3480646886945065	0.3635030558377792
mom_tetramer.pdb_144	     6	12.01078	0.0000000000000000	A    	0.3480646886945065	0.3635030558377792
mom_tetramer.pdb_145	     6	12.01078	0.0000000000000000	A    	0.3480646886945065	0.3635030558377792
mom_tetramer.pdb_146	     6	12.01078	0.0000000000000000	A    	0.3480646886945065	0.3635030558377792
mom_tetramer.pdb_147	     6	12.01078	0.0000000000000000	A    	0.3480646886945065	0.3635030558377792
mom_tetramer.pdb_148	     6	12.01078	0.0000000000000000	A    	0.3480646886945065	0.3635030558377792
mom_tetramer.pdb_149	     6	12.01078	0.0000000000000000	A    	0.3480646886945065	0.3635030558377792
mom_tetramer.pdb_150	     6	12.01078	0.0000000000000000	A    	0.337953176162662	0.4553891161106184
mom_tetramer.pdb_151	     6	12.01078	0.0000000000000000	A    	0.337953176162662	0.4553891161106184
mom_tetramer.pdb_152	     7	14.00672	0.0000000000000000	A    	0.3206876023663901	0.7016212989374017
mom_tetramer.pdb_153	     6	12.01078	0.0000000000000000	A    	0.3480646886945065	0.3635030558377792
mom_tetramer.pdb_154	     6	12.01078	0.0000000000000000	A    	0.3480646886945065	0.3635030558377792
mom_tetramer.pdb_155	     6	12.01078	0.0000000000000000	A    	0.3480646886945065	0.3635030558377792
mom_tetramer.pdb_156	     6	12.01078	0.0000000000000000	A    	0.3480646886945065	0.3635030558377792
mom_tetramer.pdb_157	     1	1.007947	0.0000000000000000	A    	0.2583225710839196	0.068656285380106
mom_tetramer.pdb_158	     1	1.007947	0.0000000000000000	A    	0.2583225710839196	0.068656285380106
mom_tetramer.pdb_159	     1	1.007947	0.0000000000000000	A    	0.2583225710839196	0.068656285380106
mom_tetramer.pdb_160	     1	1.007947	0.0000000000000000	A    	0.2572581535063279	0.06531785996356952
mom_tetramer.pdb_161	     1	1.007947	0.0000000000000000	A    	0.2572581535063279	0.06531785996356952
mom_tetramer.pdb_162	     1	1.007947	0.0000000000000000	A    	0.2572581535063279	0.06531785996356952
mom_tetramer.pdb_163	     1	1.007947	0.0000000000000000	A    	0.2572581535063279	0.06531785996356952
mom_tetramer.pdb_164	     1	1.007947	0.0000000000000000	A    	0.2572581535063279	0.06531785996356952
mom_tetramer.pdb_165	     1	1.007947	0.0000000000000000	A    	0.2572581535063279	0.06531785996356952
mom_tetramer.pdb_166	     1	1.007947	0.0000000000000000	A    	0.2572581535063279	0.06531785996356952
mom_tetramer.pdb_167	     1	1.007947	0.0000000000000000	A    	0.2583225710839196	0.068656285380106
mom_tetramer.pdb_168	     1	1.007947	0.0000000000000000	A    	0.2644543413268124	0.06602135607582665
mom_tetramer.pdb_169	     1	1.007947	0.0000000000000000	A    	0.2644543413268124	0.06602135607582665
mom_tetramer.pdb_170	     1	1.007947	0.0000000000000000	A    	0.2644543413268124	0.06602135607582665
mom_tetramer.pdb_171	     1	1.007947	0.0000000000000000	A    	0.1103427677297317	0.05895596890015097
mom_tetramer.pdb_172	     1	1.007947	0.0000000000000000	A    	0.2572581535063279	0.06531785996356952
mom_tetramer.pdb_173	     1	1.007947	0.0000000000000000	A    	0.2572581535063279	0.06531785996356952
mom_tetramer.pdb_174	     1	1.007947	0.0000000000000000	A    	0.2572581535063279	0.06531785996356952
mom_tetramer.pdb_175	     1	1.007947	0.0000000000000000	A    	0.2572581535063279	0.06531785996356952
mom_tetramer.pdb_176	     6	12.01078	0.0000000000000000	A    	0.337953176162662	0.4553891161106184
mom_tetramer.pdb_177	     8	15.99943	0.0000000000000000	A    	0.3025106490435313	0.7048581468486769
mom_tetramer.pdb_178	     1	1.007947	0.0000000000000000	A    	0.2583225710839196	0.068656285380106
mom_tetramer.pdb_179	     1	1.007947	0.0000000000000000	A    	0.2583225710839196	0.068656285380106
mom_tetramer.pdb_180	     1	1.007947	0.0000000000000000	A    	0.2583225710839196	0.068656285380106
mom_tetramer.pdb_181	     6	12.01078	0.0000000000000000	A    	0.337953176162662	0.4553891161106184
mom_tetramer.pdb_182	     6	12.01078	0.0000000000000000	A    	0.337953176162662	0.4553891161106184
mom_tetramer.pdb_183	     6	12.01078	0.0000000000000000	A    	0.337953176162662	0.4553891161106184
mom_tetramer.pdb_184	     6	12.01078	0.0000000000000000	A    	0.337953176162662	0.4553891161106184
mom_tetramer.pdb_185	     8	15.99943	0.0000000000000000	A    	0.3025106490435313	0.7048581468486769
mom_tetramer.pdb_186	     6	12.01078	0.0000000000000000	A    	0.3480646886945065	0.3635030558377792
mom_tetramer.pdb_187	     8	15.99943	0.0000000000000000	A    	0.3039812205065809	0.8795023257036865
mom_tetramer.pdb_188	     1	1.007947	0.0000000000000000	A    	0.2644543413268124	0.06602135607582665
mom_tetramer.pdb_189	     1	1.007947	0.0000000000000000	A    	0.2644543413268124	0.06602135607582665
mom_tetramer.pdb_190	     1	1.007947	0.0000000000000000	A    	0.2644543413268124	0.06602135607582665
mom_tetramer.pdb_191	     1	1.007947	0.0000000000000000	A    	0.2644543413268124	0.06602135607582665
mom_tetramer.pdb_192	     1	1.007947	0.0000000000000000	A    	0.2644543413268124	0.06602135607582665
mom_tetramer.pdb_193	     1	1.007947	0.0000000000000000	A    	0.2644543413268124	0.06602135607582665
mom_tetramer.pdb_194	     1	1.007947	0.0000000000000000	A    	0.2644543413268124	0.06602135607582665
mom_tetramer.pdb_195	     1	1.007947	0.0000000000000000	A    	0.2644543413268124	0.06602135607582665
mom_tetramer.pdb_196	     1	1.007947	0.0000000000000000	A    	0.2644543413268124	0.06602135607582665

[ moleculetype ]
mom_tetramer.pdb	         3

[ atoms ]
;index, atom type, resnum, resname, name, cgnr, charge, mass
     1 mom_tetramer.pdb_0       1 MOP      C1         1      0.107660002980     12.010780000000
     2 mom_tetramer.pdb_1       1 MOP      O2         1     -0.318459987666     15.999430000000
     3 mom_tetramer.pdb_2       1 MOP      C3         1      0.122369997177     12.010780000000
     4 mom_tetramer.pdb_3       1 MOP      C4         1     -0.202250003841     12.010780000000
     5 mom_tetramer.pdb_4       1 MOP      C5         1     -0.083709999945     12.010780000000
     6 mom_tetramer.pdb_5       1 MOP      C6         1     -0.071359999504     12.010780000000
     7 mom_tetramer.pdb_6       1 MOP      C7         1     -0.045719999846     12.010780000000
     8 mom_tetramer.pdb_7       1 MOP      C8         1     -0.058619998421     12.010780000000
     9 mom_tetramer.pdb_8       1 MOP      C9         1     -0.128710001733     12.010780000000
    10 mom_tetramer.pdb_9       1 MOP      C10        1      0.646170020077     12.010780000000
    11 mom_tetramer.pdb_10       1 MOP      O11        1     -0.534770011928     15.999430000000
    12 mom_tetramer.pdb_11       1 MOP      C12        1     -0.074120000031     12.010780000000
    13 mom_tetramer.pdb_12       1 MOP      C13        1     -0.147070005562     12.010780000000
    14 mom_tetramer.pdb_13       1 MOP      C14        1     -0.086879998472     12.010780000000
    15 mom_tetramer.pdb_14       1 MOP      C15        1      0.008360000301     12.010780000000
    16 mom_tetramer.pdb_15       1 MOP      C16        1     -0.045230001237     12.010780000000
    17 mom_tetramer.pdb_16       1 MOP      C17        1     -0.095059998359     12.010780000000
    18 mom_tetramer.pdb_17       1 MOP      C18        1     -0.091229997601     12.010780000000
    19 mom_tetramer.pdb_18       1 MOP      C19        1      0.150519996855     12.010780000000
    20 mom_tetramer.pdb_19       1 MOP      C20        1     -0.115149997201     12.010780000000
    21 mom_tetramer.pdb_20       1 MOP      N21        1     -0.562699973609     14.006720000000
    22 mom_tetramer.pdb_21       1 MOP      C22        1     -0.115620002177     12.010780000000
    23 mom_tetramer.pdb_22       1 MOP      C23        1     -0.136419996645     12.010780000000
    24 mom_tetramer.pdb_23       1 MOP      C24        1     -0.110370002713     12.010780000000
    25 mom_tetramer.pdb_24       1 MOP      C25        1     -0.144879996803     12.010780000000
    26 mom_tetramer.pdb_25       1 MOP      H26        1      0.044980000679      1.007947000000
    27 mom_tetramer.pdb_26       1 MOP      H27        1      0.044980000679      1.007947000000
    28 mom_tetramer.pdb_27       1 MOP      H28        1      0.044980000679      1.007947000000
    29 mom_tetramer.pdb_28       1 MOP      H29        1      0.141790002558      1.007947000000
    30 mom_tetramer.pdb_29       1 MOP      H30        1      0.140540003751      1.007947000000
    31 mom_tetramer.pdb_30       1 MOP      H31        1      0.159380003784      1.007947000000
    32 mom_tetramer.pdb_31       1 MOP      H32        1      0.150110006306      1.007947000000
    33 mom_tetramer.pdb_32       1 MOP      H33        1      0.137940004442      1.007947000000
    34 mom_tetramer.pdb_33       1 MOP      H34        1      0.139530003045      1.007947000000
    35 mom_tetramer.pdb_34       1 MOP      H35        1      0.143580004547      1.007947000000
    36 mom_tetramer.pdb_35       1 MOP      H36        1      0.083939999316      1.007947000000
    37 mom_tetramer.pdb_36       1 MOP      H37        1      0.047830000494      1.007947000000
    38 mom_tetramer.pdb_37       1 MOP      H38        1      0.047830000494      1.007947000000
    39 mom_tetramer.pdb_38       1 MOP      H39        1      0.047830000494      1.007947000000
    40 mom_tetramer.pdb_39       1 MOP      H40        1      0.314900010798      1.007947000000
    41 mom_tetramer.pdb_40       1 MOP      H41        1      0.136429995272      1.007947000000
    42 mom_tetramer.pdb_41       1 MOP      H42        1      0.127220004771      1.007947000000
    43 mom_tetramer.pdb_42       1 MOP      H43        1      0.134529992912      1.007947000000
    44 mom_tetramer.pdb_43       1 MOP      H44        1      0.157879993294      1.007947000000
    45 mom_tetramer.pdb_44       2 MOP      C45        1      0.112039998148     12.010780000000
    46 mom_tetramer.pdb_45       2 MOP      O46        1     -0.325590014484     15.999430000000
    47 mom_tetramer.pdb_46       2 MOP      C47        1      0.126670002911     12.010780000000
    48 mom_tetramer.pdb_47       2 MOP      C48        1     -0.204359993365     12.010780000000
    49 mom_tetramer.pdb_48       2 MOP      C49        1     -0.085060000446     12.010780000000
    50 mom_tetramer.pdb_49       2 MOP      C50        1     -0.065470002618     12.010780000000
    51 mom_tetramer.pdb_50       2 MOP      C51        1     -0.047899998750     12.010780000000
    52 mom_tetramer.pdb_51       2 MOP      C52        1     -0.081490002599     12.010780000000
    53 mom_tetramer.pdb_52       2 MOP      C53        1     -0.138879999544     12.010780000000
    54 mom_tetramer.pdb_53       2 MOP      C54        1      0.676530003522     12.010780000000
    55 mom_tetramer.pdb_54       2 MOP      O55        1     -0.610400021102     15.999430000000
    56 mom_tetramer.pdb_55       2 MOP      C56        1     -0.074139997389     12.010780000000
    57 mom_tetramer.pdb_56       2 MOP      C57        1     -0.149259999420     12.010780000000
    58 mom_tetramer.pdb_57       2 MOP      C58        1     -0.108369998660     12.010780000000
    59 mom_tetramer.pdb_58       2 MOP      C59        1      0.009999999750     12.010780000000
    60 mom_tetramer.pdb_59       2 MOP      C60        1     -0.047929998513     12.010780000000
    61 mom_tetramer.pdb_60       2 MOP      C61        1     -0.096819996860     12.010780000000
    62 mom_tetramer.pdb_61       2 MOP      C62        1     -0.106919996466     12.010780000000
    63 mom_tetramer.pdb_62       2 MOP      C63        1      0.155330002282     12.010780000000
    64 mom_tetramer.pdb_63       2 MOP      C64        1     -0.117969997253     12.010780000000
    65 mom_tetramer.pdb_64       2 MOP      N65        1     -0.560769975211     14.006720000000
    66 mom_tetramer.pdb_65       2 MOP      C66        1     -0.109159998622     12.010780000000
    67 mom_tetramer.pdb_66       2 MOP      C67        1     -0.142499998238     12.010780000000
    68 mom_tetramer.pdb_67       2 MOP      C68        1     -0.116499997701     12.010780000000
    69 mom_tetramer.pdb_68       2 MOP      C69        1     -0.144569993045     12.010780000000
    70 mom_tetramer.pdb_69       2 MOP      H70        1      0.045740000878      1.007947000000
    71 mom_tetramer.pdb_70       2 MOP      H71        1      0.045740000878      1.007947000000
    72 mom_tetramer.pdb_71       2 MOP      H72        1      0.045740000878      1.007947000000
    73 mom_tetramer.pdb_72       2 MOP      H73        1      0.139359995697      1.007947000000
    74 mom_tetramer.pdb_73       2 MOP      H74        1      0.135800003979      1.007947000000
    75 mom_tetramer.pdb_74       2 MOP      H75        1      0.151419997189      1.007947000000
    76 mom_tetramer.pdb_75       2 MOP      H76        1      0.158940002296      1.007947000000
    77 mom_tetramer.pdb_76       2 MOP      H77        1      0.132770001862      1.007947000000
    78 mom_tetramer.pdb_77       2 MOP      H78        1      0.136219993208      1.007947000000
    79 mom_tetramer.pdb_78       2 MOP      H79        1      0.137630000684      1.007947000000
    80 mom_tetramer.pdb_79       2 MOP      H80        1      0.078970000122      1.007947000000
    81 mom_tetramer.pdb_80       2 MOP      H81        1      0.052850000534      1.007947000000
    82 mom_tetramer.pdb_81       2 MOP      H82        1      0.052850000534      1.007947000000
    83 mom_tetramer.pdb_82       2 MOP      H83        1      0.052850000534      1.007947000000
    84 mom_tetramer.pdb_83       2 MOP      H84        1      0.310739994023      1.007947000000
    85 mom_tetramer.pdb_84       2 MOP      H85        1      0.142049998019      1.007947000000
    86 mom_tetramer.pdb_85       2 MOP      H86        1      0.130349993680      1.007947000000
    87 mom_tetramer.pdb_86       2 MOP      H87        1      0.138659998749      1.007947000000
    88 mom_tetramer.pdb_87       2 MOP      H88        1      0.156340002988      1.007947000000
    89 mom_tetramer.pdb_88       3 MOP      C89        1      0.112139999840     12.010780000000
    90 mom_tetramer.pdb_89       3 MOP      O90        1     -0.324950009610     15.999430000000
    91 mom_tetramer.pdb_90       3 MOP      C91        1      0.124739997063     12.010780000000
    92 mom_tetramer.pdb_91       3 MOP      C92        1     -0.204290002610     12.010780000000
    93 mom_tetramer.pdb_92       3 MOP      C93        1     -0.087940000024     12.010780000000
    94 mom_tetramer.pdb_93       3 MOP      C94        1     -0.064470000591     12.010780000000
    95 mom_tetramer.pdb_94       3 MOP      C95        1     -0.050000000771     12.010780000000
    96 mom_tetramer.pdb_95       3 MOP      C96        1     -0.087360002126     12.010780000000
    97 mom_tetramer.pdb_96       3 MOP      C97        1     -0.140369996454     12.010780000000
    98 mom_tetramer.pdb_97       3 MOP      C98        1      0.688899993870     12.010780000000
    99 mom_tetramer.pdb_98       3 MOP      O99        1     -0.623340010669     15.999430000000
   100 mom_tetramer.pdb_99       3 MOP      C100       1     -0.073190003660     12.010780000000
   101 mom_tetramer.pdb_100       3 MOP      C101       1     -0.138180002596     12.010780000000
   102 mom_tetramer.pdb_101       3 MOP      C102       1     -0.095339998629     12.010780000000
   103 mom_tetramer.pdb_102       3 MOP      C103       1      0.007209999926     12.010780000000
   104 mom_tetramer.pdb_103       3 MOP      C104       1     -0.044360000666     12.010780000000
   105 mom_tetramer.pdb_104       3 MOP      C105       1     -0.091760002103     12.010780000000
   106 mom_tetramer.pdb_105       3 MOP      C106       1     -0.110440000918     12.010780000000
   107 mom_tetramer.pdb_106       3 MOP      C107       1      0.146239995930     12.010780000000
   108 mom_tetramer.pdb_107       3 MOP      C108       1     -0.101980000760     12.010780000000
   109 mom_tetramer.pdb_108       3 MOP      N109       1     -0.565649986293     14.006720000000
   110 mom_tetramer.pdb_109       3 MOP      C110       1     -0.117150001254     12.010780000000
   111 mom_tetramer.pdb_110       3 MOP      C111       1     -0.131219998028     12.010780000000
   112 mom_tetramer.pdb_111       3 MOP      C112       1     -0.107359997954     12.010780000000
   113 mom_tetramer.pdb_112       3 MOP      C113       1     -0.143959999110     12.010780000000
   114 mom_tetramer.pdb_113       3 MOP      H114       1      0.045159999255      1.007947000000
   115 mom_tetramer.pdb_114       3 MOP      H115       1      0.045159999255      1.007947000000
   116 mom_tetramer.pdb_115       3 MOP      H116       1      0.045159999255      1.007947000000
   117 mom_tetramer.pdb_116       3 MOP      H117       1      0.138850003455      1.007947000000
   118 mom_tetramer.pdb_117       3 MOP      H118       1      0.135150000427      1.007947000000
   119 mom_tetramer.pdb_118       3 MOP      H119       1      0.142649993274      1.007947000000
   120 mom_tetramer.pdb_119       3 MOP      H120       1      0.157419994447      1.007947000000
   121 mom_tetramer.pdb_120       3 MOP      H121       1      0.142930000994      1.007947000000
   122 mom_tetramer.pdb_121       3 MOP      H122       1      0.138329997633      1.007947000000
   123 mom_tetramer.pdb_122       3 MOP      H123       1      0.143299996827      1.007947000000
   124 mom_tetramer.pdb_123       3 MOP      H124       1      0.088079996381      1.007947000000
   125 mom_tetramer.pdb_124       3 MOP      H125       1      0.043949998889      1.007947000000
   126 mom_tetramer.pdb_125       3 MOP      H126       1      0.043949998889      1.007947000000
   127 mom_tetramer.pdb_126       3 MOP      H127       1      0.043949998889      1.007947000000
   128 mom_tetramer.pdb_127       3 MOP      H128       1      0.305379986737      1.007947000000
   129 mom_tetramer.pdb_128       3 MOP      H129       1      0.127069994781      1.007947000000
   130 mom_tetramer.pdb_129       3 MOP      H130       1      0.132740005825      1.007947000000
   131 mom_tetramer.pdb_130       3 MOP      H131       1      0.136509999607      1.007947000000
   132 mom_tetramer.pdb_131       3 MOP      H132       1      0.156279996011      1.007947000000
   133 mom_tetramer.pdb_132       4 MOP      C133       1      0.113629996751     12.010780000000
   134 mom_tetramer.pdb_133       4 MOP      O134       1     -0.325659990337     15.999430000000
   135 mom_tetramer.pdb_134       4 MOP      C135       1      0.123180001948     12.010780000000
   136 mom_tetramer.pdb_135       4 MOP      C136       1     -0.152400001910     12.010780000000
   137 mom_tetramer.pdb_136       4 MOP      C137       1     -0.075209997620     12.010780000000
   138 mom_tetramer.pdb_137       4 MOP      C138       1     -0.054650001254     12.010780000000
   139 mom_tetramer.pdb_138       4 MOP      C139       1     -0.042640000608     12.010780000000
   140 mom_tetramer.pdb_139       4 MOP      C140       1     -0.059960000243     12.010780000000
   141 mom_tetramer.pdb_140       4 MOP      C141       1     -0.149529993560     12.010780000000
   142 mom_tetramer.pdb_141       4 MOP      C142       1      0.678919970963     12.010780000000
   143 mom_tetramer.pdb_142       4 MOP      O143       1     -0.601419985320     15.999430000000
   144 mom_tetramer.pdb_143       4 MOP      C144       1     -0.104469999697     12.010780000000
   145 mom_tetramer.pdb_144       4 MOP      C145       1     -0.146009996559     12.010780000000
   146 mom_tetramer.pdb_145       4 MOP      C146       1     -0.095310002591     12.010780000000
   147 mom_tetramer.pdb_146       4 MOP      C147       1      0.004730000135     12.010780000000
   148 mom_tetramer.pdb_147       4 MOP      C148       1     -0.039909999844     12.010780000000
   149 mom_tetramer.pdb_148       4 MOP      C149       1     -0.105850003686     12.010780000000
   150 mom_tetramer.pdb_149       4 MOP      C150       1     -0.102300003197     12.010780000000
   151 mom_tetramer.pdb_150       4 MOP      C151       1      0.165130004261     12.010780000000
   152 mom_tetramer.pdb_151       4 MOP      C152       1     -0.115879997637     12.010780000000
   153 mom_tetramer.pdb_152       4 MOP      N153       1     -0.560360014465     14.006720000000
   154 mom_tetramer.pdb_153       4 MOP      C154       1     -0.109269998994     12.010780000000
   155 mom_tetramer.pdb_154       4 MOP      C155       1     -0.132760003235     12.010780000000
   156 mom_tetramer.pdb_155       4 MOP      C156       1     -0.110420003559     12.010780000000
   157 mom_tetramer.pdb_156       4 MOP      C157       1     -0.199070006635     12.010780000000
   158 mom_tetramer.pdb_157       4 MOP      H158       1      0.043829999838      1.007947000000
   159 mom_tetramer.pdb_158       4 MOP      H159       1      0.043829999838      1.007947000000
   160 mom_tetramer.pdb_159       4 MOP      H160       1      0.043829999838      1.007947000000
   161 mom_tetramer.pdb_160       4 MOP      H161       1      0.150659993265      1.007947000000
   162 mom_tetramer.pdb_161       4 MOP      H162       1      0.142039999340      1.007947000000
   163 mom_tetramer.pdb_162       4 MOP      H163       1      0.183579996202      1.007947000000
   164 mom_tetramer.pdb_163       4 MOP      H164       1      0.132310003016      1.007947000000
   165 mom_tetramer.pdb_164       4 MOP      H165       1      0.133780002568      1.007947000000
   166 mom_tetramer.pdb_165       4 MOP      H166       1      0.136869996760      1.007947000000
   167 mom_tetramer.pdb_166       4 MOP      H167       1      0.141839995954      1.007947000000
   168 mom_tetramer.pdb_167       4 MOP      H168       1      0.082060001765      1.007947000000
   169 mom_tetramer.pdb_168       4 MOP      H169       1      0.046560000602      1.007947000000
   170 mom_tetramer.pdb_169       4 MOP      H170       1      0.046560000602      1.007947000000
   171 mom_tetramer.pdb_170       4 MOP      H171       1      0.046560000602      1.007947000000
   172 mom_tetramer.pdb_171       4 MOP      H172       1      0.343190014336      1.007947000000
   173 mom_tetramer.pdb_172       4 MOP      H173       1      0.137920007084      1.007947000000
   174 mom_tetramer.pdb_173       4 MOP      H174       1      0.133589997862      1.007947000000
   175 mom_tetramer.pdb_174       4 MOP      H175       1      0.136169999812      1.007947000000
   176 mom_tetramer.pdb_175       4 MOP      H176       1      0.141470000122      1.007947000000
   177 mom_tetramer.pdb_176       5 CAP      C177       1      0.126440003488     12.010780000000
   178 mom_tetramer.pdb_177       5 CAP      O178       1     -0.439350008991     15.999430000000
   179 mom_tetramer.pdb_178       5 CAP      H179       1      0.050689998988      1.007947000000
   180 mom_tetramer.pdb_179       5 CAP      H180       1      0.050689998988      1.007947000000
   181 mom_tetramer.pdb_180       5 CAP      H181       1      0.050689998988      1.007947000000
   182 mom_tetramer.pdb_181       6 CAP      C182       1     -0.113109998431     12.010780000000
   183 mom_tetramer.pdb_182       6 CAP      C183       1      0.186539992664     12.010780000000
   184 mom_tetramer.pdb_183       6 CAP      C184       1     -0.113109998431     12.010780000000
   185 mom_tetramer.pdb_184       6 CAP      C185       1     -0.113109998431     12.010780000000
   186 mom_tetramer.pdb_185       6 CAP      O186       1     -0.437700003412     15.999430000000
   187 mom_tetramer.pdb_186       6 CAP      C187       1      0.748950004552     12.010780000000
   188 mom_tetramer.pdb_187       6 CAP      O188       1     -0.614509999778     15.999430000000
   189 mom_tetramer.pdb_188       6 CAP      H189       1      0.050590001021      1.007947000000
   190 mom_tetramer.pdb_189       6 CAP      H190       1      0.050590001021      1.007947000000
   191 mom_tetramer.pdb_190       6 CAP      H191       1      0.050590001021      1.007947000000
   192 mom_tetramer.pdb_191       6 CAP      H192       1      0.050590001021      1.007947000000
   193 mom_tetramer.pdb_192       6 CAP      H193       1      0.050590001021      1.007947000000
   194 mom_tetramer.pdb_193       6 CAP      H194       1      0.050590001021      1.007947000000
   195 mom_tetramer.pdb_194       6 CAP      H195       1      0.050590001021      1.007947000000
   196 mom_tetramer.pdb_195       6 CAP      H196       1      0.050590001021      1.007947000000
   197 mom_tetramer.pdb_196       6 CAP      H197       1      0.050590001021      1.007947000000

[ pairs ]
;ai    aj   funct
    95	   113	     1
   138	   145	     1
     8	    15	     1
    51	    56	     1
    17	    25	     1
   152	   172	     1
    90	   103	     1
   139	   144	     1
    73	    74	     1
    24	    25	     1
   133	   136	     1
   144	   166	     1
   103	   123	     1
    10	   179	     1
    94	    97	     1
    65	    96	     1
    90	   132	     1
   110	   131	     1
   124	   126	     1
    22	    35	     1
   186	   191	     1
    52	    55	     1
    22	    36	     1
    60	    88	     1
     3	    26	     1
   140	   166	     1
    62	    68	     1
    48	    59	     1
    63	    67	     1
    94	   112	     1
   135	   160	     1
    50	    61	     1
   117	   118	     1
   135	   159	     1
    36	    37	     1
    69	    73	     1
    93	   104	     1
    51	    60	     1
    62	    98	     1
    56	    78	     1
    95	   118	     1
    92	   132	     1
     7	    30	     1
    59	    62	     1
    49	    58	     1
   148	   174	     1
     6	     9	     1
    62	    83	     1
    49	    60	     1
     2	    29	     1
    97	   121	     1
   168	   170	     1
   104	   107	     1
    47	    50	     1
    12	   178	     1
    19	    53	     1
    21	    38	     1
    14	    31	     1
    65	   100	     1
    14	    32	     1
    18	    37	     1
   105	   111	     1
    65	    66	     1
   109	   127	     1
    33	    34	     1
    11	   177	     1
   148	   154	     1
   105	   109	     1
   174	   175	     1
    96	    99	     1
   186	   197	     1
    53	    77	     1
   186	   196	     1
    80	    98	     1
     3	    16	     1
   138	   176	     1
    96	   103	     1
    41	    42	     1
     6	    44	     1
    80	    83	     1
    48	    51	     1
    80	    82	     1
    16	    44	     1
    47	    74	     1
   154	   167	     1
    56	    75	     1
    17	    36	     1
   124	   128	     1
    17	    43	     1
    63	    85	     1
    98	   119	     1
    90	    93	     1
   107	   123	     1
   168	   169	     1
   142	   164	     1
    49	    52	     1
     8	    11	     1
   124	   127	     1
    48	    88	     1
    52	    76	     1
    66	    80	     1
    66	    79	     1
   139	   148	     1
   182	   194	     1
   156	   173	     1
   141	   146	     1
    61	    67	     1
   137	   148	     1
   134	   147	     1
   182	   193	     1
   106	   126	     1
   150	   170	     1
   184	   191	     1
   100	   122	     1
    59	    67	     1
   109	   125	     1
    90	   117	     1
   107	   143	     1
    92	    95	     1
    10	   181	     1
   184	   190	     1
     5	    16	     1
    91	   115	     1
    10	   180	     1
     5	    25	     1
   128	   143	     1
   137	   157	     1
   103	   111	     1
    65	    82	     1
    94	   122	     1
   185	   187	     1
   134	   161	     1
   104	   130	     1
    15	    35	     1
    95	   121	     1
   130	   131	     1
     9	    14	     1
     6	    29	     1
   156	   157	     1
   151	   155	     1
    46	    88	     1
   137	   146	     1
     6	    13	     1
     8	   178	     1
   124	   125	     1
   156	   167	     1
   104	   110	     1
   150	   169	     1
   120	   121	     1
    18	    39	     1
   172	   188	     1
   184	   197	     1
    61	    87	     1
    19	    41	     1
   186	   192	     1
   184	   196	     1
   135	   148	     1
   147	   162	     1
    22	    43	     1
   184	   195	     1
   107	   141	     1
    18	    24	     1
    94	   101	     1
     3	    27	     1
    52	    57	     1
   165	   166	     1
    64	    84	     1
     3	    28	     1
   134	   176	     1
   186	   190	     1
   147	   167	     1
   140	   164	     1
    62	    86	     1
   136	   147	     1
   135	   138	     1
    68	    85	     1
   138	   156	     1
    91	   118	     1
    95	   100	     1
    20	    22	     1
   128	   141	     1
    92	   103	     1
     3	     6	     1
    91	   116	     1
   185	   194	     1
   135	   158	     1
    20	    40	     1
     5	     8	     1
   138	   161	     1
   106	   128	     1
   134	   137	     1
   185	   193	     1
   105	   131	     1
    61	    64	     1
    95	   104	     1
     9	   177	     1
    93	   102	     1
   138	   166	     1
    50	    57	     1
   135	   162	     1
   153	   170	     1
     8	    32	     1
    58	    76	     1
    17	    41	     1
    36	    40	     1
     7	    33	     1
    62	    82	     1
    62	    81	     1
   106	   127	     1
   149	   173	     1
    63	    79	     1
   106	   112	     1
    89	    92	     1
   168	   172	     1
    24	    41	     1
   142	   145	     1
     7	    10	     1
    19	    55	     1
    52	    78	     1
   133	   157	     1
   107	   111	     1
    50	    68	     1
   109	   110	     1
   153	   154	     1
   186	   195	     1
    10	    13	     1
   186	   194	     1
    50	    73	     1
   149	   153	     1
    19	    23	     1
   149	   152	     1
    64	    66	     1
    77	    78	     1
    50	    78	     1
   103	   106	     1
    80	    81	     1
   107	   129	     1
   110	   123	     1
    76	    77	     1
   149	   157	     1
    54	    76	     1
   173	   174	     1
     6	    31	     1
    60	    66	     1
    47	    72	     1
    53	    58	     1
   136	   176	     1
    95	    98	     1
   153	   169	     1
   102	   103	     1
   146	   164	     1
   149	   168	     1
    84	    99	     1
   142	   163	     1
   110	   124	     1
     8	    13	     1
    17	    23	     1
   106	   142	     1
   103	   131	     1
    97	   102	     1
   106	   125	     1
     4	     7	     1
     7	    16	     1
     7	    25	     1
    21	    52	     1
    25	    29	     1
   164	   165	     1
     2	    15	     1
   150	   174	     1
    21	    37	     1
    18	    42	     1
   183	   188	     1
    91	    94	     1
   154	   175	     1
    40	    53	     1
   109	   140	     1
   153	   183	     1
   105	   108	     1
   184	   187	     1
   139	   157	     1
    20	    54	     1
    50	    75	     1
   112	   123	     1
   148	   176	     1
   151	   173	     1
   136	   139	     1
    42	    43	     1
    68	    69	     1
    40	    55	     1
   105	   124	     1
   139	   162	     1
   140	   143	     1
    65	    81	     1
   185	   189	     1
   129	   130	     1
    61	    80	     1
    36	    54	     1
    96	   120	     1
   140	   145	     1
   168	   187	     1
    64	    98	     1
     9	    33	     1
    15	    43	     1
    68	    79	     1
    36	    38	     1
   100	   119	     1
    15	    23	     1
    63	    99	     1
    17	    21	     1
     6	    24	     1
   121	   122	     1
     4	    15	     1
    12	    34	     1
     1	    25	     1
     2	    44	     1
   124	   142	     1
   109	   144	     1
    54	    57	     1
    32	    33	     1
    93	   113	     1
    16	    19	     1
    21	    56	     1
   147	   150	     1
   140	   147	     1
    10	    31	     1
   168	   171	     1
    10	    32	     1
     1	     4	     1
   144	   163	     1
    18	    54	     1
   147	   155	     1
   172	   186	     1
   143	   144	     1
    59	    87	     1
    18	    38	     1
   151	   167	     1
    61	    85	     1
   186	   189	     1
   138	   149	     1
   104	   132	     1
    98	   120	     1
     3	    30	     1
    14	    15	     1
    52	    59	     1
    91	   104	     1
    11	    12	     1
    91	   114	     1
    51	    77	     1
   152	   154	     1
    94	   105	     1
   106	   130	     1
   161	   162	     1
     4	    44	     1
   157	   161	     1
    94	   132	     1
    96	   122	     1
    58	    75	     1
    55	    56	     1
   103	   118	     1
    50	    53	     1
   138	   163	     1
    16	    22	     1
    17	    20	     1
    51	    54	     1
   150	   187	     1
   138	   141	     1
   151	   188	     1
    47	    60	     1
    60	    63	     1
   147	   175	     1
   108	   128	     1
   151	   186	     1
     7	    12	     1
   102	   119	     1
    21	    39	     1
   113	   117	     1
    51	    69	     1
   148	   151	     1
    18	    40	     1
   182	   192	     1
    19	    35	     1
   186	   193	     1
   146	   147	     1
   150	   171	     1
    49	    69	     1
    51	    74	     1
   105	   113	     1
   182	   187	     1
     5	    14	     1
    96	   101	     1
    45	    48	     1
   108	   110	     1
    89	   113	     1
    54	    75	     1
    46	    59	     1
    47	    71	     1
   149	   155	     1
   112	   113	     1
    47	    70	     1
    62	    84	     1
   146	   163	     1
    16	    42	     1
    84	    97	     1
   154	   168	     1
   105	   129	     1
   152	   187	     1
     8	    34	     1
    15	    18	     1
    45	    69	     1
   141	   165	     1
     6	    17	     1
    12	    31	     1
    46	    73	     1
   112	   129	     1
    24	    35	     1
    58	    59	     1
   150	   172	     1
   184	   189	     1
    61	    69	     1
    98	   101	     1
   182	   197	     1
    21	    22	     1
    80	    84	     1
    50	    88	     1
   182	   196	     1
     2	     5	     1
   182	   195	     1
    29	    30	     1
   108	   142	     1
   139	   142	     1
    60	    86	     1
   149	   175	     1
    59	    74	     1
    46	    49	     1
   137	   140	     1
    61	    65	     1
    99	   100	     1
   139	   165	     1
   109	   126	     1
    93	    96	     1
    59	    79	     1
   185	   191	     1
     6	    34	     1
    63	    97	     1
   185	   192	     1
    65	    83	     1
    94	   117	     1
    15	    30	     1
    85	    86	     1
   150	   156	     1
    86	    87	     1
    66	    87	     1
   102	   120	     1
   185	   190	     1
    36	    39	     1
   153	   171	     1
    94	   119	     1

[ bonds ]
;ai    aj   funct r k
     1      2      1      0.143632390591  189984.684332368197 
     1     26      1      0.109420646075  299423.062557625177 
     1     27      1      0.109420646075  299423.062557625177 
     1     28      1      0.109420646075  299423.062557625177 
     2      3      1      0.137202606628  266731.066406706930 
     3      4      1      0.140070606401  315369.603109081567 
     3     25      1      0.140070606401  315369.603109081567 
     4      5      1      0.140070606401  315369.603109081567 
     4     29      1      0.108603610657  323372.939138590940 
     5      6      1      0.140070606401  315369.603109081567 
     5     30      1      0.108603610657  323372.939138590940 
     6      7      1      0.146787322362  223784.907186336932 
     6     15      1      0.140070606401  315369.603109081567 
     7      8      1      0.140070606401  315369.603109081567 
     7     14      1      0.140070606401  315369.603109081567 
     8      9      1      0.140070606401  315369.603109081567 
     8     31      1      0.108603610657  323372.939138590940 
     9     10      1      0.146787322362  223784.907186336932 
     9     12      1      0.140070606401  315369.603109081567 
    10     11      1      0.122500229618  637673.816836400889 
    10    178      1      0.135606196339  243795.038367059984 
    12     13      1      0.140070606401  315369.603109081567 
    12     32      1      0.108603610657  323372.939138590940 
    13     14      1      0.140070606401  315369.603109081567 
    13     33      1      0.108603610657  323372.939138590940 
    14     34      1      0.108603610657  323372.939138590940 
    15     16      1      0.146787322362  223784.907186336932 
    15     25      1      0.140070606401  315369.603109081567 
    16     17      1      0.140070606401  315369.603109081567 
    16     24      1      0.140070606401  315369.603109081567 
    17     18      1      0.140070606401  315369.603109081567 
    17     35      1      0.108603610657  323372.939138590940 
    18     19      1      0.150959128588  200304.454300773097 
    18     22      1      0.140070606401  315369.603109081567 
    19     20      1      0.153362760384  180164.203623913403 
    19     21      1      0.146209979488  202028.005744964030 
    19     36      1      0.109420646075  299423.062557625177 
    20     37      1      0.109420646075  299423.062557625177 
    20     38      1      0.109420646075  299423.062557625177 
    20     39      1      0.109420646075  299423.062557625177 
    21     40      1      0.101860473038  402492.840307690029 
    21     54      1      0.138376574172  273614.770187574963 
    22     23      1      0.140070606401  315369.603109081567 
    22     41      1      0.108603610657  323372.939138590940 
    23     24      1      0.140070606401  315369.603109081567 
    23     42      1      0.108603610657  323372.939138590940 
    24     43      1      0.108603610657  323372.939138590940 
    25     44      1      0.108603610657  323372.939138590940 
    45     46      1      0.143632390591  189984.684332368197 
    45     70      1      0.109420646075  299423.062557625177 
    45     71      1      0.109420646075  299423.062557625177 
    45     72      1      0.109420646075  299423.062557625177 
    46     47      1      0.137202606628  266731.066406706930 
    47     48      1      0.140070606401  315369.603109081567 
    47     69      1      0.140070606401  315369.603109081567 
    48     49      1      0.140070606401  315369.603109081567 
    48     73      1      0.108603610657  323372.939138590940 
    49     50      1      0.140070606401  315369.603109081567 
    49     74      1      0.108603610657  323372.939138590940 
    50     51      1      0.146787322362  223784.907186336932 
    50     59      1      0.140070606401  315369.603109081567 
    51     52      1      0.140070606401  315369.603109081567 
    51     58      1      0.140070606401  315369.603109081567 
    52     53      1      0.140070606401  315369.603109081567 
    52     75      1      0.108603610657  323372.939138590940 
    53     54      1      0.146787322362  223784.907186336932 
    53     56      1      0.140070606401  315369.603109081567 
    54     55      1      0.122500229618  637673.816836400889 
    56     57      1      0.140070606401  315369.603109081567 
    56     76      1      0.108603610657  323372.939138590940 
    57     58      1      0.140070606401  315369.603109081567 
    57     77      1      0.108603610657  323372.939138590940 
    58     78      1      0.108603610657  323372.939138590940 
    59     60      1      0.146787322362  223784.907186336932 
    59     69      1      0.140070606401  315369.603109081567 
    60     61      1      0.140070606401  315369.603109081567 
    60     68      1      0.140070606401  315369.603109081567 
    61     62      1      0.140070606401  315369.603109081567 
    61     79      1      0.108603610657  323372.939138590940 
    62     63      1      0.150959128588  200304.454300773097 
    62     66      1      0.140070606401  315369.603109081567 
    63     64      1      0.153362760384  180164.203623913403 
    63     65      1      0.146209979488  202028.005744964030 
    63     80      1      0.109420646075  299423.062557625177 
    64     81      1      0.109420646075  299423.062557625177 
    64     82      1      0.109420646075  299423.062557625177 
    64     83      1      0.109420646075  299423.062557625177 
    65     84      1      0.101860473038  402492.840307690029 
    65     98      1      0.138376574172  273614.770187574963 
    66     67      1      0.140070606401  315369.603109081567 
    66     85      1      0.108603610657  323372.939138590940 
    67     68      1      0.140070606401  315369.603109081567 
    67     86      1      0.108603610657  323372.939138590940 
    68     87      1      0.108603610657  323372.939138590940 
    69     88      1      0.108603610657  323372.939138590940 
    89     90      1      0.143632390591  189984.684332368197 
    89    114      1      0.109420646075  299423.062557625177 
    89    115      1      0.109420646075  299423.062557625177 
    89    116      1      0.109420646075  299423.062557625177 
    90     91      1      0.137202606628  266731.066406706930 
    91     92      1      0.140070606401  315369.603109081567 
    91    113      1      0.140070606401  315369.603109081567 
    92     93      1      0.140070606401  315369.603109081567 
    92    117      1      0.108603610657  323372.939138590940 
    93     94      1      0.140070606401  315369.603109081567 
    93    118      1      0.108603610657  323372.939138590940 
    94     95      1      0.146787322362  223784.907186336932 
    94    103      1      0.140070606401  315369.603109081567 
    95     96      1      0.140070606401  315369.603109081567 
    95    102      1      0.140070606401  315369.603109081567 
    96     97      1      0.140070606401  315369.603109081567 
    96    119      1      0.108603610657  323372.939138590940 
    97     98      1      0.146787322362  223784.907186336932 
    97    100      1      0.140070606401  315369.603109081567 
    98     99      1      0.122500229618  637673.816836400889 
   100    101      1      0.140070606401  315369.603109081567 
   100    120      1      0.108603610657  323372.939138590940 
   101    102      1      0.140070606401  315369.603109081567 
   101    121      1      0.108603610657  323372.939138590940 
   102    122      1      0.108603610657  323372.939138590940 
   103    104      1      0.146787322362  223784.907186336932 
   103    113      1      0.140070606401  315369.603109081567 
   104    105      1      0.140070606401  315369.603109081567 
   104    112      1      0.140070606401  315369.603109081567 
   105    106      1      0.140070606401  315369.603109081567 
   105    123      1      0.108603610657  323372.939138590940 
   106    107      1      0.150959128588  200304.454300773097 
   106    110      1      0.140070606401  315369.603109081567 
   107    108      1      0.153362760384  180164.203623913403 
   107    109      1      0.146209979488  202028.005744964030 
   107    124      1      0.109420646075  299423.062557625177 
   108    125      1      0.109420646075  299423.062557625177 
   108    126      1      0.109420646075  299423.062557625177 
   108    127      1      0.109420646075  299423.062557625177 
   109    128      1      0.101860473038  402492.840307690029 
   109    142      1      0.138376574172  273614.770187574963 
   110    111      1      0.140070606401  315369.603109081567 
   110    129      1      0.108603610657  323372.939138590940 
   111    112      1      0.140070606401  315369.603109081567 
   111    130      1      0.108603610657  323372.939138590940 
   112    131      1      0.108603610657  323372.939138590940 
   113    132      1      0.108603610657  323372.939138590940 
   133    134      1      0.143632390591  189984.684332368197 
   133    158      1      0.109420646075  299423.062557625177 
   133    159      1      0.109420646075  299423.062557625177 
   133    160      1      0.109420646075  299423.062557625177 
   134    135      1      0.137202606628  266731.066406706930 
   135    136      1      0.140070606401  315369.603109081567 
   135    157      1      0.140070606401  315369.603109081567 
   136    137      1      0.140070606401  315369.603109081567 
   136    161      1      0.108603610657  323372.939138590940 
   137    138      1      0.140070606401  315369.603109081567 
   137    162      1      0.108603610657  323372.939138590940 
   138    139      1      0.146787322362  223784.907186336932 
   138    147      1      0.140070606401  315369.603109081567 
   139    140      1      0.140070606401  315369.603109081567 
   139    146      1      0.140070606401  315369.603109081567 
   140    141      1      0.140070606401  315369.603109081567 
   140    163      1      0.108603610657  323372.939138590940 
   141    142      1      0.146787322362  223784.907186336932 
   141    144      1      0.140070606401  315369.603109081567 
   142    143      1      0.122500229618  637673.816836400889 
   144    145      1      0.140070606401  315369.603109081567 
   144    164      1      0.108603610657  323372.939138590940 
   145    146      1      0.140070606401  315369.603109081567 
   145    165      1      0.108603610657  323372.939138590940 
   146    166      1      0.108603610657  323372.939138590940 
   147    148      1      0.146787322362  223784.907186336932 
   147    157      1      0.140070606401  315369.603109081567 
   148    149      1      0.140070606401  315369.603109081567 
   148    156      1      0.140070606401  315369.603109081567 
   149    150      1      0.140070606401  315369.603109081567 
   149    167      1      0.108603610657  323372.939138590940 
   150    151      1      0.150959128588  200304.454300773097 
   150    154      1      0.140070606401  315369.603109081567 
   151    152      1      0.153362760384  180164.203623913403 
   151    153      1      0.146209979488  202028.005744964030 
   151    168      1      0.109420646075  299423.062557625177 
   152    169      1      0.109420646075  299423.062557625177 
   152    170      1      0.109420646075  299423.062557625177 
   152    171      1      0.109420646075  299423.062557625177 
   153    172      1      0.101860473038  402492.840307690029 
   153    187      1      0.138376574172  273614.770187574963 
   154    155      1      0.140070606401  315369.603109081567 
   154    173      1      0.108603610657  323372.939138590940 
   155    156      1      0.140070606401  315369.603109081567 
   155    174      1      0.108603610657  323372.939138590940 
   156    175      1      0.108603610657  323372.939138590940 
   157    176      1      0.108603610657  323372.939138590940 
   177    178      1      0.143632390591  189984.684332368197 
   177    179      1      0.109420646075  299423.062557625177 
   177    180      1      0.109420646075  299423.062557625177 
   177    181      1      0.109420646075  299423.062557625177 
   182    183      1      0.153362760384  180164.203623913403 
   182    189      1      0.109420646075  299423.062557625177 
   182    190      1      0.109420646075  299423.062557625177 
   182    191      1      0.109420646075  299423.062557625177 
   183    184      1      0.153362760384  180164.203623913403 
   183    185      1      0.153362760384  180164.203623913403 
   183    186      1      0.143632390591  189984.684332368197 
   184    192      1      0.109420646075  299423.062557625177 
   184    193      1      0.109420646075  299423.062557625177 
   184    194      1      0.109420646075  299423.062557625177 
   185    195      1      0.109420646075  299423.062557625177 
   185    196      1      0.109420646075  299423.062557625177 
   185    197      1      0.109420646075  299423.062557625177 
   186    187      1      0.135606196339  243795.038367059984 
   187    188      1      0.122500229618  637673.816836400889 

[ angles ]
;ai    aj   ak   funct theta  k
     1      2      3      1     112.873616114500    1003.288803783688 
     2      1     26      1     109.938052758400     558.616871667870 
     2      1     27      1     109.938052758400     558.616871667870 
     2      1     28      1     109.938052758400     558.616871667870 
     2      3      4      1     120.104999638600     707.494800457430 
     2      3     25      1     120.104999638600     707.494800457430 
     3      4      5      1     120.104999638600     707.494800457430 
     3      4     29      1     119.854485991700     275.494453586476 
     3     25     15      1     120.104999638600     707.494800457430 
     3     25     44      1     119.854485991700     275.494453586476 
     4      3     25      1     120.104999638600     707.494800457430 
     4      5      6      1     120.104999638600     707.494800457430 
     4      5     30      1     119.854485991700     275.494453586476 
     5      4     29      1     119.854485991700     275.494453586476 
     5      6      7      1     120.104999638600     707.494800457430 
     5      6     15      1     120.104999638600     707.494800457430 
     6      5     30      1     119.854485991700     275.494453586476 
     6      7      8      1     120.104999638600     707.494800457430 
     6      7     14      1     120.104999638600     707.494800457430 
     6     15     16      1     120.104999638600     707.494800457430 
     6     15     25      1     120.104999638600     707.494800457430 
     7      6     15      1     120.104999638600     707.494800457430 
     7      8      9      1     120.104999638600     707.494800457430 
     7      8     31      1     119.854485991700     275.494453586476 
     7     14     13      1     120.104999638600     707.494800457430 
     7     14     34      1     119.854485991700     275.494453586476 
     8      7     14      1     120.104999638600     707.494800457430 
     8      9     10      1     120.104999638600     707.494800457430 
     8      9     12      1     120.104999638600     707.494800457430 
     9      8     31      1     119.854485991700     275.494453586476 
     9     10     11      1     120.104999638600     707.494800457430 
     9     10    178      1     120.104999638600     707.494800457430 
     9     12     13      1     120.104999638600     707.494800457430 
     9     12     32      1     119.854485991700     275.494453586476 
    10      9     12      1     120.104999638600     707.494800457430 
    10    178    177      1     112.873616114500    1003.288803783688 
    11     10    178      1     123.605890003500     529.778359969850 
    12     13     14      1     120.104999638600     707.494800457430 
    12     13     33      1     119.854485991700     275.494453586476 
    13     12     32      1     119.854485991700     275.494453586476 
    13     14     34      1     119.854485991700     275.494453586476 
    14     13     33      1     119.854485991700     275.494453586476 
    15     16     17      1     120.104999638600     707.494800457430 
    15     16     24      1     120.104999638600     707.494800457430 
    15     25     44      1     119.854485991700     275.494453586476 
    16     15     25      1     120.104999638600     707.494800457430 
    16     17     18      1     120.104999638600     707.494800457430 
    16     17     35      1     119.854485991700     275.494453586476 
    16     24     23      1     120.104999638600     707.494800457430 
    16     24     43      1     119.854485991700     275.494453586476 
    17     16     24      1     120.104999638600     707.494800457430 
    17     18     19      1     120.104999638600     707.494800457430 
    17     18     22      1     120.104999638600     707.494800457430 
    18     17     35      1     119.854485991700     275.494453586476 
    18     19     20      1     109.938052758400     558.616871667870 
    18     19     21      1     109.938052758400     558.616871667870 
    18     19     36      1     109.938052758400     558.616871667870 
    18     22     23      1     120.104999638600     707.494800457430 
    18     22     41      1     119.854485991700     275.494453586476 
    19     18     22      1     120.104999638600     707.494800457430 
    19     20     37      1     109.938052758400     558.616871667870 
    19     20     38      1     109.938052758400     558.616871667870 
    19     20     39      1     109.938052758400     558.616871667870 
    19     21     40      1     118.063661129300     310.493309961378 
    19     21     54      1     121.770534386700     665.074567904266 
    20     19     21      1     109.938052758400     558.616871667870 
    20     19     36      1     109.938052758400     558.616871667870 
    21     19     36      1     109.938052758400     558.616871667870 
    21     54     53      1     120.104999638600     707.494800457430 
    21     54     55      1     120.104999638600     707.494800457430 
    22     23     24      1     120.104999638600     707.494800457430 
    22     23     42      1     119.854485991700     275.494453586476 
    23     22     41      1     119.854485991700     275.494453586476 
    23     24     43      1     119.854485991700     275.494453586476 
    24     23     42      1     119.854485991700     275.494453586476 
    26      1     27      1     108.354313526900     307.746905535118 
    26      1     28      1     108.354313526900     307.746905535118 
    27      1     28      1     108.354313526900     307.746905535118 
    37     20     38      1     108.354313526900     307.746905535118 
    37     20     39      1     108.354313526900     307.746905535118 
    38     20     39      1     108.354313526900     307.746905535118 
    40     21     54      1     118.063661129300     310.493309961378 
    45     46     47      1     112.873616114500    1003.288803783688 
    46     45     70      1     109.938052758400     558.616871667870 
    46     45     71      1     109.938052758400     558.616871667870 
    46     45     72      1     109.938052758400     558.616871667870 
    46     47     48      1     120.104999638600     707.494800457430 
    46     47     69      1     120.104999638600     707.494800457430 
    47     48     49      1     120.104999638600     707.494800457430 
    47     48     73      1     119.854485991700     275.494453586476 
    47     69     59      1     120.104999638600     707.494800457430 
    47     69     88      1     119.854485991700     275.494453586476 
    48     47     69      1     120.104999638600     707.494800457430 
    48     49     50      1     120.104999638600     707.494800457430 
    48     49     74      1     119.854485991700     275.494453586476 
    49     48     73      1     119.854485991700     275.494453586476 
    49     50     51      1     120.104999638600     707.494800457430 
    49     50     59      1     120.104999638600     707.494800457430 
    50     49     74      1     119.854485991700     275.494453586476 
    50     51     52      1     120.104999638600     707.494800457430 
    50     51     58      1     120.104999638600     707.494800457430 
    50     59     60      1     120.104999638600     707.494800457430 
    50     59     69      1     120.104999638600     707.494800457430 
    51     50     59      1     120.104999638600     707.494800457430 
    51     52     53      1     120.104999638600     707.494800457430 
    51     52     75      1     119.854485991700     275.494453586476 
    51     58     57      1     120.104999638600     707.494800457430 
    51     58     78      1     119.854485991700     275.494453586476 
    52     51     58      1     120.104999638600     707.494800457430 
    52     53     54      1     120.104999638600     707.494800457430 
    52     53     56      1     120.104999638600     707.494800457430 
    53     52     75      1     119.854485991700     275.494453586476 
    53     54     55      1     120.104999638600     707.494800457430 
    53     56     57      1     120.104999638600     707.494800457430 
    53     56     76      1     119.854485991700     275.494453586476 
    54     53     56      1     120.104999638600     707.494800457430 
    56     57     58      1     120.104999638600     707.494800457430 
    56     57     77      1     119.854485991700     275.494453586476 
    57     56     76      1     119.854485991700     275.494453586476 
    57     58     78      1     119.854485991700     275.494453586476 
    58     57     77      1     119.854485991700     275.494453586476 
    59     60     61      1     120.104999638600     707.494800457430 
    59     60     68      1     120.104999638600     707.494800457430 
    59     69     88      1     119.854485991700     275.494453586476 
    60     59     69      1     120.104999638600     707.494800457430 
    60     61     62      1     120.104999638600     707.494800457430 
    60     61     79      1     119.854485991700     275.494453586476 
    60     68     67      1     120.104999638600     707.494800457430 
    60     68     87      1     119.854485991700     275.494453586476 
    61     60     68      1     120.104999638600     707.494800457430 
    61     62     63      1     120.104999638600     707.494800457430 
    61     62     66      1     120.104999638600     707.494800457430 
    62     61     79      1     119.854485991700     275.494453586476 
    62     63     64      1     109.938052758400     558.616871667870 
    62     63     65      1     109.938052758400     558.616871667870 
    62     63     80      1     109.938052758400     558.616871667870 
    62     66     67      1     120.104999638600     707.494800457430 
    62     66     85      1     119.854485991700     275.494453586476 
    63     62     66      1     120.104999638600     707.494800457430 
    63     64     81      1     109.938052758400     558.616871667870 
    63     64     82      1     109.938052758400     558.616871667870 
    63     64     83      1     109.938052758400     558.616871667870 
    63     65     84      1     118.063661129300     310.493309961378 
    63     65     98      1     121.770534386700     665.074567904266 
    64     63     65      1     109.938052758400     558.616871667870 
    64     63     80      1     109.938052758400     558.616871667870 
    65     63     80      1     109.938052758400     558.616871667870 
    65     98     97      1     120.104999638600     707.494800457430 
    65     98     99      1     120.104999638600     707.494800457430 
    66     67     68      1     120.104999638600     707.494800457430 
    66     67     86      1     119.854485991700     275.494453586476 
    67     66     85      1     119.854485991700     275.494453586476 
    67     68     87      1     119.854485991700     275.494453586476 
    68     67     86      1     119.854485991700     275.494453586476 
    70     45     71      1     108.354313526900     307.746905535118 
    70     45     72      1     108.354313526900     307.746905535118 
    71     45     72      1     108.354313526900     307.746905535118 
    81     64     82      1     108.354313526900     307.746905535118 
    81     64     83      1     108.354313526900     307.746905535118 
    82     64     83      1     108.354313526900     307.746905535118 
    84     65     98      1     118.063661129300     310.493309961378 
    89     90     91      1     112.873616114500    1003.288803783688 
    90     89    114      1     109.938052758400     558.616871667870 
    90     89    115      1     109.938052758400     558.616871667870 
    90     89    116      1     109.938052758400     558.616871667870 
    90     91     92      1     120.104999638600     707.494800457430 
    90     91    113      1     120.104999638600     707.494800457430 
    91     92     93      1     120.104999638600     707.494800457430 
    91     92    117      1     119.854485991700     275.494453586476 
    91    113    103      1     120.104999638600     707.494800457430 
    91    113    132      1     119.854485991700     275.494453586476 
    92     91    113      1     120.104999638600     707.494800457430 
    92     93     94      1     120.104999638600     707.494800457430 
    92     93    118      1     119.854485991700     275.494453586476 
    93     92    117      1     119.854485991700     275.494453586476 
    93     94     95      1     120.104999638600     707.494800457430 
    93     94    103      1     120.104999638600     707.494800457430 
    94     93    118      1     119.854485991700     275.494453586476 
    94     95     96      1     120.104999638600     707.494800457430 
    94     95    102      1     120.104999638600     707.494800457430 
    94    103    104      1     120.104999638600     707.494800457430 
    94    103    113      1     120.104999638600     707.494800457430 
    95     94    103      1     120.104999638600     707.494800457430 
    95     96     97      1     120.104999638600     707.494800457430 
    95     96    119      1     119.854485991700     275.494453586476 
    95    102    101      1     120.104999638600     707.494800457430 
    95    102    122      1     119.854485991700     275.494453586476 
    96     95    102      1     120.104999638600     707.494800457430 
    96     97     98      1     120.104999638600     707.494800457430 
    96     97    100      1     120.104999638600     707.494800457430 
    97     96    119      1     119.854485991700     275.494453586476 
    97     98     99      1     120.104999638600     707.494800457430 
    97    100    101      1     120.104999638600     707.494800457430 
    97    100    120      1     119.854485991700     275.494453586476 
    98     97    100      1     120.104999638600     707.494800457430 
   100    101    102      1     120.104999638600     707.494800457430 
   100    101    121      1     119.854485991700     275.494453586476 
   101    100    120      1     119.854485991700     275.494453586476 
   101    102    122      1     119.854485991700     275.494453586476 
   102    101    121      1     119.854485991700     275.494453586476 
   103    104    105      1     120.104999638600     707.494800457430 
   103    104    112      1     120.104999638600     707.494800457430 
   103    113    132      1     119.854485991700     275.494453586476 
   104    103    113      1     120.104999638600     707.494800457430 
   104    105    106      1     120.104999638600     707.494800457430 
   104    105    123      1     119.854485991700     275.494453586476 
   104    112    111      1     120.104999638600     707.494800457430 
   104    112    131      1     119.854485991700     275.494453586476 
   105    104    112      1     120.104999638600     707.494800457430 
   105    106    107      1     120.104999638600     707.494800457430 
   105    106    110      1     120.104999638600     707.494800457430 
   106    105    123      1     119.854485991700     275.494453586476 
   106    107    108      1     109.938052758400     558.616871667870 
   106    107    109      1     109.938052758400     558.616871667870 
   106    107    124      1     109.938052758400     558.616871667870 
   106    110    111      1     120.104999638600     707.494800457430 
   106    110    129      1     119.854485991700     275.494453586476 
   107    106    110      1     120.104999638600     707.494800457430 
   107    108    125      1     109.938052758400     558.616871667870 
   107    108    126      1     109.938052758400     558.616871667870 
   107    108    127      1     109.938052758400     558.616871667870 
   107    109    128      1     118.063661129300     310.493309961378 
   107    109    142      1     121.770534386700     665.074567904266 
   108    107    109      1     109.938052758400     558.616871667870 
   108    107    124      1     109.938052758400     558.616871667870 
   109    107    124      1     109.938052758400     558.616871667870 
   109    142    141      1     120.104999638600     707.494800457430 
   109    142    143      1     120.104999638600     707.494800457430 
   110    111    112      1     120.104999638600     707.494800457430 
   110    111    130      1     119.854485991700     275.494453586476 
   111    110    129      1     119.854485991700     275.494453586476 
   111    112    131      1     119.854485991700     275.494453586476 
   112    111    130      1     119.854485991700     275.494453586476 
   114     89    115      1     108.354313526900     307.746905535118 
   114     89    116      1     108.354313526900     307.746905535118 
   115     89    116      1     108.354313526900     307.746905535118 
   125    108    126      1     108.354313526900     307.746905535118 
   125    108    127      1     108.354313526900     307.746905535118 
   126    108    127      1     108.354313526900     307.746905535118 
   128    109    142      1     118.063661129300     310.493309961378 
   133    134    135      1     112.873616114500    1003.288803783688 
   134    133    158      1     109.938052758400     558.616871667870 
   134    133    159      1     109.938052758400     558.616871667870 
   134    133    160      1     109.938052758400     558.616871667870 
   134    135    136      1     120.104999638600     707.494800457430 
   134    135    157      1     120.104999638600     707.494800457430 
   135    136    137      1     120.104999638600     707.494800457430 
   135    136    161      1     119.854485991700     275.494453586476 
   135    157    147      1     120.104999638600     707.494800457430 
   135    157    176      1     119.854485991700     275.494453586476 
   136    135    157      1     120.104999638600     707.494800457430 
   136    137    138      1     120.104999638600     707.494800457430 
   136    137    162      1     119.854485991700     275.494453586476 
   137    136    161      1     119.854485991700     275.494453586476 
   137    138    139      1     120.104999638600     707.494800457430 
   137    138    147      1     120.104999638600     707.494800457430 
   138    137    162      1     119.854485991700     275.494453586476 
   138    139    140      1     120.104999638600     707.494800457430 
   138    139    146      1     120.104999638600     707.494800457430 
   138    147    148      1     120.104999638600     707.494800457430 
   138    147    157      1     120.104999638600     707.494800457430 
   139    138    147      1     120.104999638600     707.494800457430 
   139    140    141      1     120.104999638600     707.494800457430 
   139    140    163      1     119.854485991700     275.494453586476 
   139    146    145      1     120.104999638600     707.494800457430 
   139    146    166      1     119.854485991700     275.494453586476 
   140    139    146      1     120.104999638600     707.494800457430 
   140    141    142      1     120.104999638600     707.494800457430 
   140    141    144      1     120.104999638600     707.494800457430 
   141    140    163      1     119.854485991700     275.494453586476 
   141    142    143      1     120.104999638600     707.494800457430 
   141    144    145      1     120.104999638600     707.494800457430 
   141    144    164      1     119.854485991700     275.494453586476 
   142    141    144      1     120.104999638600     707.494800457430 
   144    145    146      1     120.104999638600     707.494800457430 
   144    145    165      1     119.854485991700     275.494453586476 
   145    144    164      1     119.854485991700     275.494453586476 
   145    146    166      1     119.854485991700     275.494453586476 
   146    145    165      1     119.854485991700     275.494453586476 
   147    148    149      1     120.104999638600     707.494800457430 
   147    148    156      1     120.104999638600     707.494800457430 
   147    157    176      1     119.854485991700     275.494453586476 
   148    147    157      1     120.104999638600     707.494800457430 
   148    149    150      1     120.104999638600     707.494800457430 
   148    149    167      1     119.854485991700     275.494453586476 
   148    156    155      1     120.104999638600     707.494800457430 
   148    156    175      1     119.854485991700     275.494453586476 
   149    148    156      1     120.104999638600     707.494800457430 
   149    150    151      1     120.104999638600     707.494800457430 
   149    150    154      1     120.104999638600     707.494800457430 
   150    149    167      1     119.854485991700     275.494453586476 
   150    151    152      1     109.938052758400     558.616871667870 
   150    151    153      1     109.938052758400     558.616871667870 
   150    151    168      1     109.938052758400     558.616871667870 
   150    154    155      1     120.104999638600     707.494800457430 
   150    154    173      1     119.854485991700     275.494453586476 
   151    150    154      1     120.104999638600     707.494800457430 
   151    152    169      1     109.938052758400     558.616871667870 
   151    152    170      1     109.938052758400     558.616871667870 
   151    152    171      1     109.938052758400     558.616871667870 
   151    153    172      1     118.063661129300     310.493309961378 
   151    153    187      1     121.770534386700     665.074567904266 
   152    151    153      1     109.938052758400     558.616871667870 
   152    151    168      1     109.938052758400     558.616871667870 
   153    151    168      1     109.938052758400     558.616871667870 
   153    187    186      1     120.104999638600     707.494800457430 
   153    187    188      1     120.104999638600     707.494800457430 
   154    155    156      1     120.104999638600     707.494800457430 
   154    155    174      1     119.854485991700     275.494453586476 
   155    154    173      1     119.854485991700     275.494453586476 
   155    156    175      1     119.854485991700     275.494453586476 
   156    155    174      1     119.854485991700     275.494453586476 
   158    133    159      1     108.354313526900     307.746905535118 
   158    133    160      1     108.354313526900     307.746905535118 
   159    133    160      1     108.354313526900     307.746905535118 
   169    152    170      1     108.354313526900     307.746905535118 
   169    152    171      1     108.354313526900     307.746905535118 
   170    152    171      1     108.354313526900     307.746905535118 
   172    153    187      1     118.063661129300     310.493309961378 
   178    177    179      1     109.938052758400     558.616871667870 
   178    177    180      1     109.938052758400     558.616871667870 
   178    177    181      1     109.938052758400     558.616871667870 
   179    177    180      1     108.354313526900     307.746905535118 
   179    177    181      1     108.354313526900     307.746905535118 
   180    177    181      1     108.354313526900     307.746905535118 
   182    183    184      1     109.938052758400     558.616871667870 
   182    183    185      1     109.938052758400     558.616871667870 
   182    183    186      1     109.938052758400     558.616871667870 
   183    182    189      1     109.938052758400     558.616871667870 
   183    182    190      1     109.938052758400     558.616871667870 
   183    182    191      1     109.938052758400     558.616871667870 
   183    184    192      1     109.938052758400     558.616871667870 
   183    184    193      1     109.938052758400     558.616871667870 
   183    184    194      1     109.938052758400     558.616871667870 
   183    185    195      1     109.938052758400     558.616871667870 
   183    185    196      1     109.938052758400     558.616871667870 
   183    185    197      1     109.938052758400     558.616871667870 
   183    186    187      1     112.873616114500    1003.288803783688 
   184    183    185      1     109.938052758400     558.616871667870 
   184    183    186      1     109.938052758400     558.616871667870 
   185    183    186      1     109.938052758400     558.616871667870 
   186    187    188      1     123.605890003500     529.778359969850 
   189    182    190      1     108.354313526900     307.746905535118 
   189    182    191      1     108.354313526900     307.746905535118 
   190    182    191      1     108.354313526900     307.746905535118 
   192    184    193      1     108.354313526900     307.746905535118 
   192    184    194      1     108.354313526900     307.746905535118 
   193    184    194      1     108.354313526900     307.746905535118 
   195    185    196      1     108.354313526900     307.746905535118 
   195    185    197      1     108.354313526900     307.746905535118 
   196    185    197      1     108.354313526900     307.746905535118 

[ dihedrals ]
;ai    aj   ak   al   funct phi  k
     1     2     3     4     1      0.000000000000      0.235843019556                 1
     1     2     3     4     1    180.000000000000      9.740733130058                 2
     1     2     3     4     1      0.000000000000      1.170277623418                 3
     1     2     3     4     1    180.000000000000      0.673316344523                 4
     1     2     3    25     1      0.000000000000      0.235843019556                 1
     1     2     3    25     1    180.000000000000      9.740733130058                 2
     1     2     3    25     1      0.000000000000      1.170277623418                 3
     1     2     3    25     1    180.000000000000      0.673316344523                 4
     2     3     4     5     1    180.000000000000     13.675298757543                 2
     2     3     4    29     1    180.000000000000     13.675298757543                 2
     2     3    25    15     1    180.000000000000     13.675298757543                 2
     2     3    25    44     1    180.000000000000     13.675298757543                 2
     3     2     1    26     1      0.000000000000      1.100857953953                 3
     3     2     1    27     1      0.000000000000      1.100857953953                 3
     3     2     1    28     1      0.000000000000      1.100857953953                 3
     3     4     5     6     1    180.000000000000     13.675298757543                 2
     3     4     5    30     1    180.000000000000     13.675298757543                 2
     3    25    15     6     1    180.000000000000     13.675298757543                 2
     3    25    15    16     1    180.000000000000     13.675298757543                 2
     4     3    25    15     1    180.000000000000     13.675298757543                 2
     4     3    25    44     1    180.000000000000     13.675298757543                 2
     4     5     6     7     1    180.000000000000     13.675298757543                 2
     4     5     6    15     1    180.000000000000     13.675298757543                 2
     5     4     3    25     1    180.000000000000     13.675298757543                 2
     5     6     7     8     1      0.000000000000      0.330432283029                 1
     5     6     7     8     1    180.000000000000      6.244759295899                 2
     5     6     7     8     1      0.000000000000      0.363592073029                 3
     5     6     7     8     1    180.000000000000      2.036863234739                 4
     5     6     7    14     1      0.000000000000      0.330432283029                 1
     5     6     7    14     1    180.000000000000      6.244759295899                 2
     5     6     7    14     1      0.000000000000      0.363592073029                 3
     5     6     7    14     1    180.000000000000      2.036863234739                 4
     5     6    15    16     1    180.000000000000     13.675298757543                 2
     5     6    15    25     1    180.000000000000     13.675298757543                 2
     6     5     4    29     1    180.000000000000     13.675298757543                 2
     6     7     8     9     1    180.000000000000     13.675298757543                 2
     6     7     8    31     1    180.000000000000     13.675298757543                 2
     6     7    14    13     1    180.000000000000     13.675298757543                 2
     6     7    14    34     1    180.000000000000     13.675298757543                 2
     6    15    16    17     1    180.000000000000      5.177721731788                 2
     6    15    16    24     1    180.000000000000      5.177721731788                 2
     6    15    25    44     1    180.000000000000     13.675298757543                 2
     7     6     5    30     1    180.000000000000     13.675298757543                 2
     7     6    15    16     1    180.000000000000     13.675298757543                 2
     7     6    15    25     1    180.000000000000     13.675298757543                 2
     7     8     9    10     1    180.000000000000     13.675298757543                 2
     7     8     9    12     1    180.000000000000     13.675298757543                 2
     7    14    13    12     1    180.000000000000     13.675298757543                 2
     7    14    13    33     1    180.000000000000     13.675298757543                 2
     8     7     6    15     1      0.000000000000     -0.305147117559                 1
     8     7     6    15     1    180.000000000000      5.614894154900                 2
     8     7     6    15     1      0.000000000000     -0.350306533991                 3
     8     7     6    15     1    180.000000000000     -0.290925974549                 4
     8     7    14    13     1    180.000000000000     13.675298757543                 2
     8     7    14    34     1    180.000000000000     13.675298757543                 2
     8     9    10    11     1      0.000000000000      0.107034720506                 1
     8     9    10    11     1    180.000000000000      1.812655416845                 2
     8     9    10    11     1      0.000000000000      0.159738830990                 3
     8     9    10    11     1    180.000000000000      0.243675388306                 4
     8     9    10   178     1      0.000000000000     -0.099824213405                 1
     8     9    10   178     1    180.000000000000      2.077409699073                 2
     8     9    10   178     1      0.000000000000     -0.185160828493                 3
     8     9    10   178     1    180.000000000000     -0.079997742828                 4
     8     9    12    13     1    180.000000000000     13.675298757543                 2
     8     9    12    32     1    180.000000000000     13.675298757543                 2
     9     8     7    14     1    180.000000000000     13.675298757543                 2
     9    10   178   177     1      0.000000000000      1.483747984377                 1
     9    10   178   177     1    180.000000000000     16.358266181026                 2
     9    10   178   177     1      0.000000000000      3.208683412575                 3
     9    10   178   177     1    180.000000000000      2.379398528002                 4
     9    12    13    14     1    180.000000000000     13.675298757543                 2
     9    12    13    33     1    180.000000000000     13.675298757543                 2
    10     9     8    31     1    180.000000000000     13.675298757543                 2
    10     9    12    13     1    180.000000000000     13.675298757543                 2
    10     9    12    32     1    180.000000000000     13.675298757543                 2
    10   178   177   179     1      0.000000000000      1.100857953953                 3
    10   178   177   180     1      0.000000000000      1.100857953953                 3
    10   178   177   181     1      0.000000000000      1.100857953953                 3
    11    10     9    12     1      0.000000000000      0.107034720506                 1
    11    10     9    12     1    180.000000000000      1.812655416845                 2
    11    10     9    12     1      0.000000000000      0.159738830990                 3
    11    10     9    12     1    180.000000000000      0.243675388306                 4
    11    10   178   177     1      0.000000000000      4.021111040648                 1
    11    10   178   177     1    180.000000000000      3.195506373357                 2
    11    10   178   177     1      0.000000000000     -2.476428692618                 3
    11    10   178   177     1    180.000000000000      0.452033333162                 4
    12     9     8    31     1    180.000000000000     13.675298757543                 2
    12     9    10   178     1      0.000000000000     -0.099824213405                 1
    12     9    10   178     1    180.000000000000      2.077409699073                 2
    12     9    10   178     1      0.000000000000     -0.185160828493                 3
    12     9    10   178     1    180.000000000000     -0.079997742828                 4
    12    13    14    34     1    180.000000000000     13.675298757543                 2
    14     7     6    15     1      0.000000000000     -0.305147117559                 1
    14     7     6    15     1    180.000000000000      5.614894154900                 2
    14     7     6    15     1      0.000000000000     -0.350306533991                 3
    14     7     6    15     1    180.000000000000     -0.290925974549                 4
    14     7     8    31     1    180.000000000000     13.675298757543                 2
    14    13    12    32     1    180.000000000000     13.675298757543                 2
    15     6     5    30     1    180.000000000000     13.675298757543                 2
    15    16    17    18     1    180.000000000000     13.675298757543                 2
    15    16    17    35     1    180.000000000000     13.675298757543                 2
    15    16    24    23     1    180.000000000000     13.675298757543                 2
    15    16    24    43     1    180.000000000000     13.675298757543                 2
    16    15    25    44     1    180.000000000000     13.675298757543                 2
    16    17    18    19     1    180.000000000000     13.675298757543                 2
    16    17    18    22     1    180.000000000000     13.675298757543                 2
    16    24    23    22     1    180.000000000000     13.675298757543                 2
    16    24    23    42     1    180.000000000000     13.675298757543                 2
    17    16    15    25     1    180.000000000000      5.177721731788                 2
    17    16    24    23     1    180.000000000000     13.675298757543                 2
    17    16    24    43     1    180.000000000000     13.675298757543                 2
    17    18    19    20     1      0.000000000000     -0.108427062540                 1
    17    18    19    20     1    180.000000000000     -0.234249460198                 2
    17    18    19    20     1      0.000000000000      0.133459187013                 3
    17    18    19    20     1    180.000000000000     -0.029475386620                 4
    17    18    19    21     1      0.000000000000      0.222612790081                 1
    17    18    19    21     1    180.000000000000      1.301162957168                 2
    17    18    19    21     1      0.000000000000      0.116755113365                 3
    17    18    19    21     1    180.000000000000     -0.002060406520                 4
    17    18    19    36     1      0.000000000000     -0.119707963155                 1
    17    18    19    36     1    180.000000000000     -0.962600768528                 2
    17    18    19    36     1      0.000000000000      0.130235715954                 3
    17    18    19    36     1    180.000000000000      0.138877218737                 4
    17    18    22    23     1    180.000000000000     13.675298757543                 2
    17    18    22    41     1    180.000000000000     13.675298757543                 2
    18    17    16    24     1    180.000000000000     13.675298757543                 2
    18    19    20    37     1      0.000000000000      0.602098025234                 3
    18    19    20    38     1      0.000000000000      0.602098025234                 3
    18    19    20    39     1      0.000000000000      0.602098025234                 3
    18    19    21    40     1      0.000000000000      3.797355817630                 1
    18    19    21    40     1    180.000000000000      2.724984630263                 2
    18    19    21    40     1      0.000000000000      1.168952249497                 3
    18    19    21    40     1    180.000000000000      0.678038931880                 4
    18    19    21    54     1      0.000000000000     -5.278666639906                 1
    18    19    21    54     1    180.000000000000      1.972058426717                 2
    18    19    21    54     1      0.000000000000     -0.683585417665                 3
    18    19    21    54     1    180.000000000000     -0.696083441735                 4
    18    22    23    24     1    180.000000000000     13.675298757543                 2
    18    22    23    42     1    180.000000000000     13.675298757543                 2
    19    18    17    35     1    180.000000000000     13.675298757543                 2
    19    18    22    23     1    180.000000000000     13.675298757543                 2
    19    18    22    41     1    180.000000000000     13.675298757543                 2
    19    21    54    53     1      0.000000000000      0.956608960138                 1
    19    21    54    53     1    180.000000000000      8.655999504620                 2
    19    21    54    53     1      0.000000000000      1.665803024454                 3
    19    21    54    53     1    180.000000000000      2.309026495366                 4
    19    21    54    55     1      0.000000000000     -2.037155603620                 1
    19    21    54    55     1    180.000000000000      9.208478945825                 2
    19    21    54    55     1      0.000000000000      0.870455925942                 3
    19    21    54    55     1    180.000000000000     -1.048952139129                 4
    20    19    18    22     1      0.000000000000     -0.108427062540                 1
    20    19    18    22     1    180.000000000000     -0.234249460198                 2
    20    19    18    22     1      0.000000000000      0.133459187013                 3
    20    19    18    22     1    180.000000000000     -0.029475386620                 4
    20    19    21    40     1      0.000000000000     -1.868574215614                 1
    20    19    21    40     1    180.000000000000      0.873007442572                 2
    20    19    21    40     1      0.000000000000      0.743686628000                 3
    20    19    21    40     1    180.000000000000     -0.394691272489                 4
    20    19    21    54     1      0.000000000000     -0.140128161114                 1
    20    19    21    54     1    180.000000000000      0.338142259439                 2
    20    19    21    54     1      0.000000000000     -1.198436440405                 3
    20    19    21    54     1    180.000000000000      0.107799782602                 4
    21    19    18    22     1      0.000000000000      0.222612790081                 1
    21    19    18    22     1    180.000000000000      1.301162957168                 2
    21    19    18    22     1      0.000000000000      0.116755113365                 3
    21    19    18    22     1    180.000000000000     -0.002060406520                 4
    21    19    20    37     1      0.000000000000      0.602098025234                 3
    21    19    20    38     1      0.000000000000      0.602098025234                 3
    21    19    20    39     1      0.000000000000      0.602098025234                 3
    21    54    53    52     1      0.000000000000     -0.031460839219                 1
    21    54    53    52     1    180.000000000000      4.270002974820                 2
    21    54    53    52     1      0.000000000000     -0.110075272180                 3
    21    54    53    52     1    180.000000000000      0.064351797108                 4
    21    54    53    56     1      0.000000000000     -0.031460839219                 1
    21    54    53    56     1    180.000000000000      4.270002974820                 2
    21    54    53    56     1      0.000000000000     -0.110075272180                 3
    21    54    53    56     1    180.000000000000      0.064351797108                 4
    22    18    17    35     1    180.000000000000     13.675298757543                 2
    22    18    19    36     1      0.000000000000     -0.119707963155                 1
    22    18    19    36     1    180.000000000000     -0.962600768528                 2
    22    18    19    36     1      0.000000000000      0.130235715954                 3
    22    18    19    36     1    180.000000000000      0.138877218737                 4
    22    23    24    43     1    180.000000000000     13.675298757543                 2
    24    16    15    25     1    180.000000000000      5.177721731788                 2
    24    16    17    35     1    180.000000000000     13.675298757543                 2
    24    23    22    41     1    180.000000000000     13.675298757543                 2
    25     3     4    29     1    180.000000000000     13.675298757543                 2
    29     4     5    30     1    180.000000000000     13.675298757543                 2
    32    12    13    33     1    180.000000000000     13.675298757543                 2
    33    13    14    34     1    180.000000000000     13.675298757543                 2
    36    19    20    37     1      0.000000000000      0.953929629431                 3
    36    19    20    38     1      0.000000000000      0.953929629431                 3
    36    19    20    39     1      0.000000000000      0.953929629431                 3
    36    19    21    40     1      0.000000000000     -2.114029313186                 1
    36    19    21    40     1    180.000000000000      0.756675026697                 2
    36    19    21    40     1      0.000000000000      1.021790078098                 3
    36    19    21    40     1    180.000000000000     -0.106244383944                 4
    36    19    21    54     1      0.000000000000      2.565223265006                 1
    36    19    21    54     1    180.000000000000      0.405800696831                 2
    36    19    21    54     1      0.000000000000      0.544348333954                 3
    36    19    21    54     1    180.000000000000      0.333924287273                 4
    40    21    54    53     1      0.000000000000      2.335924274504                 1
    40    21    54    53     1    180.000000000000      9.193033617354                 2
    40    21    54    53     1      0.000000000000     -0.124501890284                 3
    40    21    54    53     1    180.000000000000      1.079222829415                 4
    40    21    54    55     1      0.000000000000      4.107117931388                 1
    40    21    54    55     1    180.000000000000      5.127015996416                 2
    40    21    54    55     1      0.000000000000     -0.284210293135                 3
    40    21    54    55     1    180.000000000000     -0.859318655017                 4
    41    22    23    42     1    180.000000000000     13.675298757543                 2
    42    23    24    43     1    180.000000000000     13.675298757543                 2
    45    46    47    48     1      0.000000000000      0.235843019556                 1
    45    46    47    48     1    180.000000000000      9.740733130058                 2
    45    46    47    48     1      0.000000000000      1.170277623418                 3
    45    46    47    48     1    180.000000000000      0.673316344523                 4
    45    46    47    69     1      0.000000000000      0.235843019556                 1
    45    46    47    69     1    180.000000000000      9.740733130058                 2
    45    46    47    69     1      0.000000000000      1.170277623418                 3
    45    46    47    69     1    180.000000000000      0.673316344523                 4
    46    47    48    49     1    180.000000000000     13.675298757543                 2
    46    47    48    73     1    180.000000000000     13.675298757543                 2
    46    47    69    59     1    180.000000000000     13.675298757543                 2
    46    47    69    88     1    180.000000000000     13.675298757543                 2
    47    46    45    70     1      0.000000000000      1.100857953953                 3
    47    46    45    71     1      0.000000000000      1.100857953953                 3
    47    46    45    72     1      0.000000000000      1.100857953953                 3
    47    48    49    50     1    180.000000000000     13.675298757543                 2
    47    48    49    74     1    180.000000000000     13.675298757543                 2
    47    69    59    50     1    180.000000000000     13.675298757543                 2
    47    69    59    60     1    180.000000000000     13.675298757543                 2
    48    47    69    59     1    180.000000000000     13.675298757543                 2
    48    47    69    88     1    180.000000000000     13.675298757543                 2
    48    49    50    51     1    180.000000000000     13.675298757543                 2
    48    49    50    59     1    180.000000000000     13.675298757543                 2
    49    48    47    69     1    180.000000000000     13.675298757543                 2
    49    50    51    52     1      0.000000000000      0.330432283029                 1
    49    50    51    52     1    180.000000000000      6.244759295899                 2
    49    50    51    52     1      0.000000000000      0.363592073029                 3
    49    50    51    52     1    180.000000000000      2.036863234739                 4
    49    50    51    58     1      0.000000000000      0.330432283029                 1
    49    50    51    58     1    180.000000000000      6.244759295899                 2
    49    50    51    58     1      0.000000000000      0.363592073029                 3
    49    50    51    58     1    180.000000000000      2.036863234739                 4
    49    50    59    60     1    180.000000000000     13.675298757543                 2
    49    50    59    69     1    180.000000000000     13.675298757543                 2
    50    49    48    73     1    180.000000000000     13.675298757543                 2
    50    51    52    53     1    180.000000000000     13.675298757543                 2
    50    51    52    75     1    180.000000000000     13.675298757543                 2
    50    51    58    57     1    180.000000000000     13.675298757543                 2
    50    51    58    78     1    180.000000000000     13.675298757543                 2
    50    59    60    61     1    180.000000000000      5.177721731788                 2
    50    59    60    68     1    180.000000000000      5.177721731788                 2
    50    59    69    88     1    180.000000000000     13.675298757543                 2
    51    50    49    74     1    180.000000000000     13.675298757543                 2
    51    50    59    60     1    180.000000000000     13.675298757543                 2
    51    50    59    69     1    180.000000000000     13.675298757543                 2
    51    52    53    54     1    180.000000000000     13.675298757543                 2
    51    52    53    56     1    180.000000000000     13.675298757543                 2
    51    58    57    56     1    180.000000000000     13.675298757543                 2
    51    58    57    77     1    180.000000000000     13.675298757543                 2
    52    51    50    59     1      0.000000000000     -0.305147117559                 1
    52    51    50    59     1    180.000000000000      5.614894154900                 2
    52    51    50    59     1      0.000000000000     -0.350306533991                 3
    52    51    50    59     1    180.000000000000     -0.290925974549                 4
    52    51    58    57     1    180.000000000000     13.675298757543                 2
    52    51    58    78     1    180.000000000000     13.675298757543                 2
    52    53    54    55     1      0.000000000000      0.022583117969                 1
    52    53    54    55     1    180.000000000000     -0.263136660930                 2
    52    53    54    55     1      0.000000000000      0.159020443401                 3
    52    53    54    55     1    180.000000000000      0.388148756665                 4
    52    53    56    57     1    180.000000000000     13.675298757543                 2
    52    53    56    76     1    180.000000000000     13.675298757543                 2
    53    52    51    58     1    180.000000000000     13.675298757543                 2
    53    56    57    58     1    180.000000000000     13.675298757543                 2
    53    56    57    77     1    180.000000000000     13.675298757543                 2
    54    53    52    75     1    180.000000000000     13.675298757543                 2
    54    53    56    57     1    180.000000000000     13.675298757543                 2
    54    53    56    76     1    180.000000000000     13.675298757543                 2
    55    54    53    56     1      0.000000000000      0.022583117969                 1
    55    54    53    56     1    180.000000000000     -0.263136660930                 2
    55    54    53    56     1      0.000000000000      0.159020443401                 3
    55    54    53    56     1    180.000000000000      0.388148756665                 4
    56    53    52    75     1    180.000000000000     13.675298757543                 2
    56    57    58    78     1    180.000000000000     13.675298757543                 2
    58    51    50    59     1      0.000000000000     -0.305147117559                 1
    58    51    50    59     1    180.000000000000      5.614894154900                 2
    58    51    50    59     1      0.000000000000     -0.350306533991                 3
    58    51    50    59     1    180.000000000000     -0.290925974549                 4
    58    51    52    75     1    180.000000000000     13.675298757543                 2
    58    57    56    76     1    180.000000000000     13.675298757543                 2
    59    50    49    74     1    180.000000000000     13.675298757543                 2
    59    60    61    62     1    180.000000000000     13.675298757543                 2
    59    60    61    79     1    180.000000000000     13.675298757543                 2
    59    60    68    67     1    180.000000000000     13.675298757543                 2
    59    60    68    87     1    180.000000000000     13.675298757543                 2
    60    59    69    88     1    180.000000000000     13.675298757543                 2
    60    61    62    63     1    180.000000000000     13.675298757543                 2
    60    61    62    66     1    180.000000000000     13.675298757543                 2
    60    68    67    66     1    180.000000000000     13.675298757543                 2
    60    68    67    86     1    180.000000000000     13.675298757543                 2
    61    60    59    69     1    180.000000000000      5.177721731788                 2
    61    60    68    67     1    180.000000000000     13.675298757543                 2
    61    60    68    87     1    180.000000000000     13.675298757543                 2
    61    62    63    64     1      0.000000000000     -0.108427062540                 1
    61    62    63    64     1    180.000000000000     -0.234249460198                 2
    61    62    63    64     1      0.000000000000      0.133459187013                 3
    61    62    63    64     1    180.000000000000     -0.029475386620                 4
    61    62    63    65     1      0.000000000000      0.222612790081                 1
    61    62    63    65     1    180.000000000000      1.301162957168                 2
    61    62    63    65     1      0.000000000000      0.116755113365                 3
    61    62    63    65     1    180.000000000000     -0.002060406520                 4
    61    62    63    80     1      0.000000000000     -0.119707963155                 1
    61    62    63    80     1    180.000000000000     -0.962600768528                 2
    61    62    63    80     1      0.000000000000      0.130235715954                 3
    61    62    63    80     1    180.000000000000      0.138877218737                 4
    61    62    66    67     1    180.000000000000     13.675298757543                 2
    61    62    66    85     1    180.000000000000     13.675298757543                 2
    62    61    60    68     1    180.000000000000     13.675298757543                 2
    62    63    64    81     1      0.000000000000      0.602098025234                 3
    62    63    64    82     1      0.000000000000      0.602098025234                 3
    62    63    64    83     1      0.000000000000      0.602098025234                 3
    62    63    65    84     1      0.000000000000      3.797355817630                 1
    62    63    65    84     1    180.000000000000      2.724984630263                 2
    62    63    65    84     1      0.000000000000      1.168952249497                 3
    62    63    65    84     1    180.000000000000      0.678038931880                 4
    62    63    65    98     1      0.000000000000     -5.278666639906                 1
    62    63    65    98     1    180.000000000000      1.972058426717                 2
    62    63    65    98     1      0.000000000000     -0.683585417665                 3
    62    63    65    98     1    180.000000000000     -0.696083441735                 4
    62    66    67    68     1    180.000000000000     13.675298757543                 2
    62    66    67    86     1    180.000000000000     13.675298757543                 2
    63    62    61    79     1    180.000000000000     13.675298757543                 2
    63    62    66    67     1    180.000000000000     13.675298757543                 2
    63    62    66    85     1    180.000000000000     13.675298757543                 2
    63    65    98    97     1      0.000000000000      0.956608960138                 1
    63    65    98    97     1    180.000000000000      8.655999504620                 2
    63    65    98    97     1      0.000000000000      1.665803024454                 3
    63    65    98    97     1    180.000000000000      2.309026495366                 4
    63    65    98    99     1      0.000000000000     -2.037155603620                 1
    63    65    98    99     1    180.000000000000      9.208478945825                 2
    63    65    98    99     1      0.000000000000      0.870455925942                 3
    63    65    98    99     1    180.000000000000     -1.048952139129                 4
    64    63    62    66     1      0.000000000000     -0.108427062540                 1
    64    63    62    66     1    180.000000000000     -0.234249460198                 2
    64    63    62    66     1      0.000000000000      0.133459187013                 3
    64    63    62    66     1    180.000000000000     -0.029475386620                 4
    64    63    65    84     1      0.000000000000     -1.868574215614                 1
    64    63    65    84     1    180.000000000000      0.873007442572                 2
    64    63    65    84     1      0.000000000000      0.743686628000                 3
    64    63    65    84     1    180.000000000000     -0.394691272489                 4
    64    63    65    98     1      0.000000000000     -0.140128161114                 1
    64    63    65    98     1    180.000000000000      0.338142259439                 2
    64    63    65    98     1      0.000000000000     -1.198436440405                 3
    64    63    65    98     1    180.000000000000      0.107799782602                 4
    65    63    62    66     1      0.000000000000      0.222612790081                 1
    65    63    62    66     1    180.000000000000      1.301162957168                 2
    65    63    62    66     1      0.000000000000      0.116755113365                 3
    65    63    62    66     1    180.000000000000     -0.002060406520                 4
    65    63    64    81     1      0.000000000000      0.602098025234                 3
    65    63    64    82     1      0.000000000000      0.602098025234                 3
    65    63    64    83     1      0.000000000000      0.602098025234                 3
    65    98    97    96     1      0.000000000000     -0.031460839219                 1
    65    98    97    96     1    180.000000000000      4.270002974820                 2
    65    98    97    96     1      0.000000000000     -0.110075272180                 3
    65    98    97    96     1    180.000000000000      0.064351797108                 4
    65    98    97   100     1      0.000000000000     -0.031460839219                 1
    65    98    97   100     1    180.000000000000      4.270002974820                 2
    65    98    97   100     1      0.000000000000     -0.110075272180                 3
    65    98    97   100     1    180.000000000000      0.064351797108                 4
    66    62    61    79     1    180.000000000000     13.675298757543                 2
    66    62    63    80     1      0.000000000000     -0.119707963155                 1
    66    62    63    80     1    180.000000000000     -0.962600768528                 2
    66    62    63    80     1      0.000000000000      0.130235715954                 3
    66    62    63    80     1    180.000000000000      0.138877218737                 4
    66    67    68    87     1    180.000000000000     13.675298757543                 2
    68    60    59    69     1    180.000000000000      5.177721731788                 2
    68    60    61    79     1    180.000000000000     13.675298757543                 2
    68    67    66    85     1    180.000000000000     13.675298757543                 2
    69    47    48    73     1    180.000000000000     13.675298757543                 2
    73    48    49    74     1    180.000000000000     13.675298757543                 2
    76    56    57    77     1    180.000000000000     13.675298757543                 2
    77    57    58    78     1    180.000000000000     13.675298757543                 2
    80    63    64    81     1      0.000000000000      0.953929629431                 3
    80    63    64    82     1      0.000000000000      0.953929629431                 3
    80    63    64    83     1      0.000000000000      0.953929629431                 3
    80    63    65    84     1      0.000000000000     -2.114029313186                 1
    80    63    65    84     1    180.000000000000      0.756675026697                 2
    80    63    65    84     1      0.000000000000      1.021790078098                 3
    80    63    65    84     1    180.000000000000     -0.106244383944                 4
    80    63    65    98     1      0.000000000000      2.565223265006                 1
    80    63    65    98     1    180.000000000000      0.405800696831                 2
    80    63    65    98     1      0.000000000000      0.544348333954                 3
    80    63    65    98     1    180.000000000000      0.333924287273                 4
    84    65    98    97     1      0.000000000000      2.335924274504                 1
    84    65    98    97     1    180.000000000000      9.193033617354                 2
    84    65    98    97     1      0.000000000000     -0.124501890284                 3
    84    65    98    97     1    180.000000000000      1.079222829415                 4
    84    65    98    99     1      0.000000000000      4.107117931388                 1
    84    65    98    99     1    180.000000000000      5.127015996416                 2
    84    65    98    99     1      0.000000000000     -0.284210293135                 3
    84    65    98    99     1    180.000000000000     -0.859318655017                 4
    85    66    67    86     1    180.000000000000     13.675298757543                 2
    86    67    68    87     1    180.000000000000     13.675298757543                 2
    89    90    91    92     1      0.000000000000      0.235843019556                 1
    89    90    91    92     1    180.000000000000      9.740733130058                 2
    89    90    91    92     1      0.000000000000      1.170277623418                 3
    89    90    91    92     1    180.000000000000      0.673316344523                 4
    89    90    91   113     1      0.000000000000      0.235843019556                 1
    89    90    91   113     1    180.000000000000      9.740733130058                 2
    89    90    91   113     1      0.000000000000      1.170277623418                 3
    89    90    91   113     1    180.000000000000      0.673316344523                 4
    90    91    92    93     1    180.000000000000     13.675298757543                 2
    90    91    92   117     1    180.000000000000     13.675298757543                 2
    90    91   113   103     1    180.000000000000     13.675298757543                 2
    90    91   113   132     1    180.000000000000     13.675298757543                 2
    91    90    89   114     1      0.000000000000      1.100857953953                 3
    91    90    89   115     1      0.000000000000      1.100857953953                 3
    91    90    89   116     1      0.000000000000      1.100857953953                 3
    91    92    93    94     1    180.000000000000     13.675298757543                 2
    91    92    93   118     1    180.000000000000     13.675298757543                 2
    91   113   103    94     1    180.000000000000     13.675298757543                 2
    91   113   103   104     1    180.000000000000     13.675298757543                 2
    92    91   113   103     1    180.000000000000     13.675298757543                 2
    92    91   113   132     1    180.000000000000     13.675298757543                 2
    92    93    94    95     1    180.000000000000     13.675298757543                 2
    92    93    94   103     1    180.000000000000     13.675298757543                 2
    93    92    91   113     1    180.000000000000     13.675298757543                 2
    93    94    95    96     1      0.000000000000      0.330432283029                 1
    93    94    95    96     1    180.000000000000      6.244759295899                 2
    93    94    95    96     1      0.000000000000      0.363592073029                 3
    93    94    95    96     1    180.000000000000      2.036863234739                 4
    93    94    95   102     1      0.000000000000      0.330432283029                 1
    93    94    95   102     1    180.000000000000      6.244759295899                 2
    93    94    95   102     1      0.000000000000      0.363592073029                 3
    93    94    95   102     1    180.000000000000      2.036863234739                 4
    93    94   103   104     1    180.000000000000     13.675298757543                 2
    93    94   103   113     1    180.000000000000     13.675298757543                 2
    94    93    92   117     1    180.000000000000     13.675298757543                 2
    94    95    96    97     1    180.000000000000     13.675298757543                 2
    94    95    96   119     1    180.000000000000     13.675298757543                 2
    94    95   102   101     1    180.000000000000     13.675298757543                 2
    94    95   102   122     1    180.000000000000     13.675298757543                 2
    94   103   104   105     1    180.000000000000      5.177721731788                 2
    94   103   104   112     1    180.000000000000      5.177721731788                 2
    94   103   113   132     1    180.000000000000     13.675298757543                 2
    95    94    93   118     1    180.000000000000     13.675298757543                 2
    95    94   103   104     1    180.000000000000     13.675298757543                 2
    95    94   103   113     1    180.000000000000     13.675298757543                 2
    95    96    97    98     1    180.000000000000     13.675298757543                 2
    95    96    97   100     1    180.000000000000     13.675298757543                 2
    95   102   101   100     1    180.000000000000     13.675298757543                 2
    95   102   101   121     1    180.000000000000     13.675298757543                 2
    96    95    94   103     1      0.000000000000     -0.305147117559                 1
    96    95    94   103     1    180.000000000000      5.614894154900                 2
    96    95    94   103     1      0.000000000000     -0.350306533991                 3
    96    95    94   103     1    180.000000000000     -0.290925974549                 4
    96    95   102   101     1    180.000000000000     13.675298757543                 2
    96    95   102   122     1    180.000000000000     13.675298757543                 2
    96    97    98    99     1      0.000000000000      0.022583117969                 1
    96    97    98    99     1    180.000000000000     -0.263136660930                 2
    96    97    98    99     1      0.000000000000      0.159020443401                 3
    96    97    98    99     1    180.000000000000      0.388148756665                 4
    96    97   100   101     1    180.000000000000     13.675298757543                 2
    96    97   100   120     1    180.000000000000     13.675298757543                 2
    97    96    95   102     1    180.000000000000     13.675298757543                 2
    97   100   101   102     1    180.000000000000     13.675298757543                 2
    97   100   101   121     1    180.000000000000     13.675298757543                 2
    98    97    96   119     1    180.000000000000     13.675298757543                 2
    98    97   100   101     1    180.000000000000     13.675298757543                 2
    98    97   100   120     1    180.000000000000     13.675298757543                 2
    99    98    97   100     1      0.000000000000      0.022583117969                 1
    99    98    97   100     1    180.000000000000     -0.263136660930                 2
    99    98    97   100     1      0.000000000000      0.159020443401                 3
    99    98    97   100     1    180.000000000000      0.388148756665                 4
   100    97    96   119     1    180.000000000000     13.675298757543                 2
   100   101   102   122     1    180.000000000000     13.675298757543                 2
   102    95    94   103     1      0.000000000000     -0.305147117559                 1
   102    95    94   103     1    180.000000000000      5.614894154900                 2
   102    95    94   103     1      0.000000000000     -0.350306533991                 3
   102    95    94   103     1    180.000000000000     -0.290925974549                 4
   102    95    96   119     1    180.000000000000     13.675298757543                 2
   102   101   100   120     1    180.000000000000     13.675298757543                 2
   103    94    93   118     1    180.000000000000     13.675298757543                 2
   103   104   105   106     1    180.000000000000     13.675298757543                 2
   103   104   105   123     1    180.000000000000     13.675298757543                 2
   103   104   112   111     1    180.000000000000     13.675298757543                 2
   103   104   112   131     1    180.000000000000     13.675298757543                 2
   104   103   113   132     1    180.000000000000     13.675298757543                 2
   104   105   106   107     1    180.000000000000     13.675298757543                 2
   104   105   106   110     1    180.000000000000     13.675298757543                 2
   104   112   111   110     1    180.000000000000     13.675298757543                 2
   104   112   111   130     1    180.000000000000     13.675298757543                 2
   105   104   103   113     1    180.000000000000      5.177721731788                 2
   105   104   112   111     1    180.000000000000     13.675298757543                 2
   105   104   112   131     1    180.000000000000     13.675298757543                 2
   105   106   107   108     1      0.000000000000     -0.108427062540                 1
   105   106   107   108     1    180.000000000000     -0.234249460198                 2
   105   106   107   108     1      0.000000000000      0.133459187013                 3
   105   106   107   108     1    180.000000000000     -0.029475386620                 4
   105   106   107   109     1      0.000000000000      0.222612790081                 1
   105   106   107   109     1    180.000000000000      1.301162957168                 2
   105   106   107   109     1      0.000000000000      0.116755113365                 3
   105   106   107   109     1    180.000000000000     -0.002060406520                 4
   105   106   107   124     1      0.000000000000     -0.119707963155                 1
   105   106   107   124     1    180.000000000000     -0.962600768528                 2
   105   106   107   124     1      0.000000000000      0.130235715954                 3
   105   106   107   124     1    180.000000000000      0.138877218737                 4
   105   106   110   111     1    180.000000000000     13.675298757543                 2
   105   106   110   129     1    180.000000000000     13.675298757543                 2
   106   105   104   112     1    180.000000000000     13.675298757543                 2
   106   107   108   125     1      0.000000000000      0.602098025234                 3
   106   107   108   126     1      0.000000000000      0.602098025234                 3
   106   107   108   127     1      0.000000000000      0.602098025234                 3
   106   107   109   128     1      0.000000000000      3.797355817630                 1
   106   107   109   128     1    180.000000000000      2.724984630263                 2
   106   107   109   128     1      0.000000000000      1.168952249497                 3
   106   107   109   128     1    180.000000000000      0.678038931880                 4
   106   107   109   142     1      0.000000000000     -5.278666639906                 1
   106   107   109   142     1    180.000000000000      1.972058426717                 2
   106   107   109   142     1      0.000000000000     -0.683585417665                 3
   106   107   109   142     1    180.000000000000     -0.696083441735                 4
   106   110   111   112     1    180.000000000000     13.675298757543                 2
   106   110   111   130     1    180.000000000000     13.675298757543                 2
   107   106   105   123     1    180.000000000000     13.675298757543                 2
   107   106   110   111     1    180.000000000000     13.675298757543                 2
   107   106   110   129     1    180.000000000000     13.675298757543                 2
   107   109   142   141     1      0.000000000000      0.956608960138                 1
   107   109   142   141     1    180.000000000000      8.655999504620                 2
   107   109   142   141     1      0.000000000000      1.665803024454                 3
   107   109   142   141     1    180.000000000000      2.309026495366                 4
   107   109   142   143     1      0.000000000000     -2.037155603620                 1
   107   109   142   143     1    180.000000000000      9.208478945825                 2
   107   109   142   143     1      0.000000000000      0.870455925942                 3
   107   109   142   143     1    180.000000000000     -1.048952139129                 4
   108   107   106   110     1      0.000000000000     -0.108427062540                 1
   108   107   106   110     1    180.000000000000     -0.234249460198                 2
   108   107   106   110     1      0.000000000000      0.133459187013                 3
   108   107   106   110     1    180.000000000000     -0.029475386620                 4
   108   107   109   128     1      0.000000000000     -1.868574215614                 1
   108   107   109   128     1    180.000000000000      0.873007442572                 2
   108   107   109   128     1      0.000000000000      0.743686628000                 3
   108   107   109   128     1    180.000000000000     -0.394691272489                 4
   108   107   109   142     1      0.000000000000     -0.140128161114                 1
   108   107   109   142     1    180.000000000000      0.338142259439                 2
   108   107   109   142     1      0.000000000000     -1.198436440405                 3
   108   107   109   142     1    180.000000000000      0.107799782602                 4
   109   107   106   110     1      0.000000000000      0.222612790081                 1
   109   107   106   110     1    180.000000000000      1.301162957168                 2
   109   107   106   110     1      0.000000000000      0.116755113365                 3
   109   107   106   110     1    180.000000000000     -0.002060406520                 4
   109   107   108   125     1      0.000000000000      0.602098025234                 3
   109   107   108   126     1      0.000000000000      0.602098025234                 3
   109   107   108   127     1      0.000000000000      0.602098025234                 3
   109   142   141   140     1      0.000000000000     -0.031460839219                 1
   109   142   141   140     1    180.000000000000      4.270002974820                 2
   109   142   141   140     1      0.000000000000     -0.110075272180                 3
   109   142   141   140     1    180.000000000000      0.064351797108                 4
   109   142   141   144     1      0.000000000000     -0.031460839219                 1
   109   142   141   144     1    180.000000000000      4.270002974820                 2
   109   142   141   144     1      0.000000000000     -0.110075272180                 3
   109   142   141   144     1    180.000000000000      0.064351797108                 4
   110   106   105   123     1    180.000000000000     13.675298757543                 2
   110   106   107   124     1      0.000000000000     -0.119707963155                 1
   110   106   107   124     1    180.000000000000     -0.962600768528                 2
   110   106   107   124     1      0.000000000000      0.130235715954                 3
   110   106   107   124     1    180.000000000000      0.138877218737                 4
   110   111   112   131     1    180.000000000000     13.675298757543                 2
   112   104   103   113     1    180.000000000000      5.177721731788                 2
   112   104   105   123     1    180.000000000000     13.675298757543                 2
   112   111   110   129     1    180.000000000000     13.675298757543                 2
   113    91    92   117     1    180.000000000000     13.675298757543                 2
   117    92    93   118     1    180.000000000000     13.675298757543                 2
   120   100   101   121     1    180.000000000000     13.675298757543                 2
   121   101   102   122     1    180.000000000000     13.675298757543                 2
   124   107   108   125     1      0.000000000000      0.953929629431                 3
   124   107   108   126     1      0.000000000000      0.953929629431                 3
   124   107   108   127     1      0.000000000000      0.953929629431                 3
   124   107   109   128     1      0.000000000000     -2.114029313186                 1
   124   107   109   128     1    180.000000000000      0.756675026697                 2
   124   107   109   128     1      0.000000000000      1.021790078098                 3
   124   107   109   128     1    180.000000000000     -0.106244383944                 4
   124   107   109   142     1      0.000000000000      2.565223265006                 1
   124   107   109   142     1    180.000000000000      0.405800696831                 2
   124   107   109   142     1      0.000000000000      0.544348333954                 3
   124   107   109   142     1    180.000000000000      0.333924287273                 4
   128   109   142   141     1      0.000000000000      2.335924274504                 1
   128   109   142   141     1    180.000000000000      9.193033617354                 2
   128   109   142   141     1      0.000000000000     -0.124501890284                 3
   128   109   142   141     1    180.000000000000      1.079222829415                 4
   128   109   142   143     1      0.000000000000      4.107117931388                 1
   128   109   142   143     1    180.000000000000      5.127015996416                 2
   128   109   142   143     1      0.000000000000     -0.284210293135                 3
   128   109   142   143     1    180.000000000000     -0.859318655017                 4
   129   110   111   130     1    180.000000000000     13.675298757543                 2
   130   111   112   131     1    180.000000000000     13.675298757543                 2
   133   134   135   136     1      0.000000000000      0.235843019556                 1
   133   134   135   136     1    180.000000000000      9.740733130058                 2
   133   134   135   136     1      0.000000000000      1.170277623418                 3
   133   134   135   136     1    180.000000000000      0.673316344523                 4
   133   134   135   157     1      0.000000000000      0.235843019556                 1
   133   134   135   157     1    180.000000000000      9.740733130058                 2
   133   134   135   157     1      0.000000000000      1.170277623418                 3
   133   134   135   157     1    180.000000000000      0.673316344523                 4
   134   135   136   137     1    180.000000000000     13.675298757543                 2
   134   135   136   161     1    180.000000000000     13.675298757543                 2
   134   135   157   147     1    180.000000000000     13.675298757543                 2
   134   135   157   176     1    180.000000000000     13.675298757543                 2
   135   134   133   158     1      0.000000000000      1.100857953953                 3
   135   134   133   159     1      0.000000000000      1.100857953953                 3
   135   134   133   160     1      0.000000000000      1.100857953953                 3
   135   136   137   138     1    180.000000000000     13.675298757543                 2
   135   136   137   162     1    180.000000000000     13.675298757543                 2
   135   157   147   138     1    180.000000000000     13.675298757543                 2
   135   157   147   148     1    180.000000000000     13.675298757543                 2
   136   135   157   147     1    180.000000000000     13.675298757543                 2
   136   135   157   176     1    180.000000000000     13.675298757543                 2
   136   137   138   139     1    180.000000000000     13.675298757543                 2
   136   137   138   147     1    180.000000000000     13.675298757543                 2
   137   136   135   157     1    180.000000000000     13.675298757543                 2
   137   138   139   140     1      0.000000000000      0.330432283029                 1
   137   138   139   140     1    180.000000000000      6.244759295899                 2
   137   138   139   140     1      0.000000000000      0.363592073029                 3
   137   138   139   140     1    180.000000000000      2.036863234739                 4
   137   138   139   146     1      0.000000000000      0.330432283029                 1
   137   138   139   146     1    180.000000000000      6.244759295899                 2
   137   138   139   146     1      0.000000000000      0.363592073029                 3
   137   138   139   146     1    180.000000000000      2.036863234739                 4
   137   138   147   148     1    180.000000000000     13.675298757543                 2
   137   138   147   157     1    180.000000000000     13.675298757543                 2
   138   137   136   161     1    180.000000000000     13.675298757543                 2
   138   139   140   141     1    180.000000000000     13.675298757543                 2
   138   139   140   163     1    180.000000000000     13.675298757543                 2
   138   139   146   145     1    180.000000000000     13.675298757543                 2
   138   139   146   166     1    180.000000000000     13.675298757543                 2
   138   147   148   149     1    180.000000000000      5.177721731788                 2
   138   147   148   156     1    180.000000000000      5.177721731788                 2
   138   147   157   176     1    180.000000000000     13.675298757543                 2
   139   138   137   162     1    180.000000000000     13.675298757543                 2
   139   138   147   148     1    180.000000000000     13.675298757543                 2
   139   138   147   157     1    180.000000000000     13.675298757543                 2
   139   140   141   142     1    180.000000000000     13.675298757543                 2
   139   140   141   144     1    180.000000000000     13.675298757543                 2
   139   146   145   144     1    180.000000000000     13.675298757543                 2
   139   146   145   165     1    180.000000000000     13.675298757543                 2
   140   139   138   147     1      0.000000000000     -0.305147117559                 1
   140   139   138   147     1    180.000000000000      5.614894154900                 2
   140   139   138   147     1      0.000000000000     -0.350306533991                 3
   140   139   138   147     1    180.000000000000     -0.290925974549                 4
   140   139   146   145     1    180.000000000000     13.675298757543                 2
   140   139   146   166     1    180.000000000000     13.675298757543                 2
   140   141   142   143     1      0.000000000000      0.022583117969                 1
   140   141   142   143     1    180.000000000000     -0.263136660930                 2
   140   141   142   143     1      0.000000000000      0.159020443401                 3
   140   141   142   143     1    180.000000000000      0.388148756665                 4
   140   141   144   145     1    180.000000000000     13.675298757543                 2
   140   141   144   164     1    180.000000000000     13.675298757543                 2
   141   140   139   146     1    180.000000000000     13.675298757543                 2
   141   144   145   146     1    180.000000000000     13.675298757543                 2
   141   144   145   165     1    180.000000000000     13.675298757543                 2
   142   141   140   163     1    180.000000000000     13.675298757543                 2
   142   141   144   145     1    180.000000000000     13.675298757543                 2
   142   141   144   164     1    180.000000000000     13.675298757543                 2
   143   142   141   144     1      0.000000000000      0.022583117969                 1
   143   142   141   144     1    180.000000000000     -0.263136660930                 2
   143   142   141   144     1      0.000000000000      0.159020443401                 3
   143   142   141   144     1    180.000000000000      0.388148756665                 4
   144   141   140   163     1    180.000000000000     13.675298757543                 2
   144   145   146   166     1    180.000000000000     13.675298757543                 2
   146   139   138   147     1      0.000000000000     -0.305147117559                 1
   146   139   138   147     1    180.000000000000      5.614894154900                 2
   146   139   138   147     1      0.000000000000     -0.350306533991                 3
   146   139   138   147     1    180.000000000000     -0.290925974549                 4
   146   139   140   163     1    180.000000000000     13.675298757543                 2
   146   145   144   164     1    180.000000000000     13.675298757543                 2
   147   138   137   162     1    180.000000000000     13.675298757543                 2
   147   148   149   150     1    180.000000000000     13.675298757543                 2
   147   148   149   167     1    180.000000000000     13.675298757543                 2
   147   148   156   155     1    180.000000000000     13.675298757543                 2
   147   148   156   175     1    180.000000000000     13.675298757543                 2
   148   147   157   176     1    180.000000000000     13.675298757543                 2
   148   149   150   151     1    180.000000000000     13.675298757543                 2
   148   149   150   154     1    180.000000000000     13.675298757543                 2
   148   156   155   154     1    180.000000000000     13.675298757543                 2
   148   156   155   174     1    180.000000000000     13.675298757543                 2
   149   148   147   157     1    180.000000000000      5.177721731788                 2
   149   148   156   155     1    180.000000000000     13.675298757543                 2
   149   148   156   175     1    180.000000000000     13.675298757543                 2
   149   150   151   152     1      0.000000000000     -0.070158252729                 1
   149   150   151   152     1    180.000000000000      0.044774738770                 2
   149   150   151   152     1      0.000000000000      0.303905454411                 3
   149   150   151   152     1    180.000000000000      0.121457745725                 4
   149   150   151   153     1      0.000000000000      0.152539076589                 1
   149   150   151   153     1    180.000000000000      1.025377422607                 2
   149   150   151   153     1      0.000000000000      0.305586866787                 3
   149   150   151   153     1    180.000000000000      0.119743068768                 4
   149   150   151   168     1      0.000000000000     -0.089846005632                 1
   149   150   151   168     1    180.000000000000     -0.726385765046                 2
   149   150   151   168     1      0.000000000000      0.304855809399                 3
   149   150   151   168     1    180.000000000000      0.254651465357                 4
   149   150   154   155     1    180.000000000000     13.675298757543                 2
   149   150   154   173     1    180.000000000000     13.675298757543                 2
   150   149   148   156     1    180.000000000000     13.675298757543                 2
   150   151   152   169     1      0.000000000000      0.602098025234                 3
   150   151   152   170     1      0.000000000000      0.602098025234                 3
   150   151   152   171     1      0.000000000000      0.602098025234                 3
   150   151   153   172     1      0.000000000000      2.638246099592                 1
   150   151   153   172     1    180.000000000000      1.620329060135                 2
   150   151   153   172     1      0.000000000000      0.702926496153                 3
   150   151   153   172     1    180.000000000000      0.212909892468                 4
   150   151   153   187     1      0.000000000000     -4.427376879530                 1
   150   151   153   187     1    180.000000000000      2.102535282719                 2
   150   151   153   187     1      0.000000000000     -0.905845293161                 3
   150   151   153   187     1    180.000000000000     -0.240682967189                 4
   150   154   155   156     1    180.000000000000     13.675298757543                 2
   150   154   155   174     1    180.000000000000     13.675298757543                 2
   151   150   149   167     1    180.000000000000     13.675298757543                 2
   151   150   154   155     1    180.000000000000     13.675298757543                 2
   151   150   154   173     1    180.000000000000     13.675298757543                 2
   151   153   187   186     1      0.000000000000      1.100354805524                 1
   151   153   187   186     1    180.000000000000      8.646884162812                 2
   151   153   187   186     1      0.000000000000      0.181319503665                 3
   151   153   187   186     1    180.000000000000     -0.654784659897                 4
   151   153   187   188     1      0.000000000000      1.152356303713                 1
   151   153   187   188     1    180.000000000000      8.168716894060                 2
   151   153   187   188     1      0.000000000000      1.547557798695                 3
   151   153   187   188     1    180.000000000000     -1.250137604945                 4
   152   151   150   154     1      0.000000000000     -0.070158252729                 1
   152   151   150   154     1    180.000000000000      0.044774738770                 2
   152   151   150   154     1      0.000000000000      0.303905454411                 3
   152   151   150   154     1    180.000000000000      0.121457745725                 4
   152   151   153   172     1      0.000000000000     -1.915364233785                 1
   152   151   153   172     1    180.000000000000      1.578159055314                 2
   152   151   153   172     1      0.000000000000      1.062851698947                 3
   152   151   153   172     1    180.000000000000      0.092312609929                 4
   152   151   153   187     1      0.000000000000     -0.724717884752                 1
   152   151   153   187     1    180.000000000000     -0.139100761909                 2
   152   151   153   187     1      0.000000000000     -1.473211025536                 3
   152   151   153   187     1    180.000000000000     -0.554956435681                 4
   153   151   150   154     1      0.000000000000      0.152539076589                 1
   153   151   150   154     1    180.000000000000      1.025377422607                 2
   153   151   150   154     1      0.000000000000      0.305586866787                 3
   153   151   150   154     1    180.000000000000      0.119743068768                 4
   153   151   152   169     1      0.000000000000      0.602098025234                 3
   153   151   152   170     1      0.000000000000      0.602098025234                 3
   153   151   152   171     1      0.000000000000      0.602098025234                 3
   153   187   186   183     1      0.000000000000      1.743057301093                 1
   153   187   186   183     1    180.000000000000     18.474260465881                 2
   153   187   186   183     1      0.000000000000     -0.184257290126                 3
   153   187   186   183     1    180.000000000000      1.923828007823                 4
   154   150   149   167     1    180.000000000000     13.675298757543                 2
   154   150   151   168     1      0.000000000000     -0.089846005632                 1
   154   150   151   168     1    180.000000000000     -0.726385765046                 2
   154   150   151   168     1      0.000000000000      0.304855809399                 3
   154   150   151   168     1    180.000000000000      0.254651465357                 4
   154   155   156   175     1    180.000000000000     13.675298757543                 2
   156   148   147   157     1    180.000000000000      5.177721731788                 2
   156   148   149   167     1    180.000000000000     13.675298757543                 2
   156   155   154   173     1    180.000000000000     13.675298757543                 2
   157   135   136   161     1    180.000000000000     13.675298757543                 2
   161   136   137   162     1    180.000000000000     13.675298757543                 2
   164   144   145   165     1    180.000000000000     13.675298757543                 2
   165   145   146   166     1    180.000000000000     13.675298757543                 2
   168   151   152   169     1      0.000000000000      0.953929629431                 3
   168   151   152   170     1      0.000000000000      0.953929629431                 3
   168   151   152   171     1      0.000000000000      0.953929629431                 3
   168   151   153   172     1      0.000000000000     -0.875935573302                 1
   168   151   153   172     1    180.000000000000      1.030080844710                 2
   168   151   153   172     1      0.000000000000      0.823297128914                 3
   168   151   153   172     1    180.000000000000     -0.708565540887                 4
   168   151   153   187     1      0.000000000000      2.333182440408                 1
   168   151   153   187     1    180.000000000000      0.696657902893                 2
   168   151   153   187     1      0.000000000000      0.223615200840                 3
   168   151   153   187     1    180.000000000000      0.377191765255                 4
   172   153   187   186     1      0.000000000000      1.941060693864                 1
   172   153   187   186     1    180.000000000000      8.494135609924                 2
   172   153   187   186     1      0.000000000000     -0.030822168585                 3
   172   153   187   186     1    180.000000000000     -1.430574908093                 4
   172   153   187   188     1      0.000000000000      4.786950223580                 1
   172   153   187   188     1    180.000000000000      1.813488565100                 2
   172   153   187   188     1      0.000000000000      1.030939946244                 3
   172   153   187   188     1    180.000000000000     -1.761919111952                 4
   173   154   155   174     1    180.000000000000     13.675298757543                 2
   174   155   156   175     1    180.000000000000     13.675298757543                 2
   182   183   184   192     1      0.000000000000      0.412282083439                 3
   182   183   184   193     1      0.000000000000      0.412282083439                 3
   182   183   184   194     1      0.000000000000      0.412282083439                 3
   182   183   185   195     1      0.000000000000      0.412282083439                 3
   182   183   185   196     1      0.000000000000      0.412282083439                 3
   182   183   185   197     1      0.000000000000      0.412282083439                 3
   182   183   186   187     1      0.000000000000      1.573905846646                 1
   182   183   186   187     1    180.000000000000      0.156902042053                 2
   182   183   186   187     1      0.000000000000     -1.754648652784                 3
   182   183   186   187     1    180.000000000000      1.316298037842                 4
   183   186   187   188     1      0.000000000000      3.893472141928                 1
   183   186   187   188     1    180.000000000000      4.732391099260                 2
   183   186   187   188     1      0.000000000000      0.572748903132                 3
   183   186   187   188     1    180.000000000000      0.785730187197                 4
   184   183   182   189     1      0.000000000000      0.412282083439                 3
   184   183   182   190     1      0.000000000000      0.412282083439                 3
   184   183   182   191     1      0.000000000000      0.412282083439                 3
   184   183   185   195     1      0.000000000000      0.412282083439                 3
   184   183   185   196     1      0.000000000000      0.412282083439                 3
   184   183   185   197     1      0.000000000000      0.412282083439                 3
   184   183   186   187     1      0.000000000000      1.573905846646                 1
   184   183   186   187     1    180.000000000000      0.156902042053                 2
   184   183   186   187     1      0.000000000000     -1.754648652784                 3
   184   183   186   187     1    180.000000000000      1.316298037842                 4
   185   183   182   189     1      0.000000000000      0.412282083439                 3
   185   183   182   190     1      0.000000000000      0.412282083439                 3
   185   183   182   191     1      0.000000000000      0.412282083439                 3
   185   183   184   192     1      0.000000000000      0.412282083439                 3
   185   183   184   193     1      0.000000000000      0.412282083439                 3
   185   183   184   194     1      0.000000000000      0.412282083439                 3
   185   183   186   187     1      0.000000000000      1.573905846646                 1
   185   183   186   187     1    180.000000000000      0.156902042053                 2
   185   183   186   187     1      0.000000000000     -1.754648652784                 3
   185   183   186   187     1    180.000000000000      1.316298037842                 4
   186   183   182   189     1      0.000000000000      0.548667589915                 3
   186   183   182   189     1      0.000000000000      1.826511275305                 1
   186   183   182   190     1      0.000000000000      0.548667589915                 3
   186   183   182   190     1      0.000000000000      1.826511275305                 1
   186   183   182   191     1      0.000000000000      0.548667589915                 3
   186   183   182   191     1      0.000000000000      1.826511275305                 1
   186   183   184   192     1      0.000000000000      0.548667589915                 3
   186   183   184   192     1      0.000000000000      1.826511275305                 1
   186   183   184   193     1      0.000000000000      0.548667589915                 3
   186   183   184   193     1      0.000000000000      1.826511275305                 1
   186   183   184   194     1      0.000000000000      0.548667589915                 3
   186   183   184   194     1      0.000000000000      1.826511275305                 1
   186   183   185   195     1      0.000000000000      0.548667589915                 3
   186   183   185   195     1      0.000000000000      1.826511275305                 1
   186   183   185   196     1      0.000000000000      0.548667589915                 3
   186   183   185   196     1      0.000000000000      1.826511275305                 1
   186   183   185   197     1      0.000000000000      0.548667589915                 3
   186   183   185   197     1      0.000000000000      1.826511275305                 1
    61    60    62    79     4    180.000000000000      7.295209241758                 2
    21    40    54    19     4    180.000000000000      1.752067434103                 2
   155   154   156   174     4    180.000000000000      7.295209241758                 2
   101   100   102   121     4    180.000000000000      7.295209241758                 2
   153   172   187   151     4    180.000000000000      1.752067434103                 2
   145   165   144   146     4    180.000000000000      7.295209241758                 2
    10   178     9    11     4    180.000000000000     18.013091641645                 2
    18    17    19    22     4    180.000000000000      7.295209241758                 2
   157   147   176   135     4    180.000000000000      7.295209241758                 2
    50    59    49    51     4    180.000000000000      7.295209241758                 2
    69    59    88    47     4    180.000000000000      7.295209241758                 2
   187   188   153   186     4    180.000000000000     18.013091641645                 2
     5     4     6    30     4    180.000000000000      7.295209241758                 2
    60    61    68    59     4    180.000000000000      7.295209241758                 2
    61    62    79    60     4    180.000000000000      7.295209241758                 2
    65    84    98    63     4    180.000000000000      1.752067434103                 2
    16    15    17    24     4    180.000000000000      7.295209241758                 2
   111   110   112   130     4    180.000000000000      7.295209241758                 2
   109   142   107   128     4    180.000000000000      1.752067434103                 2
   144   145   164   141     4    180.000000000000      7.295209241758                 2
   157   135   147   176     4    180.000000000000      7.295209241758                 2
   141   140   142   144     4    180.000000000000      7.295209241758                 2
    61    79    60    62     4    180.000000000000      7.295209241758                 2
    58    51    57    78     4    180.000000000000      7.295209241758                 2
    91   113    90    92     4    180.000000000000      7.295209241758                 2
    49    50    74    48     4    180.000000000000      7.295209241758                 2
   110   129   106   111     4    180.000000000000      7.295209241758                 2
   156   148   155   175     4    180.000000000000      7.295209241758                 2
   136   137   161   135     4    180.000000000000      7.295209241758                 2
   102   122    95   101     4    180.000000000000      7.295209241758                 2
    56    76    53    57     4    180.000000000000      7.295209241758                 2
    93    92    94   118     4    180.000000000000      7.295209241758                 2
    60    59    61    68     4    180.000000000000      7.295209241758                 2
    13    12    14    33     4    180.000000000000      7.295209241758                 2
    24    23    43    16     4    180.000000000000      7.295209241758                 2
     7     6     8    14     4    180.000000000000      7.295209241758                 2
   105   123   104   106     4    180.000000000000      7.295209241758                 2
    23    42    22    24     4    180.000000000000      7.295209241758                 2
   149   150   167   148     4    180.000000000000      7.295209241758                 2
   187   153   186   188     4    180.000000000000     18.013091641645                 2
     4     5    29     3     4    180.000000000000      7.295209241758                 2
     3    25     2     4     4    180.000000000000      7.295209241758                 2
     5     6    30     4     4    180.000000000000      7.295209241758                 2
    53    56    52    54     4    180.000000000000      7.295209241758                 2
    94    93    95   103     4    180.000000000000      7.295209241758                 2
   106   107   110   105     4    180.000000000000      7.295209241758                 2
   155   174   154   156     4    180.000000000000      7.295209241758                 2
   101   102   121   100     4    180.000000000000      7.295209241758                 2
    95    96   102    94     4    180.000000000000      7.295209241758                 2
    22    18    23    41     4    180.000000000000      7.295209241758                 2
    51    58    50    52     4    180.000000000000      7.295209241758                 2
    52    75    51    53     4    180.000000000000      7.295209241758                 2
    10     9    11   178     4    180.000000000000     18.013091641645                 2
   187   186   188   153     4    180.000000000000     18.013091641645                 2
    22    23    41    18     4    180.000000000000      7.295209241758                 2
   153   187   151   172     4    180.000000000000      1.752067434103                 2
   147   148   157   138     4    180.000000000000      7.295209241758                 2
    67    66    68    86     4    180.000000000000      7.295209241758                 2
    57    56    58    77     4    180.000000000000      7.295209241758                 2
    53    54    56    52     4    180.000000000000      7.295209241758                 2
     5    30     4     6     4    180.000000000000      7.295209241758                 2
    48    49    73    47     4    180.000000000000      7.295209241758                 2
     8    31     7     9     4    180.000000000000      7.295209241758                 2
    18    19    22    17     4    180.000000000000      7.295209241758                 2
   145   146   165   144     4    180.000000000000      7.295209241758                 2
   156   155   175   148     4    180.000000000000      7.295209241758                 2
   142   143   109   141     4    180.000000000000      7.295209241758                 2
   113   132    91   103     4    180.000000000000      7.295209241758                 2
    68    60    67    87     4    180.000000000000      7.295209241758                 2
   100   120    97   101     4    180.000000000000      7.295209241758                 2
    21    19    40    54     4    180.000000000000      1.752067434103                 2
     8     9    31     7     4    180.000000000000      7.295209241758                 2
    94    95   103    93     4    180.000000000000      7.295209241758                 2
   142   109   141   143     4    180.000000000000      7.295209241758                 2
    51    52    58    50     4    180.000000000000      7.295209241758                 2
    14     7    13    34     4    180.000000000000      7.295209241758                 2
   138   139   147   137     4    180.000000000000      7.295209241758                 2
   149   167   148   150     4    180.000000000000      7.295209241758                 2
    15    16    25     6     4    180.000000000000      7.295209241758                 2
    92    91    93   117     4    180.000000000000      7.295209241758                 2
   154   155   173   150     4    180.000000000000      7.295209241758                 2
    17    18    35    16     4    180.000000000000      7.295209241758                 2
   102    95   101   122     4    180.000000000000      7.295209241758                 2
    93    94   118    92     4    180.000000000000      7.295209241758                 2
   110   111   129   106     4    180.000000000000      7.295209241758                 2
    59    50    60    69     4    180.000000000000      7.295209241758                 2
   109   107   128   142     4    180.000000000000      1.752067434103                 2
   148   156   147   149     4    180.000000000000      7.295209241758                 2
     4    29     3     5     4    180.000000000000      7.295209241758                 2
    22    41    18    23     4    180.000000000000      7.295209241758                 2
     6    15     5     7     4    180.000000000000      7.295209241758                 2
   150   151   154   149     4    180.000000000000      7.295209241758                 2
    47    48    69    46     4    180.000000000000      7.295209241758                 2
   157   176   135   147     4    180.000000000000      7.295209241758                 2
    15    25     6    16     4    180.000000000000      7.295209241758                 2
    69    47    59    88     4    180.000000000000      7.295209241758                 2
    59    60    69    50     4    180.000000000000      7.295209241758                 2
    94   103    93    95     4    180.000000000000      7.295209241758                 2
    50    49    51    59     4    180.000000000000      7.295209241758                 2
   155   156   174   154     4    180.000000000000      7.295209241758                 2
    14    13    34     7     4    180.000000000000      7.295209241758                 2
   139   138   140   146     4    180.000000000000      7.295209241758                 2
    15     6    16    25     4    180.000000000000      7.295209241758                 2
    12     9    13    32     4    180.000000000000      7.295209241758                 2
    91    90    92   113     4    180.000000000000      7.295209241758                 2
    50    51    59    49     4    180.000000000000      7.295209241758                 2
    10    11   178     9     4    180.000000000000     18.013091641645                 2
    97    98   100    96     4    180.000000000000      7.295209241758                 2
     3     4    25     2     4    180.000000000000      7.295209241758                 2
    52    53    75    51     4    180.000000000000      7.295209241758                 2
   145   144   146   165     4    180.000000000000      7.295209241758                 2
    23    24    42    22     4    180.000000000000      7.295209241758                 2
    23    22    24    42     4    180.000000000000      7.295209241758                 2
   141   144   140   142     4    180.000000000000      7.295209241758                 2
   104   103   105   112     4    180.000000000000      7.295209241758                 2
   103   113    94   104     4    180.000000000000      7.295209241758                 2
   102   101   122    95     4    180.000000000000      7.295209241758                 2
    57    77    56    58     4    180.000000000000      7.295209241758                 2
    52    51    53    75     4    180.000000000000      7.295209241758                 2
    13    14    33    12     4    180.000000000000      7.295209241758                 2
   146   145   166   139     4    180.000000000000      7.295209241758                 2
    68    87    60    67     4    180.000000000000      7.295209241758                 2
   138   147   137   139     4    180.000000000000      7.295209241758                 2
   103    94   104   113     4    180.000000000000      7.295209241758                 2
    58    57    78    51     4    180.000000000000      7.295209241758                 2
   103   104   113    94     4    180.000000000000      7.295209241758                 2
    95    94    96   102     4    180.000000000000      7.295209241758                 2
    69    88    47    59     4    180.000000000000      7.295209241758                 2
    17    16    18    35     4    180.000000000000      7.295209241758                 2
   105   104   106   123     4    180.000000000000      7.295209241758                 2
    62    61    63    66     4    180.000000000000      7.295209241758                 2
    91    92   113    90     4    180.000000000000      7.295209241758                 2
    67    86    66    68     4    180.000000000000      7.295209241758                 2
   153   151   172   187     4    180.000000000000      1.752067434103                 2
    96    97   119    95     4    180.000000000000      7.295209241758                 2
    49    74    48    50     4    180.000000000000      7.295209241758                 2
    14    34     7    13     4    180.000000000000      7.295209241758                 2
   147   138   148   157     4    180.000000000000      7.295209241758                 2
   112   111   131   104     4    180.000000000000      7.295209241758                 2
   113   103   132    91     4    180.000000000000      7.295209241758                 2
   150   154   149   151     4    180.000000000000      7.295209241758                 2
    58    78    51    57     4    180.000000000000      7.295209241758                 2
    59    69    50    60     4    180.000000000000      7.295209241758                 2
     9    12     8    10     4    180.000000000000      7.295209241758                 2
   144   141   145   164     4    180.000000000000      7.295209241758                 2
   139   140   146   138     4    180.000000000000      7.295209241758                 2
   104   112   103   105     4    180.000000000000      7.295209241758                 2
   137   162   136   138     4    180.000000000000      7.295209241758                 2
    24    43    16    23     4    180.000000000000      7.295209241758                 2
   139   146   138   140     4    180.000000000000      7.295209241758                 2
   136   161   135   137     4    180.000000000000      7.295209241758                 2
   148   147   149   156     4    180.000000000000      7.295209241758                 2
   154   173   150   155     4    180.000000000000      7.295209241758                 2
    92   117    91    93     4    180.000000000000      7.295209241758                 2
   156   175   148   155     4    180.000000000000      7.295209241758                 2
    92    93   117    91     4    180.000000000000      7.295209241758                 2
    62    66    61    63     4    180.000000000000      7.295209241758                 2
    93   118    92    94     4    180.000000000000      7.295209241758                 2
   100   101   120    97     4    180.000000000000      7.295209241758                 2
     9     8    10    12     4    180.000000000000      7.295209241758                 2
   135   136   157   134     4    180.000000000000      7.295209241758                 2
   135   134   136   157     4    180.000000000000      7.295209241758                 2
    13    33    12    14     4    180.000000000000      7.295209241758                 2
    65    63    84    98     4    180.000000000000      1.752067434103                 2
   135   157   134   136     4    180.000000000000      7.295209241758                 2
    12    13    32     9     4    180.000000000000      7.295209241758                 2
    12    32     9    13     4    180.000000000000      7.295209241758                 2
    96   119    95    97     4    180.000000000000      7.295209241758                 2
   149   148   150   167     4    180.000000000000      7.295209241758                 2
    56    57    76    53     4    180.000000000000      7.295209241758                 2
    62    63    66    61     4    180.000000000000      7.295209241758                 2
    25    44     3    15     4    180.000000000000      7.295209241758                 2
     8     7     9    31     4    180.000000000000      7.295209241758                 2
    53    52    54    56     4    180.000000000000      7.295209241758                 2
    54    55    21    53     4    180.000000000000      7.295209241758                 2
    98    65    97    99     4    180.000000000000      7.295209241758                 2
    60    68    59    61     4    180.000000000000      7.295209241758                 2
    47    69    46    48     4    180.000000000000      7.295209241758                 2
   111   130   110   112     4    180.000000000000      7.295209241758                 2
   113    91   103   132     4    180.000000000000      7.295209241758                 2
    48    47    49    73     4    180.000000000000      7.295209241758                 2
    66    67    85    62     4    180.000000000000      7.295209241758                 2
   112   131   104   111     4    180.000000000000      7.295209241758                 2
   140   163   139   141     4    180.000000000000      7.295209241758                 2
   137   138   162   136     4    180.000000000000      7.295209241758                 2
    49    48    50    74     4    180.000000000000      7.295209241758                 2
    57    58    77    56     4    180.000000000000      7.295209241758                 2
     4     3     5    29     4    180.000000000000      7.295209241758                 2
     6     5     7    15     4    180.000000000000      7.295209241758                 2
   140   141   163   139     4    180.000000000000      7.295209241758                 2
    95   102    94    96     4    180.000000000000      7.295209241758                 2
    56    53    57    76     4    180.000000000000      7.295209241758                 2
    16    17    24    15     4    180.000000000000      7.295209241758                 2
    98    97    99    65     4    180.000000000000      7.295209241758                 2
   146   166   139   145     4    180.000000000000      7.295209241758                 2
   140   139   141   163     4    180.000000000000      7.295209241758                 2
    25    15    44     3     4    180.000000000000      7.295209241758                 2
   101   121   100   102     4    180.000000000000      7.295209241758                 2
   110   106   111   129     4    180.000000000000      7.295209241758                 2
    54    21    53    55     4    180.000000000000      7.295209241758                 2
   142   141   143   109     4    180.000000000000      7.295209241758                 2
   147   157   138   148     4    180.000000000000      7.295209241758                 2
    18    22    17    19     4    180.000000000000      7.295209241758                 2
   138   137   139   147     4    180.000000000000      7.295209241758                 2
    68    67    87    60     4    180.000000000000      7.295209241758                 2
    97    96    98   100     4    180.000000000000      7.295209241758                 2
    48    73    47    49     4    180.000000000000      7.295209241758                 2
     7     8    14     6     4    180.000000000000      7.295209241758                 2
     9    10    12     8     4    180.000000000000      7.295209241758                 2
   109   128   142   107     4    180.000000000000      1.752067434103                 2
    96    95    97   119     4    180.000000000000      7.295209241758                 2
    65    98    63    84     4    180.000000000000      1.752067434103                 2
    98    99    65    97     4    180.000000000000      7.295209241758                 2
   105   106   123   104     4    180.000000000000      7.295209241758                 2
     7    14     6     8     4    180.000000000000      7.295209241758                 2
     6     7    15     5     4    180.000000000000      7.295209241758                 2
    66    62    67    85     4    180.000000000000      7.295209241758                 2
   104   105   112   103     4    180.000000000000      7.295209241758                 2
    25     3    15    44     4    180.000000000000      7.295209241758                 2
   106   110   105   107     4    180.000000000000      7.295209241758                 2
   144   164   141   145     4    180.000000000000      7.295209241758                 2
   112   104   111   131     4    180.000000000000      7.295209241758                 2
    67    68    86    66     4    180.000000000000      7.295209241758                 2
   136   135   137   161     4    180.000000000000      7.295209241758                 2
   154   150   155   173     4    180.000000000000      7.295209241758                 2
    97   100    96    98     4    180.000000000000      7.295209241758                 2
    54    53    55    21     4    180.000000000000      7.295209241758                 2
     3     2     4    25     4    180.000000000000      7.295209241758                 2
    16    24    15    17     4    180.000000000000      7.295209241758                 2
    47    46    48    69     4    180.000000000000      7.295209241758                 2
   137   136   138   162     4    180.000000000000      7.295209241758                 2
    21    54    19    40     4    180.000000000000      1.752067434103                 2
    51    50    52    58     4    180.000000000000      7.295209241758                 2
   146   139   145   166     4    180.000000000000      7.295209241758                 2
   106   105   107   110     4    180.000000000000      7.295209241758                 2
    24    16    23    43     4    180.000000000000      7.295209241758                 2
   111   112   130   110     4    180.000000000000      7.295209241758                 2
   148   149   156   147     4    180.000000000000      7.295209241758                 2
    17    35    16    18     4    180.000000000000      7.295209241758                 2
    66    85    62    67     4    180.000000000000      7.295209241758                 2
   150   149   151   154     4    180.000000000000      7.295209241758                 2
   141   142   144   140     4    180.000000000000      7.295209241758                 2
   100    97   101   120     4    180.000000000000      7.295209241758                 2

[ settles ]
;i  funct   dOH  dHH


[ exclusions ]
;ai    aj


[ system ]
;name
FOO

[ molecules ]
;name	number
mom_tetramer.pdb	1

