Generated by Interchange
197
    1MOP     C1    1  -0.264   0.546   0.088
    1MOP     O2    2  -0.150   0.466   0.058
    1MOP     C3    3  -0.171   0.331   0.046
    1MOP     C4    4  -0.292   0.265   0.063
    1MOP     C5    5  -0.298   0.126   0.050
    1MOP     C6    6  -0.183   0.049   0.020
    1MOP     C7    7  -0.195  -0.098   0.012
    1MOP     C8    8  -0.284  -0.160  -0.078
    1MOP     C9    9  -0.293  -0.300  -0.086
    1MOP    C10   10  -0.399  -0.358  -0.173
    1MOP    O11   11  -0.474  -0.292  -0.242
    1MOP    C12   12  -0.211  -0.380  -0.005
    1MOP    C13   13  -0.123  -0.320   0.085
    1MOP    C14   14  -0.117  -0.181   0.095
    1MOP    C15   15  -0.060   0.118  -0.001
    1MOP    C16   16   0.063   0.047  -0.041
    1MOP    C17   17   0.182   0.055   0.034
    1MOP    C18   18   0.294  -0.023   0.002
    1MOP    C19   19   0.421  -0.014   0.085
    1MOP    C20   20   0.449  -0.143   0.163
    1MOP    N21   21   0.542   0.032   0.016
    1MOP    C22   22   0.282  -0.112  -0.105
    1MOP    C23   23   0.169  -0.114  -0.187
    1MOP    C24   24   0.062  -0.033  -0.156
    1MOP    C25   25  -0.057   0.258   0.014
    1MOP    H26   26  -0.307   0.520   0.185
    1MOP    H27   27  -0.338   0.540   0.008
    1MOP    H28   28  -0.230   0.650   0.094
    1MOP    H29   29  -0.384   0.318   0.087
    1MOP    H30   30  -0.394   0.076   0.064
    1MOP    H31   31  -0.347  -0.098  -0.142
    1MOP    H32   32  -0.217  -0.488  -0.009
    1MOP    H33   33  -0.061  -0.382   0.149
    1MOP    H34   34  -0.048  -0.137   0.166
    1MOP    H35   35   0.184   0.119   0.122
    1MOP    H36   36   0.404   0.064   0.161
    1MOP    H37   37   0.534  -0.130   0.230
    1MOP    H38   38   0.363  -0.172   0.224
    1MOP    H39   39   0.473  -0.227   0.096
    1MOP    H40   40   0.604   0.077   0.080
    1MOP    H41   41   0.364  -0.181  -0.129
    1MOP    H42   42   0.167  -0.180  -0.272
    1MOP    H43   43  -0.026  -0.037  -0.220
    1MOP    H44   44   0.037   0.311  -0.001
    2MOP    C45   45   1.127  -0.645  -0.604
    2MOP    O46   46   1.125  -0.661  -0.463
    2MOP    C47   47   1.068  -0.561  -0.390
    2MOP    C48   48   1.014  -0.443  -0.440
    2MOP    C49   49   0.962  -0.347  -0.353
    2MOP    C50   50   0.962  -0.365  -0.213
    2MOP    C51   51   0.914  -0.255  -0.126
    2MOP    C52   52   0.786  -0.199  -0.142
    2MOP    C53   53   0.740  -0.095  -0.059
    2MOP    C54   54   0.602  -0.043  -0.084
    2MOP    O55   55   0.550  -0.069  -0.191
    2MOP    C56   56   0.822  -0.049   0.045
    2MOP    C57   57   0.949  -0.102   0.061
    2MOP    C58   58   0.995  -0.202  -0.024
    2MOP    C59   59   1.015  -0.488  -0.162
    2MOP    C60   60   1.010  -0.521  -0.017
    2MOP    C61   61   1.128  -0.550   0.055
    2MOP    C62   62   1.126  -0.567   0.195
    2MOP    C63   63   1.254  -0.599   0.270
    2MOP    C64   64   1.298  -0.484   0.362
    2MOP    N65   65   1.257  -0.726   0.343
    2MOP    C66   66   1.004  -0.549   0.261
    2MOP    C67   67   0.885  -0.530   0.191
    2MOP    C68   68   0.888  -0.518   0.052
    2MOP    C69   69   1.067  -0.582  -0.252
    2MOP    H70   70   1.184  -0.557  -0.634
    2MOP    H71   71   1.025  -0.642  -0.644
    2MOP    H72   72   1.176  -0.733  -0.647
    2MOP    H73   73   1.011  -0.422  -0.546
    2MOP    H74   74   0.922  -0.255  -0.395
    2MOP    H75   75   0.720  -0.238  -0.219
    2MOP    H76   76   0.790   0.029   0.114
    2MOP    H77   77   1.013  -0.066   0.142
    2MOP    H78   78   1.096  -0.241  -0.010
    2MOP    H79   79   1.222  -0.556   0.001
    2MOP    H80   80   1.333  -0.610   0.196
    2MOP    H81   81   1.396  -0.505   0.405
    2MOP    H82   82   1.304  -0.389   0.307
    2MOP    H83   83   1.228  -0.470   0.446
    2MOP    H84   84   1.351  -0.761   0.350
    2MOP    H85   85   0.998  -0.552   0.369
    2MOP    H86   86   0.791  -0.524   0.244
    2MOP    H87   87   0.795  -0.502  -0.001
    2MOP    H88   88   1.108  -0.676  -0.213
    3MOP    C89   89   0.776  -0.842   1.314
    3MOP    O90   90   0.893  -0.763   1.301
    3MOP    C91   91   0.961  -0.770   1.182
    3MOP    C92   92   0.927  -0.850   1.073
    3MOP    C93   93   1.008  -0.850   0.959
    3MOP    C94   94   1.124  -0.771   0.950
    3MOP    C95   95   1.210  -0.783   0.829
    3MOP    C96   96   1.159  -0.762   0.700
    3MOP    C97   97   1.241  -0.773   0.585
    3MOP    C98   98   1.176  -0.751   0.453
    3MOP    O99   99   1.053  -0.754   0.448
    3MOP   C100  100   1.377  -0.800   0.601
    3MOP   C101  101   1.429  -0.821   0.728
    3MOP   C102  102   1.346  -0.815   0.840
    3MOP   C103  103   1.155  -0.685   1.059
    3MOP   C104  104   1.269  -0.590   1.056
    3MOP   C105  105   1.372  -0.594   1.152
    3MOP   C106  106   1.486  -0.513   1.140
    3MOP   C107  107   1.596  -0.520   1.244
    3MOP   C108  108   1.725  -0.580   1.188
    3MOP   N109  109   1.624  -0.395   1.317
    3MOP   C110  110   1.497  -0.433   1.026
    3MOP   C111  111   1.392  -0.420   0.935
    3MOP   C112  112   1.278  -0.497   0.951
    3MOP   C113  113   1.073  -0.688   1.174
    3MOP   H114  114   0.800  -0.949   1.306
    3MOP   H115  115   0.700  -0.813   1.241
    3MOP   H116  116   0.735  -0.824   1.414
    3MOP   H117  117   0.840  -0.914   1.074
    3MOP   H118  118   0.980  -0.915   0.876
    3MOP   H119  119   1.054  -0.735   0.688
    3MOP   H120  120   1.445  -0.807   0.517
    3MOP   H121  121   1.535  -0.843   0.740
    3MOP   H122  122   1.390  -0.833   0.938
    3MOP   H123  123   1.364  -0.664   1.235
    3MOP   H124  124   1.562  -0.588   1.323
    3MOP   H125  125   1.799  -0.592   1.268
    3MOP   H126  126   1.707  -0.679   1.145
    3MOP   H127  127   1.770  -0.517   1.111
    3MOP   H128  128   1.659  -0.415   1.409
    3MOP   H129  129   1.587  -0.375   1.007
    3MOP   H130  130   1.400  -0.350   0.852
    3MOP   H131  131   1.197  -0.487   0.879
    3MOP   H132  132   1.097  -0.624   1.259
    4MOP   C133  133   2.229   0.396   0.880
    4MOP   O134  134   2.288   0.272   0.916
    4MOP   C135  135   2.213   0.187   0.992
    4MOP   C136  136   2.082   0.209   1.035
    4MOP   C137  137   2.018   0.113   1.114
    4MOP   C138  138   2.082  -0.006   1.154
    4MOP   C139  139   2.010  -0.100   1.244
    4MOP   C140  140   1.882  -0.149   1.212
    4MOP   C141  141   1.814  -0.238   1.298
    4MOP   C142  142   1.679  -0.284   1.254
    4MOP   O143  143   1.623  -0.222   1.166
    4MOP   C144  144   1.877  -0.283   1.414
    4MOP   C145  145   2.003  -0.234   1.448
    4MOP   C146  146   2.068  -0.142   1.365
    4MOP   C147  147   2.214  -0.030   1.106
    4MOP   C148  148   2.286  -0.156   1.133
    4MOP   C149  149   2.410  -0.158   1.201
    4MOP   C150  150   2.476  -0.278   1.232
    4MOP   C151  151   2.608  -0.280   1.309
    4MOP   C152  152   2.588  -0.312   1.457
    4MOP   N153  153   2.711  -0.362   1.246
    4MOP   C154  154   2.412  -0.397   1.192
    4MOP   C155  155   2.292  -0.398   1.122
    4MOP   C156  156   2.230  -0.278   1.092
    4MOP   C157  157   2.277   0.068   1.027
    4MOP   H158  158   2.205   0.456   0.968
    4MOP   H159  159   2.142   0.381   0.816
    4MOP   H160  160   2.303   0.452   0.822
    4MOP   H161  161   2.028   0.299   1.009
    4MOP   H162  162   1.916   0.134   1.148
    4MOP   H163  163   1.836  -0.119   1.118
    4MOP   H164  164   1.831  -0.353   1.482
    4MOP   H165  165   2.052  -0.268   1.539
    4MOP   H166  166   2.165  -0.105   1.394
    4MOP   H167  167   2.454  -0.063   1.232
    4MOP   H168  168   2.649  -0.178   1.304
    4MOP   H169  169   2.684  -0.317   1.509
    4MOP   H170  170   2.527  -0.235   1.506
    4MOP   H171  171   2.535  -0.406   1.473
    4MOP   H172  172   2.785  -0.315   1.195
    4MOP   H173  173   2.457  -0.493   1.214
    4MOP   H174  174   2.247  -0.492   1.093
    4MOP   H175  175   2.135  -0.280   1.038
    4MOP   H176  176   2.378   0.051   0.990
    5CAP   C177  177  -0.540  -0.545  -0.168
    5CAP   O178  178  -0.409  -0.491  -0.147
    5CAP   H179  179  -0.599  -0.524  -0.079
    5CAP   H180  180  -0.530  -0.653  -0.180
    5CAP   H181  181  -0.589  -0.504  -0.257
    6CAP   C182  182   2.582  -0.709   1.502
    6CAP   C183  183   2.632  -0.697   1.357
    6CAP   C184  184   2.763  -0.776   1.343
    6CAP   C185  185   2.524  -0.750   1.263
    6CAP   O186  186   2.649  -0.555   1.338
    6CAP   C187  187   2.714  -0.498   1.235
    6CAP   O188  188   2.772  -0.556   1.145
    6CAP   H189  189   2.563  -0.812   1.530
    6CAP   H190  190   2.656  -0.666   1.572
    6CAP   H191  191   2.490  -0.651   1.516
    6CAP   H192  192   2.841  -0.732   1.406
    6CAP   H193  193   2.800  -0.774   1.240
    6CAP   H194  194   2.749  -0.880   1.371
    6CAP   H195  195   2.430  -0.694   1.277
    6CAP   H196  196   2.552  -0.736   1.158
    6CAP   H197  197   2.502  -0.855   1.280
  5.0000000  5.0000000  5.0000000
