Generated by Interchange
197
    1MOP     C1    1  -0.265   0.546   0.088
    1MOP     O2    2  -0.152   0.464   0.059
    1MOP     C3    3  -0.173   0.330   0.047
    1MOP     C4    4  -0.294   0.263   0.062
    1MOP     C5    5  -0.299   0.124   0.048
    1MOP     C6    6  -0.184   0.048   0.019
    1MOP     C7    7  -0.195  -0.100   0.011
    1MOP     C8    8  -0.283  -0.162  -0.080
    1MOP     C9    9  -0.292  -0.302  -0.088
    1MOP    C10   10  -0.397  -0.360  -0.175
    1MOP    O11   11  -0.473  -0.293  -0.243
    1MOP    C12   12  -0.211  -0.382  -0.006
    1MOP    C13   13  -0.123  -0.322   0.084
    1MOP    C14   14  -0.117  -0.183   0.094
    1MOP    C15   15  -0.061   0.117  -0.000
    1MOP    C16   16   0.063   0.047  -0.041
    1MOP    C17   17   0.180   0.055   0.036
    1MOP    C18   18   0.294  -0.022   0.004
    1MOP    C19   19   0.421  -0.013   0.087
    1MOP    C20   20   0.449  -0.142   0.164
    1MOP    N21   21   0.541   0.033   0.016
    1MOP    C22   22   0.283  -0.110  -0.104
    1MOP    C23   23   0.173  -0.112  -0.186
    1MOP    C24   24   0.064  -0.033  -0.156
    1MOP    C25   25  -0.058   0.257   0.016
    1MOP    H26   26  -0.309   0.521   0.184
    1MOP    H27   27  -0.339   0.540   0.007
    1MOP    H28   28  -0.230   0.650   0.093
    1MOP    H29   29  -0.386   0.316   0.084
    1MOP    H30   30  -0.395   0.074   0.062
    1MOP    H31   31  -0.345  -0.101  -0.144
    1MOP    H32   32  -0.216  -0.490  -0.010
    1MOP    H33   33  -0.061  -0.384   0.148
    1MOP    H34   34  -0.048  -0.139   0.166
    1MOP    H35   35   0.183   0.120   0.124
    1MOP    H36   36   0.405   0.066   0.163
    1MOP    H37   37   0.536  -0.129   0.230
    1MOP    H38   38   0.364  -0.172   0.226
    1MOP    H39   39   0.472  -0.225   0.096
    1MOP    H40   40   0.604   0.080   0.078
    1MOP    H41   41   0.365  -0.179  -0.127
    1MOP    H42   42   0.172  -0.177  -0.274
    1MOP    H43   43  -0.024  -0.037  -0.221
    1MOP    H44   44   0.036   0.310   0.002
    2MOP    C45   45   1.126  -0.648  -0.603
    2MOP    O46   46   1.123  -0.663  -0.462
    2MOP    C47   47   1.068  -0.562  -0.389
    2MOP    C48   48   1.012  -0.445  -0.439
    2MOP    C49   49   0.961  -0.348  -0.352
    2MOP    C50   50   0.963  -0.366  -0.213
    2MOP    C51   51   0.914  -0.256  -0.125
    2MOP    C52   52   0.785  -0.202  -0.140
    2MOP    C53   53   0.738  -0.098  -0.056
    2MOP    C54   54   0.602  -0.045  -0.082
    2MOP    O55   55   0.550  -0.072  -0.190
    2MOP    C56   56   0.820  -0.051   0.047
    2MOP    C57   57   0.948  -0.103   0.062
    2MOP    C58   58   0.995  -0.202  -0.024
    2MOP    C59   59   1.016  -0.488  -0.161
    2MOP    C60   60   1.013  -0.520  -0.017
    2MOP    C61   61   1.130  -0.550   0.055
    2MOP    C62   62   1.128  -0.568   0.194
    2MOP    C63   63   1.255  -0.600   0.271
    2MOP    C64   64   1.296  -0.485   0.363
    2MOP    N65   65   1.256  -0.728   0.343
    2MOP    C66   66   1.005  -0.551   0.260
    2MOP    C67   67   0.887  -0.532   0.190
    2MOP    C68   68   0.890  -0.518   0.052
    2MOP    C69   69   1.068  -0.582  -0.251
    2MOP    H70   70   1.187  -0.561  -0.632
    2MOP    H71   71   1.025  -0.641  -0.644
    2MOP    H72   72   1.173  -0.737  -0.645
    2MOP    H73   73   1.008  -0.425  -0.546
    2MOP    H74   74   0.919  -0.256  -0.394
    2MOP    H75   75   0.718  -0.243  -0.216
    2MOP    H76   76   0.788   0.025   0.117
    2MOP    H77   77   1.012  -0.066   0.142
    2MOP    H78   78   1.096  -0.239  -0.010
    2MOP    H79   79   1.225  -0.555   0.001
    2MOP    H80   80   1.335  -0.611   0.197
    2MOP    H81   81   1.394  -0.505   0.408
    2MOP    H82   82   1.303  -0.390   0.309
    2MOP    H83   83   1.225  -0.471   0.445
    2MOP    H84   84   1.350  -0.763   0.350
    2MOP    H85   85   0.999  -0.555   0.368
    2MOP    H86   86   0.793  -0.528   0.243
    2MOP    H87   87   0.798  -0.501  -0.002
    2MOP    H88   88   1.109  -0.676  -0.213
    3MOP    C89   89   0.775  -0.839   1.314
    3MOP    O90   90   0.892  -0.760   1.301
    3MOP    C91   91   0.960  -0.768   1.182
    3MOP    C92   92   0.926  -0.846   1.073
    3MOP    C93   93   1.007  -0.846   0.958
    3MOP    C94   94   1.124  -0.769   0.951
    3MOP    C95   95   1.210  -0.780   0.830
    3MOP    C96   96   1.159  -0.760   0.700
    3MOP    C97   97   1.240  -0.772   0.586
    3MOP    C98   98   1.175  -0.751   0.453
    3MOP    O99   99   1.053  -0.755   0.448
    3MOP   C100  100   1.376  -0.798   0.601
    3MOP   C101  101   1.429  -0.817   0.728
    3MOP   C102  102   1.347  -0.811   0.840
    3MOP   C103  103   1.156  -0.684   1.061
    3MOP   C104  104   1.270  -0.590   1.058
    3MOP   C105  105   1.373  -0.596   1.153
    3MOP   C106  106   1.488  -0.516   1.142
    3MOP   C107  107   1.597  -0.521   1.245
    3MOP   C108  108   1.727  -0.580   1.190
    3MOP   N109  109   1.624  -0.395   1.317
    3MOP   C110  110   1.498  -0.433   1.028
    3MOP   C111  111   1.393  -0.418   0.940
    3MOP   C112  112   1.278  -0.495   0.955
    3MOP   C113  113   1.074  -0.687   1.176
    3MOP   H114  114   0.798  -0.946   1.306
    3MOP   H115  115   0.699  -0.809   1.241
    3MOP   H116  116   0.734  -0.821   1.414
    3MOP   H117  117   0.838  -0.909   1.072
    3MOP   H118  118   0.979  -0.910   0.875
    3MOP   H119  119   1.053  -0.734   0.688
    3MOP   H120  120   1.444  -0.804   0.516
    3MOP   H121  121   1.535  -0.838   0.740
    3MOP   H122  122   1.391  -0.828   0.938
    3MOP   H123  123   1.364  -0.665   1.235
    3MOP   H124  124   1.564  -0.588   1.325
    3MOP   H125  125   1.800  -0.593   1.272
    3MOP   H126  126   1.710  -0.678   1.144
    3MOP   H127  127   1.774  -0.515   1.116
    3MOP   H128  128   1.660  -0.415   1.408
    3MOP   H129  129   1.588  -0.375   1.008
    3MOP   H130  130   1.400  -0.347   0.858
    3MOP   H131  131   1.197  -0.486   0.884
    3MOP   H132  132   1.098  -0.624   1.261
    4MOP   C133  133   2.230   0.397   0.879
    4MOP   O134  134   2.289   0.273   0.917
    4MOP   C135  135   2.213   0.188   0.992
    4MOP   C136  136   2.083   0.210   1.035
    4MOP   C137  137   2.018   0.114   1.114
    4MOP   C138  138   2.081  -0.007   1.151
    4MOP   C139  139   2.010  -0.100   1.241
    4MOP   C140  140   1.883  -0.152   1.209
    4MOP   C141  141   1.815  -0.240   1.295
    4MOP   C142  142   1.679  -0.285   1.253
    4MOP   O143  143   1.622  -0.221   1.166
    4MOP   C144  144   1.878  -0.283   1.412
    4MOP   C145  145   2.003  -0.234   1.446
    4MOP   C146  146   2.067  -0.142   1.363
    4MOP   C147  147   2.213  -0.030   1.104
    4MOP   C148  148   2.285  -0.157   1.130
    4MOP   C149  149   2.409  -0.158   1.199
    4MOP   C150  150   2.474  -0.279   1.230
    4MOP   C151  151   2.607  -0.280   1.305
    4MOP   C152  152   2.590  -0.314   1.454
    4MOP   N153  153   2.708  -0.362   1.237
    4MOP   C154  154   2.411  -0.398   1.190
    4MOP   C155  155   2.291  -0.398   1.119
    4MOP   C156  156   2.229  -0.279   1.089
    4MOP   C157  157   2.277   0.068   1.026
    4MOP   H158  158   2.203   0.457   0.967
    4MOP   H159  159   2.144   0.381   0.814
    4MOP   H160  160   2.306   0.453   0.823
    4MOP   H161  161   2.029   0.300   1.010
    4MOP   H162  162   1.916   0.134   1.147
    4MOP   H163  163   1.837  -0.123   1.114
    4MOP   H164  164   1.832  -0.354   1.480
    4MOP   H165  165   2.051  -0.266   1.538
    4MOP   H166  166   2.164  -0.103   1.393
    4MOP   H167  167   2.453  -0.064   1.230
    4MOP   H168  168   2.648  -0.179   1.301
    4MOP   H169  169   2.687  -0.318   1.503
    4MOP   H170  170   2.527  -0.240   1.504
    4MOP   H171  171   2.540  -0.410   1.469
    4MOP   H172  172   2.800  -0.323   1.228
    4MOP   H173  173   2.456  -0.493   1.211
    4MOP   H174  174   2.247  -0.493   1.089
    4MOP   H175  175   2.135  -0.280   1.035
    4MOP   H176  176   2.378   0.051   0.990
    5CAP   C177  177  -0.538  -0.545  -0.166
    5CAP   O178  178  -0.406  -0.493  -0.153
    5CAP   H179  179  -0.592  -0.520  -0.074
    5CAP   H180  180  -0.532  -0.654  -0.173
    5CAP   H181  181  -0.591  -0.506  -0.253
    6CAP   C182  182   2.583  -0.705   1.502
    6CAP   C183  183   2.632  -0.696   1.357
    6CAP   C184  184   2.761  -0.775   1.342
    6CAP   C185  185   2.521  -0.746   1.264
    6CAP   O186  186   2.653  -0.554   1.337
    6CAP   C187  187   2.708  -0.499   1.228
    6CAP   O188  188   2.755  -0.559   1.132
    6CAP   H189  189   2.561  -0.809   1.530
    6CAP   H190  190   2.657  -0.665   1.572
    6CAP   H191  191   2.492  -0.646   1.516
    6CAP   H192  192   2.841  -0.732   1.404
    6CAP   H193  193   2.798  -0.775   1.239
    6CAP   H194  194   2.747  -0.879   1.372
    6CAP   H195  195   2.429  -0.690   1.280
    6CAP   H196  196   2.549  -0.736   1.159
    6CAP   H197  197   2.498  -0.852   1.284
  5.0000000  5.0000000  5.0000000
