Generated by Interchange
197
    1PMP     C1    1  -0.085   0.440  -0.041
    1PMP     O2    2  -0.051   0.362   0.074
    1PMP     C3    3  -0.028   0.230   0.049
    1PMP     C4    4   0.085   0.168   0.103
    1PMP     C5    5   0.122   0.039   0.064
    1PMP     C6    6   0.250  -0.021   0.106
    1PMP     C7    7   0.370   0.005   0.037
    1PMP     C8    8   0.490  -0.058   0.073
    1PMP     C9    9   0.493  -0.149   0.180
    1PMP    C10   10   0.620  -0.221   0.208
    1PMP    O11   11   0.727  -0.195   0.154
    1PMP    C12   12   0.375  -0.172   0.252
    1PMP    C13   13   0.256  -0.108   0.216
    1PMP    C14   14   0.034  -0.033  -0.019
    1PMP    C15   15  -0.089   0.022  -0.061
    1PMP    C16   16  -0.195  -0.056  -0.128
    1PMP    C17   17  -0.216  -0.190  -0.099
    1PMP    C18   18  -0.336  -0.253  -0.132
    1PMP    C19   19  -0.441  -0.181  -0.193
    1PMP    C20   20  -0.582  -0.237  -0.205
    1PMP    C21   21  -0.625  -0.344  -0.103
    1PMP    N22   22  -0.688  -0.135  -0.217
    1PMP    C23   23  -0.411  -0.053  -0.242
    1PMP    C24   24  -0.290   0.008  -0.210
    1PMP    C25   25  -0.116   0.155  -0.025
    1PMP    H26   26   0.000   0.500  -0.072
    1PMP    H27   27  -0.118   0.382  -0.129
    1PMP    H28   28  -0.165   0.509  -0.014
    1PMP    H29   29   0.149   0.224   0.170
    1PMP    H30   30   0.370   0.071  -0.049
    1PMP    H31   31   0.581  -0.038   0.016
    1PMP    H32   32   0.374  -0.240   0.336
    1PMP    H33   33   0.165  -0.129   0.272
    1PMP    H34   34   0.061  -0.134  -0.048
    1PMP    H35   35  -0.143  -0.247  -0.041
    1PMP    H36   36  -0.348  -0.357  -0.103
    1PMP    H37   37  -0.581  -0.287  -0.303
    1PMP    H38   38  -0.544  -0.384  -0.041
    1PMP    H39   39  -0.702  -0.307  -0.035
    1PMP    H40   40  -0.669  -0.429  -0.156
    1PMP    H41   41  -0.755  -0.154  -0.290
    1PMP    H42   42  -0.484   0.005  -0.297
    1PMP    H43   43  -0.275   0.111  -0.242
    1PMP    H44   44  -0.212   0.200  -0.051
    2PMP    C45   45  -0.262   0.609   0.306
    2PMP    O46   46  -0.223   0.511   0.400
    2PMP    C47   47  -0.281   0.387   0.390
    2PMP    C48   48  -0.364   0.343   0.286
    2PMP    C49   49  -0.420   0.214   0.289
    2PMP    C50   50  -0.501   0.156   0.179
    2PMP    C51   51  -0.584   0.232   0.096
    2PMP    C52   52  -0.657   0.170  -0.008
    2PMP    C53   53  -0.652   0.032  -0.029
    2PMP    C54   54  -0.728  -0.026  -0.143
    2PMP    O55   55  -0.831   0.031  -0.179
    2PMP    C56   56  -0.575  -0.044   0.058
    2PMP    C57   57  -0.498   0.017   0.156
    2PMP    C58   58  -0.391   0.134   0.402
    2PMP    C59   59  -0.304   0.172   0.503
    2PMP    C60   60  -0.274   0.079   0.613
    2PMP    C61   61  -0.379   0.020   0.685
    2PMP    C62   62  -0.354  -0.065   0.793
    2PMP    C63   63  -0.222  -0.092   0.834
    2PMP    C64   64  -0.200  -0.154   0.971
    2PMP    C65   65  -0.079  -0.248   0.980
    2PMP    N66   66  -0.204  -0.046   1.071
    2PMP    C67   67  -0.117  -0.041   0.756
    2PMP    C68   68  -0.143   0.044   0.647
    2PMP    C69   69  -0.248   0.300   0.495
    2PMP    H70   70  -0.370   0.624   0.305
    2PMP    H71   71  -0.215   0.704   0.336
    2PMP    H72   72  -0.225   0.584   0.206
    2PMP    H73   73  -0.384   0.407   0.201
    2PMP    H74   74  -0.594   0.339   0.109
    2PMP    H75   75  -0.720   0.232  -0.072
    2PMP    H76   76  -0.570  -0.152   0.052
    2PMP    H77   77  -0.433  -0.048   0.215
    2PMP    H78   78  -0.437   0.035   0.410
    2PMP    H79   79  -0.483   0.042   0.660
    2PMP    H80   80  -0.438  -0.104   0.850
    2PMP    H81   81  -0.287  -0.217   0.993
    2PMP    H82   82  -0.085  -0.327   0.905
    2PMP    H83   83   0.016  -0.196   0.964
    2PMP    H84   84  -0.074  -0.295   1.079
    2PMP    H85   85  -0.285   0.012   1.055
    2PMP    H86   86  -0.013  -0.057   0.784
    2PMP    H87   87  -0.059   0.086   0.592
    2PMP    H88   88  -0.180   0.335   0.571
    3PMP    C89   89   0.030   0.875   0.822
    3PMP    O90   90   0.078   0.826   0.698
    3PMP    C91   91   0.083   0.690   0.683
    3PMP    C92   92   0.042   0.596   0.776
    3PMP    C93   93   0.053   0.458   0.749
    3PMP    C94   94   0.010   0.362   0.852
    3PMP    C95   95   0.100   0.312   0.947
    3PMP    C96   96   0.062   0.211   1.036
    3PMP    C97   97  -0.068   0.157   1.033
    3PMP    C98   98  -0.089   0.024   1.100
    3PMP    O99   99   0.000  -0.024   1.170
    3PMP   C100  100  -0.163   0.219   0.951
    3PMP   C101  101  -0.124   0.321   0.862
    3PMP   C102  102   0.107   0.418   0.624
    3PMP   C103  103   0.147   0.512   0.526
    3PMP   C104  104   0.197   0.478   0.390
    3PMP   C105  105   0.306   0.394   0.365
    3PMP   C106  106   0.357   0.374   0.234
    3PMP   C107  107   0.300   0.437   0.121
    3PMP   C108  108   0.355   0.414  -0.020
    3PMP   C109  109   0.263   0.342  -0.119
    3PMP   N110  110   0.404   0.542  -0.070
    3PMP   C111  111   0.193   0.524   0.147
    3PMP   C112  112   0.142   0.542   0.277
    3PMP   C113  113   0.135   0.647   0.561
    3PMP   H114  114   0.094   0.842   0.905
    3PMP   H115  115   0.035   0.985   0.819
    3PMP   H116  116  -0.074   0.847   0.838
    3PMP   H117  117  -0.001   0.626   0.872
    3PMP   H118  118   0.202   0.348   0.949
    3PMP   H119  119   0.136   0.169   1.104
    3PMP   H120  120  -0.266   0.185   0.947
    3PMP   H121  121  -0.199   0.363   0.795
    3PMP   H122  122   0.114   0.311   0.602
    3PMP   H123  123   0.356   0.344   0.448
    3PMP   H124  124   0.442   0.307   0.220
    3PMP   H125  125   0.445   0.352  -0.011
    3PMP   H126  126   0.228   0.247  -0.082
    3PMP   H127  127   0.176   0.402  -0.148
    3PMP   H128  128   0.317   0.318  -0.212
    3PMP   H129  129   0.461   0.593  -0.004
    3PMP   H130  130   0.147   0.579   0.065
    3PMP   H131  131   0.055   0.607   0.289
    3PMP   H132  132   0.167   0.724   0.490
    4PMP   C133  133   0.778   1.385  -0.431
    4PMP   O134  134   0.659   1.448  -0.384
    4PMP   C135  135   0.564   1.366  -0.328
    4PMP   C136  136   0.574   1.227  -0.314
    4PMP   C137  137   0.470   1.154  -0.257
    4PMP   C138  138   0.472   1.010  -0.239
    4PMP   C139  139   0.492   0.922  -0.347
    4PMP   C140  140   0.468   0.786  -0.332
    4PMP   C141  141   0.426   0.736  -0.208
    4PMP   C142  142   0.387   0.594  -0.196
    4PMP   O143  143   0.341   0.538  -0.294
    4PMP   C144  144   0.411   0.822  -0.098
    4PMP   C145  145   0.437   0.957  -0.113
    4PMP   C146  146   0.355   1.223  -0.215
    4PMP   C147  147   0.343   1.361  -0.225
    4PMP   C148  148   0.223   1.425  -0.172
    4PMP   C149  149   0.097   1.400  -0.227
    4PMP   C150  150  -0.017   1.463  -0.177
    4PMP   C151  151  -0.007   1.552  -0.070
    4PMP   C152  152  -0.123   1.645  -0.037
    4PMP   C153  153  -0.154   1.658   0.112
    4PMP   N154  154  -0.099   1.770  -0.109
    4PMP   C155  155   0.118   1.570  -0.009
    4PMP   C156  156   0.232   1.509  -0.060
    4PMP   C157  157   0.449   1.432  -0.283
    4PMP   H158  158   0.756   1.312  -0.510
    4PMP   H159  159   0.841   1.463  -0.474
    4PMP   H160  160   0.833   1.338  -0.349
    4PMP   H161  161   0.663   1.173  -0.346
    4PMP   H162  162   0.518   0.961  -0.445
    4PMP   H163  163   0.478   0.719  -0.417
    4PMP   H164  164   0.373   0.787  -0.003
    4PMP   H165  165   0.422   1.023  -0.028
    4PMP   H166  166   0.272   1.167  -0.171
    4PMP   H167  167   0.087   1.332  -0.312
    4PMP   H168  168  -0.113   1.446  -0.226
    4PMP   H169  169  -0.214   1.603  -0.084
    4PMP   H170  170  -0.181   1.561   0.154
    4PMP   H171  171  -0.070   1.696   0.170
    4PMP   H172  172  -0.238   1.726   0.128
    4PMP   H173  173  -0.082   1.755  -0.207
    4PMP   H174  174   0.130   1.639   0.075
    4PMP   H175  175   0.328   1.527  -0.013
    4PMP   H176  176   0.442   1.540  -0.294
    5CAP   C177  177   0.708  -0.409   0.320
    5CAP   O178  178   0.597  -0.322   0.296
    5CAP   H179  179   0.715  -0.483   0.239
    5CAP   H180  180   0.690  -0.462   0.414
    5CAP   H181  181   0.802  -0.354   0.329
    6CAP   C182  182   0.302   1.907  -0.249
    6CAP   C183  183   0.208   1.953  -0.137
    6CAP   C184  184   0.277   1.923  -0.003
    6CAP   C185  185   0.178   2.102  -0.153
    6CAP   O186  186   0.085   1.879  -0.160
    6CAP   C187  187  -0.006   1.859  -0.062
    6CAP   O188  188  -0.002   1.904   0.051
    6CAP   H189  189   0.398   1.961  -0.246
    6CAP   H190  190   0.324   1.799  -0.240
    6CAP   H191  191   0.257   1.921  -0.348
    6CAP   H192  192   0.286   1.816   0.014
    6CAP   H193  193   0.222   1.965   0.082
    6CAP   H194  194   0.377   1.967   0.000
    6CAP   H195  195   0.128   2.121  -0.249
    6CAP   H196  196   0.109   2.136  -0.075
    6CAP   H197  197   0.269   2.162  -0.148
  5.0000000  5.0000000  5.0000000
