FOO
  197
    1POM     C1    1   1.937   2.743   2.044
    1POM     O2    2   2.060   2.817   2.057
    1POM     C3    3   2.057   2.936   2.126
    1POM     C4    4   1.942   2.995   2.181
    1POM     C5    5   1.950   3.115   2.252
    1POM     C6    6   2.073   3.180   2.270
    1POM     C7    7   2.076   3.305   2.347
    1POM     C8    8   2.165   3.322   2.455
    1POM     C9    9   2.167   3.442   2.527
    1POM    C10   10   2.080   3.546   2.494
    1POM    C11   11   1.989   3.532   2.387
    1POM    C12   12   1.896   3.641   2.352
    1POM    O13   13   1.823   3.626   2.255
    1POM    C14   14   1.989   3.410   2.315
    1POM    C15   15   2.189   3.122   2.214
    1POM    C16   16   2.321   3.186   2.223
    1POM    C17   17   2.416   3.136   2.312
    1POM    C18   18   2.539   3.201   2.329
    1POM    C19   19   2.571   3.314   2.252
    1POM    C20   20   2.702   3.390   2.265
    1POM    C21   21   2.765   3.382   2.405
    1POM    N22   22   2.802   3.355   2.165
    1POM    C23   23   2.476   3.361   2.159
    1POM    C24   24   2.352   3.298   2.146
    1POM    C25   25   2.179   3.002   2.143
    1POM    H26   26   1.957   2.650   1.989
    1POM    H27   27   1.896   2.718   2.142
    1POM    H28   28   1.863   2.801   1.987
    1POM    H29   29   1.844   2.948   2.171
    1POM    H30   30   1.860   3.158   2.295
    1POM    H31   31   2.232   3.242   2.483
    1POM    H32   32   2.236   3.454   2.610
    1POM    H33   33   2.083   3.638   2.551
    1POM    H34   34   1.920   3.398   2.232
    1POM    H35   35   2.394   3.047   2.370
    1POM    H36   36   2.609   3.161   2.401
    1POM    H37   37   2.677   3.496   2.250
    1POM    H38   38   2.849   3.451   2.412
    1POM    H39   39   2.802   3.281   2.425
    1POM    H40   40   2.692   3.409   2.481
    1POM    H41   41   2.874   3.425   2.145
    1POM    H42   42   2.498   3.448   2.098
    1POM    H43   43   2.278   3.337   2.076
    1POM    H44   44   2.268   2.958   2.099
    2POM    C45   45   3.131   2.581   2.740
    2POM    O46   46   2.992   2.617   2.739
    2POM    C47   47   2.945   2.692   2.634
    2POM    C48   48   3.024   2.746   2.531
    2POM    C49   49   2.965   2.817   2.426
    2POM    C50   50   2.826   2.836   2.420
    2POM    C51   51   2.772   2.909   2.303
    2POM    C52   52   2.671   2.854   2.223
    2POM    C53   53   2.623   2.921   2.110
    2POM    C54   54   2.677   3.045   2.075
    2POM    C55   55   2.778   3.102   2.152
    2POM    C56   56   2.836   3.232   2.115
    2POM    O57   57   2.932   3.235   2.040
    2POM    C58   58   2.826   3.033   2.265
    2POM    C59   59   2.746   2.785   2.524
    2POM    C60   60   2.601   2.803   2.532
    2POM    C61   61   2.515   2.706   2.479
    2POM    C62   62   2.377   2.724   2.484
    2POM    C63   63   2.321   2.836   2.548
    2POM    C64   64   2.171   2.862   2.557
    2POM    C65   65   2.088   2.785   2.454
    2POM    N66   66   2.114   2.837   2.689
    2POM    C67   67   2.408   2.930   2.606
    2POM    C68   68   2.547   2.914   2.596
    2POM    C69   69   2.807   2.714   2.629
    2POM    H70   70   3.151   2.516   2.826
    2POM    H71   71   3.156   2.526   2.649
    2POM    H72   72   3.194   2.669   2.748
    2POM    H73   73   3.132   2.733   2.530
    2POM    H74   74   3.029   2.856   2.347
    2POM    H75   75   2.630   2.756   2.247
    2POM    H76   76   2.544   2.877   2.050
    2POM    H77   77   2.640   3.097   1.987
    2POM    H78   78   2.906   3.077   2.324
    2POM    H79   79   2.556   2.617   2.433
    2POM    H80   80   2.314   2.647   2.441
    2POM    H81   81   2.157   2.968   2.534
    2POM    H82   82   1.985   2.822   2.454
    2POM    H83   83   2.086   2.678   2.477
    2POM    H84   84   2.130   2.798   2.354
    2POM    H85   85   2.026   2.883   2.711
    2POM    H86   86   2.368   3.016   2.657
    2POM    H87   87   2.613   2.989   2.640
    2POM    H88   88   2.746   2.674   2.709
    3POM    C89   89   2.025   1.825   2.524
    3POM    O90   90   2.140   1.893   2.472
    3POM    C91   91   2.169   2.018   2.521
    3POM    C92   92   2.091   2.090   2.612
    3POM    C93   93   2.132   2.216   2.658
    3POM    C94   94   2.252   2.274   2.614
    3POM    C95   95   2.294   2.402   2.676
    3POM    C96   96   2.424   2.419   2.728
    3POM    C97   97   2.461   2.536   2.793
    3POM    C98   98   2.369   2.639   2.809
    3POM    C99   99   2.239   2.626   2.758
    3POM   C100  100   2.141   2.734   2.777
    3POM   O101  101   2.066   2.732   2.873
    3POM   C102  102   2.203   2.507   2.693
    3POM   C103  103   2.330   2.203   2.519
    3POM   C104  104   2.452   2.256   2.458
    3POM   C105  105   2.578   2.215   2.504
    3POM   C106  106   2.694   2.263   2.443
    3POM   C107  107   2.686   2.348   2.330
    3POM   C108  108   2.809   2.402   2.259
    3POM   C109  109   2.914   2.453   2.359
    3POM   N110  110   2.874   2.311   2.165
    3POM   C111  111   2.559   2.386   2.284
    3POM   C112  112   2.443   2.341   2.348
    3POM   C113  113   2.287   2.077   2.474
    3POM   H114  114   2.018   1.725   2.479
    3POM   H115  115   2.033   1.813   2.633
    3POM   H116  116   1.933   1.880   2.501
    3POM   H117  117   1.998   2.050   2.651
    3POM   H118  118   2.071   2.267   2.732
    3POM   H119  119   2.497   2.339   2.720
    3POM   H120  120   2.562   2.547   2.833
    3POM   H121  121   2.397   2.731   2.861
    3POM   H122  122   2.101   2.497   2.655
    3POM   H123  123   2.586   2.145   2.587
    3POM   H124  124   2.790   2.231   2.481
    3POM   H125  125   2.777   2.489   2.201
    3POM   H126  126   2.992   2.508   2.306
    3POM   H127  127   2.961   2.370   2.413
    3POM   H128  128   2.866   2.519   2.431
    3POM   H129  129   2.944   2.357   2.108
    3POM   H130  130   2.550   2.451   2.198
    3POM   H131  131   2.346   2.372   2.311
    3POM   H132  132   2.347   2.023   2.402
    4POM   C133  133   3.269   1.440   2.638
    4POM   O134  134   3.149   1.498   2.691
    4POM   C135  135   3.078   1.585   2.611
    4POM   C136  136   3.111   1.618   2.478
    4POM   C137  137   3.032   1.709   2.407
    4POM   C138  138   2.919   1.769   2.464
    4POM   C139  139   2.845   1.866   2.382
    4POM   C140  140   2.712   1.843   2.342
    4POM   C141  141   2.647   1.933   2.258
    4POM   C142  142   2.713   2.046   2.210
    4POM   C143  143   2.846   2.071   2.249
    4POM   C144  144   2.922   2.186   2.197
    4POM   O145  145   3.034   2.168   2.151
    4POM   C146  146   2.910   1.980   2.334
    4POM   C147  147   2.886   1.736   2.598
    4POM   C148  148   2.776   1.798   2.673
    4POM   C149  149   2.642   1.760   2.653
    4POM   C150  150   2.540   1.815   2.732
    4POM   C151  151   2.570   1.904   2.837
    4POM   C152  152   2.463   1.963   2.927
    4POM   C153  153   2.363   2.040   2.842
    4POM   N154  154   2.385   1.874   3.014
    4POM   C155  155   2.704   1.941   2.856
    4POM   C156  156   2.805   1.889   2.775
    4POM   C157  157   2.966   1.644   2.668
    4POM   H158  158   3.315   1.376   2.714
    4POM   H159  159   3.247   1.378   2.550
    4POM   H160  160   3.341   1.517   2.610
    4POM   H161  161   3.197   1.575   2.429
    4POM   H162  162   3.059   1.733   2.304
    4POM   H163  163   2.661   1.753   2.374
    4POM   H164  164   2.544   1.914   2.228
    4POM   H165  165   2.662   2.115   2.144
    4POM   H166  166   3.014   1.997   2.362
    4POM   H167  167   2.617   1.686   2.578
    4POM   H168  168   2.438   1.784   2.714
    4POM   H169  169   2.512   2.036   2.992
    4POM   H170  170   2.294   2.097   2.905
    4POM   H171  171   2.305   1.972   2.779
    4POM   H172  172   2.416   2.111   2.777
    4POM   H173  173   2.319   1.918   3.076
    4POM   H174  174   2.731   2.010   2.935
    4POM   H175  175   2.908   1.919   2.792
    4POM   H176  176   2.941   1.619   2.770
    5CAP   C177  177   1.804   3.855   2.395
    5CAP   O178  178   1.898   3.752   2.431
    5CAP   H179  179   1.824   3.892   2.294
    5CAP   H180  180   1.813   3.939   2.465
    5CAP   H181  181   1.701   3.817   2.400
    6CAP   C182  182   2.539   1.456   2.855
    6CAP   C183  183   2.443   1.512   2.962
    6CAP   C184  184   2.301   1.466   2.924
    6CAP   C185  185   2.486   1.456   3.098
    6CAP   O186  186   2.460   1.654   2.954
    6CAP   C187  187   2.382   1.738   3.027
    6CAP   O188  188   2.301   1.705   3.112
    6CAP   H189  189   2.537   1.347   2.854
    6CAP   H190  190   2.510   1.492   2.756
    6CAP   H191  191   2.641   1.489   2.875
    6CAP   H192  192   2.268   1.515   2.833
    6CAP   H193  193   2.230   1.488   3.004
    6CAP   H194  194   2.299   1.357   2.908
    6CAP   H195  195   2.586   1.492   3.124
    6CAP   H196  196   2.417   1.486   3.177
    6CAP   H197  197   2.489   1.346   3.095
   5.00000   5.00000   5.00000
