Generated by Interchange
197
    1MOP     C1    1  -0.499  -0.392  -0.058
    1MOP     O2    2  -0.617  -0.387  -0.094
    1MOP     C3    3  -0.417  -0.268  -0.045
    1MOP     C4    4  -0.294  -0.263   0.022
    1MOP     C5    5  -0.219  -0.142   0.027
    1MOP     C6    6  -0.266  -0.023  -0.030
    1MOP     C7    7  -0.213   0.112   0.003
    1MOP     C8    8  -0.083   0.168  -0.014
    1MOP     C9    9  -0.066   0.305   0.023
    1MOP    C10   10  -0.164   0.383   0.083
    1MOP    O11   11  -0.124   0.509   0.117
    1MOP    C12   12  -0.222   0.591   0.179
    1MOP    C13   13  -0.287   0.326   0.107
    1MOP    C14   14  -0.310   0.194   0.067
    1MOP    C15   15   0.046   0.105  -0.050
    1MOP    C16   16   0.091   0.083  -0.179
    1MOP    C17   17   0.224   0.045  -0.208
    1MOP    C18   18   0.316   0.029  -0.106
    1MOP    C19   19   0.279   0.060   0.024
    1MOP    C20   20   0.146   0.102   0.047
    1MOP    C21   21   0.382   0.063   0.134
    1MOP    N22   22   0.338   0.008   0.263
    1MOP    C23   23   0.450   0.200   0.146
    1MOP    C24   24  -0.388  -0.034  -0.101
    1MOP    C25   25  -0.462  -0.153  -0.108
    1MOP    H26   26  -0.253  -0.352   0.070
    1MOP    H27   27  -0.124  -0.140   0.079
    1MOP    H28   28   0.032   0.352   0.009
    1MOP    H29   29  -0.175   0.688   0.200
    1MOP    H30   30  -0.256   0.549   0.273
    1MOP    H31   31  -0.305   0.610   0.110
    1MOP    H32   32  -0.368   0.379   0.156
    1MOP    H33   33  -0.409   0.153   0.088
    1MOP    H34   34   0.027   0.105  -0.262
    1MOP    H35   35   0.255   0.032  -0.311
    1MOP    H36   36   0.419   0.001  -0.130
    1MOP    H37   37   0.121   0.145   0.143
    1MOP    H38   38   0.462  -0.006   0.104
    1MOP    H39   39   0.412   0.032   0.327
    1MOP    H40   40   0.380   0.277   0.181
    1MOP    H41   41   0.491   0.232   0.050
    1MOP    H42   42   0.533   0.196   0.217
    1MOP    H43   43  -0.430   0.055  -0.149
    1MOP    H44   44  -0.556  -0.154  -0.163
    2MOP    C45   45   0.223   0.048   0.328
    2MOP    O46   46   0.228   0.145   0.403
    2MOP    C47   47   0.099  -0.039   0.321
    2MOP    C48   48   0.092  -0.165   0.259
    2MOP    C49   49  -0.021  -0.250   0.280
    2MOP    C50   50  -0.132  -0.209   0.356
    2MOP    C51   51  -0.264  -0.281   0.363
    2MOP    C52   52  -0.291  -0.417   0.394
    2MOP    C53   53  -0.428  -0.458   0.395
    2MOP    C54   54  -0.535  -0.376   0.364
    2MOP    O55   55  -0.657  -0.437   0.372
    2MOP    C56   56  -0.771  -0.359   0.338
    2MOP    C57   57  -0.510  -0.245   0.332
    2MOP    C58   58  -0.377  -0.199   0.332
    2MOP    C59   59  -0.197  -0.524   0.434
    2MOP    C60   60  -0.090  -0.504   0.519
    2MOP    C61   61  -0.023  -0.610   0.580
    2MOP    C62   62  -0.048  -0.741   0.545
    2MOP    C63   63  -0.138  -0.763   0.442
    2MOP    C64   64  -0.219  -0.658   0.395
    2MOP    C65   65  -0.107  -0.877   0.348
    2MOP    N66   66  -0.047  -0.808   0.233
    2MOP    C67   67  -0.222  -0.974   0.325
    2MOP    C68   68  -0.122  -0.081   0.414
    2MOP    C69   69  -0.010   0.003   0.396
    2MOP    H70   70   0.175  -0.201   0.199
    2MOP    H71   71  -0.023  -0.347   0.230
    2MOP    H72   72  -0.453  -0.560   0.425
    2MOP    H73   73  -0.859  -0.423   0.347
    2MOP    H74   74  -0.765  -0.323   0.235
    2MOP    H75   75  -0.783  -0.276   0.409
    2MOP    H76   76  -0.588  -0.175   0.306
    2MOP    H77   77  -0.362  -0.095   0.304
    2MOP    H78   78  -0.062  -0.403   0.545
    2MOP    H79   79   0.055  -0.594   0.653
    2MOP    H80   80   0.013  -0.821   0.586
    2MOP    H81   81  -0.292  -0.680   0.318
    2MOP    H82   82  -0.027  -0.935   0.393
    2MOP    H83   83   0.018  -0.736   0.264
    2MOP    H84   84  -0.312  -0.926   0.284
    2MOP    H85   85  -0.252  -1.021   0.420
    2MOP    H86   86  -0.192  -1.054   0.257
    2MOP    H87   87  -0.204  -0.042   0.475
    2MOP    H88   88  -0.009   0.100   0.445
    3MOP    C89   89  -0.105  -0.785   0.113
    3MOP    O90   90  -0.198  -0.858   0.072
    3MOP    C91   91  -0.064  -0.667   0.029
    3MOP    C92   92   0.040  -0.575   0.051
    3MOP    C93   93   0.061  -0.466  -0.039
    3MOP    C94   94  -0.023  -0.444  -0.150
    3MOP    C95   95  -0.019  -0.327  -0.243
    3MOP    C96   96   0.090  -0.290  -0.324
    3MOP    C97   97   0.079  -0.176  -0.408
    3MOP    C98   98  -0.039  -0.099  -0.414
    3MOP    O99   99  -0.037   0.016  -0.488
    3MOP   C100  100  -0.135   0.116  -0.454
    3MOP   C101  101  -0.149  -0.143  -0.345
    3MOP   C102  102  -0.138  -0.256  -0.264
    3MOP   C103  103   0.204  -0.381  -0.339
    3MOP   C104  104   0.184  -0.502  -0.407
    3MOP   C105  105   0.284  -0.598  -0.416
    3MOP   C106  106   0.407  -0.573  -0.357
    3MOP   C107  107   0.432  -0.453  -0.289
    3MOP   C108  108   0.329  -0.356  -0.282
    3MOP   C109  109   0.564  -0.433  -0.217
    3MOP   N110  110   0.540  -0.449  -0.073
    3MOP   C111  111   0.636  -0.307  -0.266
    3MOP   C112  112  -0.125  -0.539  -0.170
    3MOP   C113  113  -0.143  -0.646  -0.084
    3MOP   H114  114   0.106  -0.584   0.137
    3MOP   H115  115   0.142  -0.395  -0.018
    3MOP   H116  116   0.163  -0.146  -0.471
    3MOP   H117  117  -0.095   0.214  -0.482
    3MOP   H118  118  -0.158   0.121  -0.346
    3MOP   H119  119  -0.228   0.098  -0.509
    3MOP   H120  120  -0.245  -0.093  -0.351
    3MOP   H121  121  -0.228  -0.290  -0.216
    3MOP   H122  122   0.086  -0.523  -0.451
    3MOP   H123  123   0.264  -0.692  -0.467
    3MOP   H124  124   0.484  -0.650  -0.363
    3MOP   H125  125   0.346  -0.263  -0.227
    3MOP   H126  126   0.629  -0.517  -0.243
    3MOP   H127  127   0.493  -0.535  -0.049
    3MOP   H128  128   0.581  -0.215  -0.244
    3MOP   H129  129   0.650  -0.310  -0.375
    3MOP   H130  130   0.736  -0.299  -0.221
    3MOP   H131  131  -0.194  -0.528  -0.252
    3MOP   H132  132  -0.224  -0.715  -0.105
    4MOP   C133  133   0.547  -0.349   0.021
    4MOP   O134  134   0.599  -0.240  -0.003
    4MOP   C135  135   0.486  -0.371   0.157
    4MOP   C136  136   0.415  -0.483   0.200
    4MOP   C137  137   0.348  -0.483   0.325
    4MOP   C138  138   0.350  -0.370   0.411
    4MOP   C139  139   0.273  -0.360   0.539
    4MOP   C140  140   0.289  -0.447   0.648
    4MOP   C141  141   0.202  -0.437   0.760
    4MOP   C142  142   0.099  -0.342   0.763
    4MOP   O143  143   0.004  -0.350   0.862
    4MOP   C144  144  -0.131  -0.330   0.817
    4MOP   C145  145   0.099  -0.242   0.668
    4MOP   C146  146   0.187  -0.252   0.560
    4MOP   C147  147   0.407  -0.536   0.647
    4MOP   C148  148   0.533  -0.474   0.648
    4MOP   C149  149   0.648  -0.545   0.618
    4MOP   C150  150   0.639  -0.682   0.594
    4MOP   C151  151   0.515  -0.749   0.602
    4MOP   C152  152   0.399  -0.674   0.625
    4MOP   C153  153   0.515  -0.901   0.593
    4MOP   N154  154   0.489  -0.952   0.459
    4MOP   C155  155   0.432  -0.966   0.704
    4MOP   C156  156   0.429  -0.263   0.369
    4MOP   C157  157   0.495  -0.263   0.246
    4MOP   H158  158   0.410  -0.573   0.139
    4MOP   H159  159   0.293  -0.572   0.355
    4MOP   H160  160   0.211  -0.507   0.842
    4MOP   H161  161  -0.198  -0.343   0.902
    4MOP   H162  162  -0.160  -0.404   0.743
    4MOP   H163  163  -0.148  -0.229   0.777
    4MOP   H164  164   0.030  -0.159   0.672
    4MOP   H165  165   0.188  -0.171   0.491
    4MOP   H166  166   0.540  -0.366   0.664
    4MOP   H167  167   0.743  -0.493   0.611
    4MOP   H168  168   0.730  -0.736   0.570
    4MOP   H169  169   0.301  -0.722   0.623
    4MOP   H170  170   0.618  -0.933   0.612
    4MOP   H171  171   0.564  -0.953   0.392
    4MOP   H172  172   0.326  -0.940   0.699
    4MOP   H173  173   0.469  -0.935   0.802
    4MOP   H174  174   0.440  -1.075   0.698
    4MOP   H175  175   0.436  -0.175   0.432
    4MOP   H176  176   0.551  -0.175   0.218
    5CAP   C177  177  -0.496  -0.629  -0.062
    5CAP   O178  178  -0.428  -0.505  -0.036
    5CAP   H179  179  -0.511  -0.682   0.033
    5CAP   H180  180  -0.434  -0.690  -0.126
    5CAP   H181  181  -0.592  -0.617  -0.113
    6CAP   C182  182   0.305  -1.037   0.046
    6CAP   C183  183   0.266  -0.996   0.189
    6CAP   C184  184   0.243  -0.846   0.185
    6CAP   C185  185   0.145  -1.083   0.227
    6CAP   O186  186   0.379  -1.017   0.277
    6CAP   C187  187   0.366  -0.976   0.407
    6CAP   O188  188   0.260  -0.955   0.465
    6CAP   H189  189   0.222  -1.018  -0.023
    6CAP   H190  190   0.392  -0.981   0.011
    6CAP   H191  191   0.331  -1.143   0.040
    6CAP   H192  192   0.337  -0.793   0.165
    6CAP   H193  193   0.208  -0.806   0.281
    6CAP   H194  194   0.173  -0.819   0.106
    6CAP   H195  195   0.168  -1.189   0.213
    6CAP   H196  196   0.116  -1.075   0.332
    6CAP   H197  197   0.058  -1.060   0.166
  5.0000000  5.0000000  5.0000000
