Generated by Interchange
197
    1MOP     C1    1  -0.288  -0.600  -0.141
    1MOP     O2    2  -0.380  -0.614  -0.220
    1MOP     C3    3  -0.251  -0.472  -0.077
    1MOP     C4    4  -0.157  -0.467   0.027
    1MOP     C5    5  -0.137  -0.349   0.098
    1MOP     C6    6  -0.209  -0.235   0.064
    1MOP     C7    7  -0.184  -0.110   0.135
    1MOP     C8    8  -0.061  -0.042   0.125
    1MOP     C9    9  -0.054   0.085   0.186
    1MOP    C10   10  -0.163   0.142   0.252
    1MOP    O11   11  -0.151   0.274   0.288
    1MOP    C12   12  -0.276   0.344   0.280
    1MOP    C13   13  -0.277   0.067   0.274
    1MOP    C14   14  -0.288  -0.057   0.214
    1MOP    C15   15   0.057  -0.094   0.051
    1MOP    C16   16   0.053  -0.128  -0.085
    1MOP    C17   17   0.169  -0.162  -0.155
    1MOP    C18   18   0.291  -0.169  -0.090
    1MOP    C19   19   0.300  -0.145   0.048
    1MOP    C20   20   0.181  -0.110   0.116
    1MOP    C21   21   0.431  -0.168   0.123
    1MOP    N22   22   0.433  -0.124   0.263
    1MOP    C23   23   0.563  -0.132   0.051
    1MOP    C24   24  -0.301  -0.238  -0.042
    1MOP    C25   25  -0.323  -0.357  -0.112
    1MOP    H26   26  -0.100  -0.554   0.056
    1MOP    H27   27  -0.064  -0.347   0.179
    1MOP    H28   28   0.037   0.143   0.175
    1MOP    H29   29  -0.257   0.450   0.269
    1MOP    H30   30  -0.333   0.326   0.372
    1MOP    H31   31  -0.336   0.315   0.194
    1MOP    H32   32  -0.360   0.105   0.332
    1MOP    H33   33  -0.381  -0.114   0.227
    1MOP    H34   34  -0.041  -0.124  -0.140
    1MOP    H35   35   0.162  -0.182  -0.262
    1MOP    H36   36   0.379  -0.196  -0.148
    1MOP    H37   37   0.182  -0.095   0.224
    1MOP    H38   38   0.435  -0.277   0.132
    1MOP    H39   39   0.450  -0.198   0.330
    1MOP    H40   40   0.628  -0.069   0.113
    1MOP    H41   41   0.548  -0.081  -0.045
    1MOP    H42   42   0.621  -0.222   0.030
    1MOP    H43   43  -0.356  -0.149  -0.070
    1MOP    H44   44  -0.397  -0.360  -0.192
    2MOP    C45   45   0.407  -0.005   0.327
    2MOP    O46   46   0.406  -0.004   0.450
    2MOP    C47   47   0.370   0.118   0.253
    2MOP    C48   48   0.424   0.149   0.129
    2MOP    C49   49   0.376   0.254   0.054
    2MOP    C50   50   0.274   0.336   0.104
    2MOP    C51   51   0.234   0.451   0.022
    2MOP    C52   52   0.181   0.439  -0.109
    2MOP    C53   53   0.152   0.560  -0.175
    2MOP    C54   54   0.174   0.686  -0.119
    2MOP    O55   55   0.130   0.792  -0.193
    2MOP    C56   56   0.091   0.909  -0.121
    2MOP    C57   57   0.233   0.696   0.006
    2MOP    C58   58   0.262   0.579   0.076
    2MOP    C59   59   0.141   0.313  -0.180
    2MOP    C60   60   0.043   0.230  -0.127
    2MOP    C61   61  -0.029   0.141  -0.207
    2MOP    C62   62   0.006   0.120  -0.340
    2MOP    C63   63   0.114   0.188  -0.395
    2MOP    C64   64   0.181   0.284  -0.312
    2MOP    C65   65   0.162   0.157  -0.537
    2MOP    N66   66   0.246   0.260  -0.595
    2MOP    C67   67   0.061   0.105  -0.642
    2MOP    C68   68   0.227   0.313   0.234
    2MOP    C69   69   0.274   0.204   0.308
    2MOP    H70   70   0.507   0.095   0.087
    2MOP    H71   71   0.417   0.272  -0.045
    2MOP    H72   72   0.104   0.554  -0.271
    2MOP    H73   73   0.011   0.958  -0.177
    2MOP    H74   74   0.176   0.978  -0.114
    2MOP    H75   75   0.052   0.888  -0.021
    2MOP    H76   76   0.255   0.792   0.051
    2MOP    H77   77   0.307   0.588   0.175
    2MOP    H78   78   0.014   0.242  -0.024
    2MOP    H79   79  -0.114   0.088  -0.165
    2MOP    H80   80  -0.051   0.046  -0.396
    2MOP    H81   81   0.264   0.342  -0.353
    2MOP    H82   82   0.230   0.072  -0.521
    2MOP    H83   83   0.338   0.230  -0.624
    2MOP    H84   84   0.046   0.176  -0.724
    2MOP    H85   85  -0.037   0.078  -0.603
    2MOP    H86   86   0.102   0.016  -0.692
    2MOP    H87   87   0.151   0.378   0.278
    2MOP    H88   88   0.232   0.184   0.407
    3MOP    C89   89   0.229   0.394  -0.617
    3MOP    O90   90   0.324   0.457  -0.664
    3MOP    C91   91   0.106   0.469  -0.576
    3MOP    C92   92  -0.023   0.417  -0.574
    3MOP    C93   93  -0.130   0.488  -0.520
    3MOP    C94   94  -0.113   0.616  -0.467
    3MOP    C95   95  -0.227   0.688  -0.405
    3MOP    C96   96  -0.329   0.624  -0.328
    3MOP    C97   97  -0.436   0.705  -0.284
    3MOP    C98   98  -0.439   0.844  -0.300
    3MOP    O99   99  -0.543   0.908  -0.240
    3MOP   C100  100  -0.516   1.042  -0.197
    3MOP   C101  101  -0.337   0.906  -0.370
    3MOP   C102  102  -0.235   0.828  -0.424
    3MOP   C103  103  -0.318   0.491  -0.261
    3MOP   C104  104  -0.211   0.472  -0.175
    3MOP   C105  105  -0.214   0.377  -0.074
    3MOP   C106  106  -0.313   0.282  -0.071
    3MOP   C107  107  -0.421   0.289  -0.158
    3MOP   C108  108  -0.422   0.394  -0.254
    3MOP   C109  109  -0.532   0.187  -0.145
    3MOP   N110  110  -0.660   0.231  -0.197
    3MOP   C111  111  -0.558   0.119  -0.007
    3MOP   C112  112   0.016   0.673  -0.479
    3MOP   C113  113   0.124   0.601  -0.532
    3MOP   H114  114  -0.046   0.319  -0.612
    3MOP   H115  115  -0.228   0.440  -0.519
    3MOP   H116  116  -0.512   0.659  -0.223
    3MOP   H117  117  -0.597   1.072  -0.129
    3MOP   H118  118  -0.517   1.110  -0.282
    3MOP   H119  119  -0.422   1.049  -0.141
    3MOP   H120  120  -0.335   1.013  -0.385
    3MOP   H121  121  -0.158   0.880  -0.482
    3MOP   H122  122  -0.126   0.538  -0.181
    3MOP   H123  123  -0.136   0.378   0.002
    3MOP   H124  124  -0.303   0.202   0.002
    3MOP   H125  125  -0.507   0.405  -0.321
    3MOP   H126  126  -0.501   0.105  -0.212
    3MOP   H127  127  -0.709   0.166  -0.257
    3MOP   H128  128  -0.653   0.152   0.038
    3MOP   H129  129  -0.481   0.134   0.067
    3MOP   H130  130  -0.569   0.010  -0.020
    3MOP   H131  131   0.036   0.772  -0.440
    3MOP   H132  132   0.222   0.647  -0.533
    4MOP   C133  133  -0.742   0.338  -0.163
    4MOP   O134  134  -0.853   0.339  -0.215
    4MOP   C135  135  -0.697   0.454  -0.081
    4MOP   C136  136  -0.614   0.452   0.032
    4MOP   C137  137  -0.573   0.570   0.096
    4MOP   C138  138  -0.618   0.696   0.054
    4MOP   C139  139  -0.586   0.825   0.123
    4MOP   C140  140  -0.460   0.867   0.174
    4MOP   C141  141  -0.450   0.997   0.231
    4MOP   C142  142  -0.558   1.084   0.238
    4MOP   O143  143  -0.529   1.207   0.290
    4MOP   C144  144  -0.632   1.305   0.282
    4MOP   C145  145  -0.681   1.042   0.193
    4MOP   C146  146  -0.695   0.914   0.138
    4MOP   C147  147  -0.332   0.794   0.164
    4MOP   C148  148  -0.277   0.770   0.039
    4MOP   C149  149  -0.153   0.709   0.028
    4MOP   C150  150  -0.085   0.663   0.140
    4MOP   C151  151  -0.131   0.692   0.268
    4MOP   C152  152  -0.252   0.762   0.277
    4MOP   C153  153  -0.047   0.646   0.387
    4MOP   N154  154  -0.122   0.560   0.477
    4MOP   C155  155   0.028   0.760   0.455
    4MOP   C156  156  -0.706   0.695  -0.057
    4MOP   C157  157  -0.745   0.578  -0.123
    4MOP   H158  158  -0.578   0.359   0.073
    4MOP   H159  159  -0.507   0.563   0.182
    4MOP   H160  160  -0.353   1.032   0.267
    4MOP   H161  161  -0.592   1.399   0.321
    4MOP   H162  162  -0.717   1.277   0.344
    4MOP   H163  163  -0.662   1.322   0.178
    4MOP   H164  164  -0.769   1.105   0.197
    4MOP   H165  165  -0.794   0.886   0.105
    4MOP   H166  166  -0.328   0.802  -0.050
    4MOP   H167  167  -0.109   0.699  -0.070
    4MOP   H168  168   0.005   0.605   0.126
    4MOP   H169  169  -0.287   0.795   0.375
    4MOP   H170  170   0.031   0.579   0.348
    4MOP   H171  171  -0.137   0.466   0.442
    4MOP   H172  172  -0.038   0.835   0.498
    4MOP   H173  173   0.093   0.811   0.383
    4MOP   H174  174   0.092   0.721   0.535
    4MOP   H175  175  -0.743   0.789  -0.099
    4MOP   H176  176  -0.810   0.585  -0.210
    5CAP   C177  177  -0.300  -0.796  -0.022
    5CAP   O178  178  -0.216  -0.700  -0.084
    5CAP   H179  179  -0.374  -0.746   0.043
    5CAP   H180  180  -0.238  -0.859   0.042
    5CAP   H181  181  -0.351  -0.858  -0.096
    6CAP   C182  182  -0.554   0.447   0.494
    6CAP   C183  183  -0.467   0.554   0.562
    6CAP   C184  184  -0.509   0.689   0.502
    6CAP   C185  185  -0.489   0.550   0.713
    6CAP   O186  186  -0.330   0.517   0.531
    6CAP   C187  187  -0.229   0.604   0.549
    6CAP   O188  188  -0.235   0.711   0.607
    6CAP   H189  189  -0.661   0.464   0.510
    6CAP   H190  190  -0.536   0.445   0.386
    6CAP   H191  191  -0.529   0.346   0.530
    6CAP   H192  192  -0.493   0.688   0.394
    6CAP   H193  193  -0.453   0.773   0.543
    6CAP   H194  194  -0.615   0.710   0.519
    6CAP   H195  195  -0.464   0.451   0.753
    6CAP   H196  196  -0.425   0.622   0.764
    6CAP   H197  197  -0.593   0.573   0.738
  5.0000000  5.0000000  5.0000000
