Generated by Interchange
197
    1MOP     C1    1  -0.303  -0.613  -0.112
    1MOP     O2    2  -0.394  -0.628  -0.191
    1MOP     C3    3  -0.258  -0.482  -0.059
    1MOP     C4    4  -0.157  -0.472   0.038
    1MOP     C5    5  -0.133  -0.351   0.101
    1MOP     C6    6  -0.207  -0.237   0.067
    1MOP     C7    7  -0.183  -0.110   0.135
    1MOP     C8    8  -0.061  -0.040   0.126
    1MOP     C9    9  -0.055   0.087   0.187
    1MOP    C10   10  -0.165   0.143   0.253
    1MOP    O11   11  -0.153   0.273   0.294
    1MOP    C12   12  -0.276   0.345   0.283
    1MOP    C13   13  -0.279   0.067   0.273
    1MOP    C14   14  -0.289  -0.058   0.213
    1MOP    C15   15   0.058  -0.092   0.055
    1MOP    C16   16   0.054  -0.128  -0.081
    1MOP    C17   17   0.168  -0.168  -0.150
    1MOP    C18   18   0.290  -0.178  -0.083
    1MOP    C19   19   0.299  -0.149   0.055
    1MOP    C20   20   0.181  -0.108   0.121
    1MOP    C21   21   0.430  -0.173   0.129
    1MOP    N22   22   0.438  -0.120   0.265
    1MOP    C23   23   0.559  -0.147   0.050
    1MOP    C24   24  -0.303  -0.246  -0.036
    1MOP    C25   25  -0.329  -0.367  -0.098
    1MOP    H26   26  -0.100  -0.559   0.069
    1MOP    H27   27  -0.057  -0.346   0.179
    1MOP    H28   28   0.035   0.146   0.176
    1MOP    H29   29  -0.254   0.452   0.285
    1MOP    H30   30  -0.341   0.322   0.367
    1MOP    H31   31  -0.327   0.325   0.189
    1MOP    H32   32  -0.363   0.103   0.332
    1MOP    H33   33  -0.381  -0.115   0.225
    1MOP    H34   34  -0.040  -0.123  -0.136
    1MOP    H35   35   0.162  -0.191  -0.256
    1MOP    H36   36   0.377  -0.211  -0.139
    1MOP    H37   37   0.183  -0.090   0.228
    1MOP    H38   38   0.429  -0.282   0.146
    1MOP    H39   39   0.459  -0.188   0.337
    1MOP    H40   40   0.638  -0.106   0.113
    1MOP    H41   41   0.545  -0.079  -0.035
    1MOP    H42   42   0.597  -0.240   0.008
    1MOP    H43   43  -0.359  -0.158  -0.065
    1MOP    H44   44  -0.407  -0.373  -0.174
    2MOP    C45   45   0.423   0.005   0.321
    2MOP    O46   46   0.433   0.016   0.443
    2MOP    C47   47   0.385   0.123   0.241
    2MOP    C48   48   0.446   0.153   0.120
    2MOP    C49   49   0.398   0.257   0.041
    2MOP    C50   50   0.293   0.338   0.085
    2MOP    C51   51   0.250   0.452   0.004
    2MOP    C52   52   0.191   0.439  -0.124
    2MOP    C53   53   0.155   0.559  -0.189
    2MOP    C54   54   0.175   0.686  -0.135
    2MOP    O55   55   0.126   0.789  -0.210
    2MOP    C56   56   0.095   0.909  -0.139
    2MOP    C57   57   0.238   0.697  -0.013
    2MOP    C58   58   0.275   0.581   0.056
    2MOP    C59   59   0.150   0.313  -0.191
    2MOP    C60   60   0.051   0.233  -0.136
    2MOP    C61   61  -0.021   0.143  -0.214
    2MOP    C62   62   0.014   0.119  -0.347
    2MOP    C63   63   0.122   0.188  -0.404
    2MOP    C64   64   0.189   0.284  -0.324
    2MOP    C65   65   0.168   0.156  -0.545
    2MOP    N66   66   0.245   0.263  -0.610
    2MOP    C67   67   0.070   0.094  -0.647
    2MOP    C68   68   0.239   0.314   0.213
    2MOP    C69   69   0.284   0.206   0.290
    2MOP    H70   70   0.532   0.098   0.085
    2MOP    H71   71   0.445   0.277  -0.056
    2MOP    H72   72   0.102   0.551  -0.284
    2MOP    H73   73   0.024   0.966  -0.200
    2MOP    H74   74   0.185   0.969  -0.126
    2MOP    H75   75   0.047   0.890  -0.043
    2MOP    H76   76   0.259   0.794   0.032
    2MOP    H77   77   0.324   0.592   0.153
    2MOP    H78   78   0.021   0.248  -0.033
    2MOP    H79   79  -0.106   0.091  -0.171
    2MOP    H80   80  -0.042   0.044  -0.401
    2MOP    H81   81   0.270   0.342  -0.367
    2MOP    H82   82   0.244   0.077  -0.528
    2MOP    H83   83   0.335   0.236  -0.647
    2MOP    H84   84   0.048   0.162  -0.730
    2MOP    H85   85  -0.025   0.061  -0.606
    2MOP    H86   86   0.117   0.007  -0.695
    2MOP    H87   87   0.160   0.377   0.252
    2MOP    H88   88   0.239   0.186   0.387
    3MOP    C89   89   0.218   0.394  -0.638
    3MOP    O90   90   0.305   0.458  -0.697
    3MOP    C91   91   0.096   0.466  -0.592
    3MOP    C92   92  -0.032   0.411  -0.587
    3MOP    C93   93  -0.140   0.484  -0.534
    3MOP    C94   94  -0.124   0.614  -0.485
    3MOP    C95   95  -0.237   0.689  -0.423
    3MOP    C96   96  -0.335   0.630  -0.340
    3MOP    C97   97  -0.438   0.714  -0.290
    3MOP    C98   98  -0.441   0.851  -0.310
    3MOP    O99   99  -0.541   0.918  -0.246
    3MOP   C100  100  -0.508   1.049  -0.200
    3MOP   C101  101  -0.344   0.909  -0.389
    3MOP   C102  102  -0.245   0.829  -0.447
    3MOP   C103  103  -0.324   0.498  -0.272
    3MOP   C104  104  -0.216   0.480  -0.187
    3MOP   C105  105  -0.216   0.383  -0.088
    3MOP   C106  106  -0.318   0.289  -0.083
    3MOP   C107  107  -0.428   0.298  -0.168
    3MOP   C108  108  -0.429   0.404  -0.263
    3MOP   C109  109  -0.541   0.196  -0.157
    3MOP   N110  110  -0.671   0.246  -0.199
    3MOP   C111  111  -0.560   0.118  -0.025
    3MOP   C112  112   0.005   0.670  -0.497
    3MOP   C113  113   0.113   0.598  -0.550
    3MOP   H114  114  -0.053   0.312  -0.624
    3MOP   H115  115  -0.238   0.436  -0.532
    3MOP   H116  116  -0.512   0.670  -0.224
    3MOP   H117  117  -0.585   1.080  -0.129
    3MOP   H118  118  -0.509   1.120  -0.283
    3MOP   H119  119  -0.411   1.050  -0.148
    3MOP   H120  120  -0.342   1.016  -0.408
    3MOP   H121  121  -0.172   0.878  -0.511
    3MOP   H122  122  -0.132   0.549  -0.192
    3MOP   H123  123  -0.137   0.382  -0.015
    3MOP   H124  124  -0.307   0.210  -0.010
    3MOP   H125  125  -0.515   0.416  -0.328
    3MOP   H126  126  -0.514   0.121  -0.232
    3MOP   H127  127  -0.726   0.182  -0.254
    3MOP   H128  128  -0.646   0.154   0.032
    3MOP   H129  129  -0.475   0.118   0.042
    3MOP   H130  130  -0.582   0.013  -0.048
    3MOP   H131  131   0.025   0.771  -0.460
    3MOP   H132  132   0.211   0.645  -0.553
    4MOP   C133  133  -0.750   0.348  -0.152
    4MOP   O134  134  -0.867   0.350  -0.189
    4MOP   C135  135  -0.699   0.463  -0.072
    4MOP   C136  136  -0.614   0.456   0.040
    4MOP   C137  137  -0.571   0.574   0.106
    4MOP   C138  138  -0.614   0.701   0.065
    4MOP   C139  139  -0.580   0.828   0.135
    4MOP   C140  140  -0.452   0.870   0.183
    4MOP   C141  141  -0.440   1.000   0.238
    4MOP   C142  142  -0.547   1.088   0.248
    4MOP   O143  143  -0.516   1.211   0.299
    4MOP   C144  144  -0.616   1.311   0.288
    4MOP   C145  145  -0.672   1.047   0.207
    4MOP   C146  146  -0.688   0.919   0.153
    4MOP   C147  147  -0.326   0.793   0.176
    4MOP   C148  148  -0.268   0.761   0.053
    4MOP   C149  149  -0.143   0.700   0.048
    4MOP   C150  150  -0.076   0.663   0.164
    4MOP   C151  151  -0.128   0.695   0.289
    4MOP   C152  152  -0.251   0.763   0.292
    4MOP   C153  153  -0.051   0.654   0.414
    4MOP   N154  154  -0.130   0.565   0.499
    4MOP   C155  155   0.014   0.771   0.486
    4MOP   C156  156  -0.701   0.704  -0.046
    4MOP   C157  157  -0.744   0.589  -0.112
    4MOP   H158  158  -0.580   0.361   0.078
    4MOP   H159  159  -0.506   0.564   0.192
    4MOP   H160  160  -0.342   1.034   0.272
    4MOP   H161  161  -0.574   1.406   0.324
    4MOP   H162  162  -0.703   1.288   0.350
    4MOP   H163  163  -0.646   1.326   0.183
    4MOP   H164  164  -0.760   1.110   0.214
    4MOP   H165  165  -0.788   0.890   0.123
    4MOP   H166  166  -0.318   0.788  -0.040
    4MOP   H167  167  -0.097   0.683  -0.048
    4MOP   H168  168   0.018   0.610   0.155
    4MOP   H169  169  -0.290   0.797   0.388
    4MOP   H170  170   0.031   0.589   0.382
    4MOP   H171  171  -0.142   0.472   0.463
    4MOP   H172  172  -0.059   0.845   0.521
    4MOP   H173  173   0.083   0.823   0.418
    4MOP   H174  174   0.072   0.737   0.572
    4MOP   H175  175  -0.736   0.800  -0.086
    4MOP   H176  176  -0.810   0.598  -0.198
    5CAP   C177  177  -0.315  -0.830  -0.028
    5CAP   O178  178  -0.240  -0.711  -0.042
    5CAP   H179  179  -0.404  -0.810   0.032
    5CAP   H180  180  -0.253  -0.903   0.026
    5CAP   H181  181  -0.343  -0.872  -0.126
    6CAP   C182  182  -0.559   0.438   0.514
    6CAP   C183  183  -0.477   0.551   0.578
    6CAP   C184  184  -0.522   0.682   0.513
    6CAP   C185  185  -0.500   0.552   0.729
    6CAP   O186  186  -0.339   0.517   0.549
    6CAP   C187  187  -0.240   0.608   0.567
    6CAP   O188  188  -0.251   0.716   0.623
    6CAP   H189  189  -0.666   0.450   0.532
    6CAP   H190  190  -0.543   0.435   0.406
    6CAP   H191  191  -0.528   0.340   0.552
    6CAP   H192  192  -0.501   0.681   0.406
    6CAP   H193  193  -0.472   0.770   0.555
    6CAP   H194  194  -0.630   0.698   0.525
    6CAP   H195  195  -0.470   0.456   0.773
    6CAP   H196  196  -0.441   0.629   0.778
    6CAP   H197  197  -0.605   0.570   0.753
  5.0000000  5.0000000  5.0000000
