Generated by Interchange
197
    1MOP     C1    1  -0.339  -0.474   0.014
    1MOP     O2    2  -0.379  -0.532  -0.085
    1MOP     C3    3  -0.296  -0.333   0.014
    1MOP     C4    4  -0.199  -0.283   0.102
    1MOP     C5    5  -0.166  -0.147   0.099
    1MOP     C6    6  -0.230  -0.059   0.010
    1MOP     C7    7  -0.198   0.086   0.007
    1MOP     C8    8  -0.070   0.135  -0.026
    1MOP     C9    9  -0.046   0.274  -0.018
    1MOP    C10   10  -0.145   0.364   0.017
    1MOP    O11   11  -0.104   0.494   0.023
    1MOP    C12   12  -0.204   0.591   0.052
    1MOP    C13   13  -0.273   0.316   0.044
    1MOP    C14   14  -0.299   0.178   0.039
    1MOP    C15   15   0.040   0.047  -0.065
    1MOP    C16   16   0.032  -0.038  -0.177
    1MOP    C17   17   0.136  -0.125  -0.209
    1MOP    C18   18   0.251  -0.124  -0.131
    1MOP    C19   19   0.262  -0.038  -0.021
    1MOP    C20   20   0.156   0.047   0.012
    1MOP    C21   21   0.383  -0.039   0.069
    1MOP    N22   22   0.386  -0.171   0.130
    1MOP    C23   23   0.504  -0.005  -0.018
    1MOP    C24   24  -0.325  -0.111  -0.079
    1MOP    C25   25  -0.358  -0.247  -0.077
    1MOP    H26   26  -0.148  -0.349   0.172
    1MOP    H27   27  -0.090  -0.110   0.167
    1MOP    H28   28   0.054   0.312  -0.039
    1MOP    H29   29  -0.155   0.689   0.053
    1MOP    H30   30  -0.248   0.574   0.151
    1MOP    H31   31  -0.280   0.593  -0.026
    1MOP    H32   32  -0.355   0.382   0.069
    1MOP    H33   33  -0.399   0.143   0.063
    1MOP    H34   34  -0.058  -0.039  -0.238
    1MOP    H35   35   0.128  -0.193  -0.293
    1MOP    H36   36   0.331  -0.193  -0.155
    1MOP    H37   37   0.163   0.109   0.101
    1MOP    H38   38   0.374   0.036   0.149
    1MOP    H39   39   0.415  -0.243   0.067
    1MOP    H40   40   0.534  -0.088  -0.083
    1MOP    H41   41   0.590   0.023   0.041
    1MOP    H42   42   0.483   0.082  -0.083
    1MOP    H43   43  -0.375  -0.046  -0.150
    1MOP    H44   44  -0.432  -0.286  -0.147
    2MOP    C45   45   0.291  -0.205   0.226
    2MOP    O46   46   0.245  -0.123   0.305
    2MOP    C47   47   0.237  -0.346   0.223
    2MOP    C48   48   0.288  -0.444   0.136
    2MOP    C49   49   0.225  -0.568   0.123
    2MOP    C50   50   0.111  -0.600   0.198
    2MOP    C51   51   0.045  -0.731   0.182
    2MOP    C52   52   0.103  -0.852   0.225
    2MOP    C53   53   0.039  -0.975   0.198
    2MOP    C54   54  -0.082  -0.981   0.130
    2MOP    O55   55  -0.131  -1.107   0.109
    2MOP    C56   56  -0.268  -1.115   0.075
    2MOP    C57   57  -0.137  -0.863   0.083
    2MOP    C58   58  -0.075  -0.740   0.110
    2MOP    C59   59   0.239  -0.856   0.278
    2MOP    C60   60   0.277  -0.793   0.397
    2MOP    C61   61   0.410  -0.790   0.436
    2MOP    C62   62   0.506  -0.852   0.356
    2MOP    C63   63   0.468  -0.918   0.238
    2MOP    C64   64   0.336  -0.919   0.200
    2MOP    C65   65   0.569  -0.983   0.147
    2MOP    N66   66   0.657  -0.878   0.100
    2MOP    C67   67   0.635  -1.094   0.229
    2MOP    C68   68   0.064  -0.504   0.289
    2MOP    C69   69   0.126  -0.379   0.301
    2MOP    H70   70   0.375  -0.428   0.076
    2MOP    H71   71   0.266  -0.641   0.054
    2MOP    H72   72   0.086  -1.069   0.229
    2MOP    H73   73  -0.296  -1.221   0.073
    2MOP    H74   74  -0.288  -1.074  -0.025
    2MOP    H75   75  -0.330  -1.066   0.151
    2MOP    H76   76  -0.227  -0.863   0.022
    2MOP    H77   77  -0.118  -0.649   0.068
    2MOP    H78   78   0.202  -0.743   0.458
    2MOP    H79   79   0.440  -0.737   0.526
    2MOP    H80   80   0.611  -0.847   0.386
    2MOP    H81   81   0.308  -0.964   0.105
    2MOP    H82   82   0.520  -1.028   0.060
    2MOP    H83   83   0.725  -0.852   0.168
    2MOP    H84   84   0.704  -1.054   0.304
    2MOP    H85   85   0.690  -1.164   0.168
    2MOP    H86   86   0.559  -1.154   0.282
    2MOP    H87   87  -0.023  -0.526   0.352
    2MOP    H88   88   0.085  -0.305   0.371
    3MOP    C89   89   0.612  -0.781   0.012
    3MOP    O90   90   0.525  -0.803  -0.074
    3MOP    C91   91   0.661  -0.641   0.033
    3MOP    C92   92   0.753  -0.610   0.134
    3MOP    C93   93   0.785  -0.477   0.166
    3MOP    C94   94   0.728  -0.371   0.096
    3MOP    C95   95   0.760  -0.233   0.137
    3MOP    C96   96   0.881  -0.169   0.104
    3MOP    C97   97   0.899  -0.034   0.141
    3MOP    C98   98   0.804   0.036   0.216
    3MOP    O99   99   0.834   0.166   0.242
    3MOP   C100  100   0.721   0.252   0.262
    3MOP   C101  101   0.693  -0.033   0.263
    3MOP   C102  102   0.672  -0.166   0.224
    3MOP   C103  103   0.996  -0.244   0.054
    3MOP   C104  104   0.999  -0.308  -0.071
    3MOP   C105  105   1.106  -0.391  -0.104
    3MOP   C106  106   1.212  -0.410  -0.014
    3MOP   C107  107   1.211  -0.346   0.110
    3MOP   C108  108   1.103  -0.264   0.142
    3MOP   C109  109   1.316  -0.371   0.217
    3MOP   N110  110   1.313  -0.512   0.255
    3MOP   C111  111   1.455  -0.329   0.167
    3MOP   C112  112   0.642  -0.402  -0.011
    3MOP   C113  113   0.608  -0.535  -0.042
    3MOP   H114  114   0.801  -0.685   0.194
    3MOP   H115  115   0.854  -0.458   0.248
    3MOP   H116  116   0.992   0.017   0.114
    3MOP   H117  117   0.758   0.354   0.270
    3MOP   H118  118   0.669   0.228   0.355
    3MOP   H119  119   0.653   0.248   0.177
    3MOP   H120  120   0.619   0.014   0.326
    3MOP   H121  121   0.586  -0.218   0.264
    3MOP   H122  122   0.916  -0.298  -0.140
    3MOP   H123  123   1.106  -0.444  -0.199
    3MOP   H124  124   1.292  -0.478  -0.042
    3MOP   H125  125   1.098  -0.219   0.242
    3MOP   H126  126   1.293  -0.313   0.307
    3MOP   H127  127   1.365  -0.572   0.194
    3MOP   H128  128   1.487  -0.388   0.081
    3MOP   H129  129   1.530  -0.342   0.246
    3MOP   H130  130   1.454  -0.224   0.137
    3MOP   H131  131   0.599  -0.321  -0.071
    3MOP   H132  132   0.537  -0.555  -0.123
    4MOP   C133  133   1.199  -0.562   0.318
    4MOP   O134  134   1.136  -0.498   0.402
    4MOP   C135  135   1.149  -0.696   0.272
    4MOP   C136  136   1.204  -0.760   0.161
    4MOP   C137  137   1.151  -0.878   0.110
    4MOP   C138  138   1.038  -0.936   0.167
    4MOP   C139  139   0.984  -1.059   0.108
    4MOP   C140  140   1.036  -1.188   0.135
    4MOP   C141  141   0.972  -1.301   0.080
    4MOP   C142  142   0.862  -1.289  -0.005
    4MOP   O143  143   0.806  -1.406  -0.047
    4MOP   C144  144   0.667  -1.400  -0.079
    4MOP   C145  145   0.822  -1.162  -0.045
    4MOP   C146  146   0.884  -1.049   0.010
    4MOP   C147  147   1.168  -1.204   0.197
    4MOP   C148  148   1.198  -1.167   0.329
    4MOP   C149  149   1.330  -1.170   0.375
    4MOP   C150  150   1.434  -1.211   0.290
    4MOP   C151  151   1.407  -1.250   0.159
    4MOP   C152  152   1.274  -1.247   0.114
    4MOP   C153  153   1.515  -1.288   0.059
    4MOP   N154  154   1.597  -1.173   0.025
    4MOP   C155  155   1.596  -1.407   0.107
    4MOP   C156  156   0.982  -0.873   0.280
    4MOP   C157  157   1.037  -0.754   0.332
    4MOP   H158  158   1.288  -0.717   0.108
    4MOP   H159  159   1.198  -0.925   0.024
    4MOP   H160  160   1.011  -1.400   0.102
    4MOP   H161  161   0.633  -1.502  -0.100
    4MOP   H162  162   0.649  -1.341  -0.169
    4MOP   H163  163   0.608  -1.363   0.006
    4MOP   H164  164   0.741  -1.147  -0.116
    4MOP   H165  165   0.852  -0.951  -0.025
    4MOP   H166  166   1.120  -1.131   0.394
    4MOP   H167  167   1.352  -1.138   0.476
    4MOP   H168  168   1.536  -1.209   0.327
    4MOP   H169  169   1.252  -1.271   0.010
    4MOP   H170  170   1.466  -1.319  -0.035
    4MOP   H171  171   1.679  -1.151   0.080
    4MOP   H172  172   1.651  -1.386   0.199
    4MOP   H173  173   1.669  -1.437   0.031
    4MOP   H174  174   1.531  -1.493   0.126
    4MOP   H175  175   0.895  -0.916   0.328
    4MOP   H176  176   0.989  -0.704   0.416
    5CAP   C177  177  -0.396  -0.653   0.155
    5CAP   O178  178  -0.337  -0.523   0.141
    5CAP   H179  179  -0.501  -0.642   0.181
    5CAP   H180  180  -0.344  -0.705   0.237
    5CAP   H181  181  -0.387  -0.713   0.064
    6CAP   C182  182   1.718  -0.752  -0.120
    6CAP   C183  183   1.594  -0.842  -0.117
    6CAP   C184  184   1.490  -0.776  -0.027
    6CAP   C185  185   1.540  -0.857  -0.260
    6CAP   O186  186   1.635  -0.968  -0.057
    6CAP   C187  187   1.547  -1.072  -0.051
    6CAP   O188  188   1.436  -1.073  -0.103
    6CAP   H189  189   1.694  -0.653  -0.160
    6CAP   H190  190   1.760  -0.740  -0.019
    6CAP   H191  191   1.797  -0.797  -0.182
    6CAP   H192  192   1.524  -0.771   0.077
    6CAP   H193  193   1.398  -0.835  -0.028
    6CAP   H194  194   1.465  -0.674  -0.061
    6CAP   H195  195   1.609  -0.917  -0.321
    6CAP   H196  196   1.443  -0.906  -0.263
    6CAP   H197  197   1.526  -0.759  -0.307
  5.0000000  5.0000000  5.0000000
