Generated by Interchange
197
    1MOP     C1    1  -0.344  -0.473   0.004
    1MOP     O2    2  -0.387  -0.528  -0.096
    1MOP     C3    3  -0.298  -0.332   0.005
    1MOP     C4    4  -0.201  -0.285   0.094
    1MOP     C5    5  -0.168  -0.149   0.094
    1MOP     C6    6  -0.231  -0.058   0.007
    1MOP     C7    7  -0.198   0.086   0.006
    1MOP     C8    8  -0.071   0.135  -0.028
    1MOP     C9    9  -0.046   0.274  -0.019
    1MOP    C10   10  -0.145   0.364   0.018
    1MOP    O11   11  -0.103   0.494   0.022
    1MOP    C12   12  -0.202   0.592   0.051
    1MOP    C13   13  -0.272   0.316   0.047
    1MOP    C14   14  -0.298   0.178   0.041
    1MOP    C15   15   0.040   0.048  -0.068
    1MOP    C16   16   0.033  -0.036  -0.180
    1MOP    C17   17   0.138  -0.121  -0.213
    1MOP    C18   18   0.253  -0.121  -0.134
    1MOP    C19   19   0.262  -0.036  -0.023
    1MOP    C20   20   0.155   0.047   0.010
    1MOP    C21   21   0.382  -0.038   0.068
    1MOP    N22   22   0.385  -0.170   0.129
    1MOP    C23   23   0.505  -0.003  -0.017
    1MOP    C24   24  -0.326  -0.109  -0.084
    1MOP    C25   25  -0.359  -0.244  -0.085
    1MOP    H26   26  -0.151  -0.353   0.163
    1MOP    H27   27  -0.091  -0.114   0.164
    1MOP    H28   28   0.054   0.312  -0.042
    1MOP    H29   29  -0.153   0.689   0.051
    1MOP    H30   30  -0.246   0.576   0.151
    1MOP    H31   31  -0.280   0.592  -0.026
    1MOP    H32   32  -0.353   0.382   0.075
    1MOP    H33   33  -0.398   0.143   0.067
    1MOP    H34   34  -0.057  -0.038  -0.242
    1MOP    H35   35   0.130  -0.188  -0.297
    1MOP    H36   36   0.334  -0.188  -0.159
    1MOP    H37   37   0.160   0.109   0.100
    1MOP    H38   38   0.372   0.037   0.148
    1MOP    H39   39   0.414  -0.242   0.066
    1MOP    H40   40   0.539  -0.087  -0.077
    1MOP    H41   41   0.588   0.030   0.044
    1MOP    H42   42   0.483   0.081  -0.084
    1MOP    H43   43  -0.374  -0.042  -0.154
    1MOP    H44   44  -0.433  -0.280  -0.156
    2MOP    C45   45   0.290  -0.204   0.225
    2MOP    O46   46   0.244  -0.121   0.304
    2MOP    C47   47   0.236  -0.344   0.222
    2MOP    C48   48   0.286  -0.442   0.136
    2MOP    C49   49   0.224  -0.567   0.125
    2MOP    C50   50   0.110  -0.599   0.201
    2MOP    C51   51   0.045  -0.731   0.186
    2MOP    C52   52   0.104  -0.852   0.227
    2MOP    C53   53   0.040  -0.975   0.201
    2MOP    C54   54  -0.082  -0.981   0.135
    2MOP    O55   55  -0.130  -1.107   0.114
    2MOP    C56   56  -0.267  -1.116   0.077
    2MOP    C57   57  -0.139  -0.862   0.091
    2MOP    C58   58  -0.077  -0.739   0.117
    2MOP    C59   59   0.240  -0.856   0.280
    2MOP    C60   60   0.278  -0.792   0.399
    2MOP    C61   61   0.412  -0.790   0.438
    2MOP    C62   62   0.507  -0.852   0.360
    2MOP    C63   63   0.470  -0.919   0.242
    2MOP    C64   64   0.336  -0.919   0.203
    2MOP    C65   65   0.569  -0.985   0.150
    2MOP    N66   66   0.658  -0.880   0.102
    2MOP    C67   67   0.637  -1.095   0.232
    2MOP    C68   68   0.063  -0.503   0.292
    2MOP    C69   69   0.125  -0.377   0.302
    2MOP    H70   70   0.373  -0.426   0.074
    2MOP    H71   71   0.265  -0.640   0.056
    2MOP    H72   72   0.088  -1.068   0.230
    2MOP    H73   73  -0.294  -1.222   0.073
    2MOP    H74   74  -0.284  -1.074  -0.023
    2MOP    H75   75  -0.331  -1.068   0.151
    2MOP    H76   76  -0.231  -0.863   0.034
    2MOP    H77   77  -0.122  -0.648   0.079
    2MOP    H78   78   0.204  -0.741   0.460
    2MOP    H79   79   0.442  -0.736   0.528
    2MOP    H80   80   0.612  -0.848   0.389
    2MOP    H81   81   0.309  -0.965   0.108
    2MOP    H82   82   0.520  -1.030   0.063
    2MOP    H83   83   0.726  -0.853   0.170
    2MOP    H84   84   0.706  -1.055   0.307
    2MOP    H85   85   0.692  -1.164   0.170
    2MOP    H86   86   0.562  -1.156   0.285
    2MOP    H87   87  -0.023  -0.524   0.354
    2MOP    H88   88   0.084  -0.303   0.371
    3MOP    C89   89   0.611  -0.783   0.014
    3MOP    O90   90   0.526  -0.806  -0.072
    3MOP    C91   91   0.662  -0.642   0.034
    3MOP    C92   92   0.753  -0.611   0.136
    3MOP    C93   93   0.784  -0.479   0.167
    3MOP    C94   94   0.728  -0.372   0.096
    3MOP    C95   95   0.759  -0.235   0.137
    3MOP    C96   96   0.880  -0.169   0.104
    3MOP    C97   97   0.898  -0.034   0.142
    3MOP    C98   98   0.803   0.034   0.218
    3MOP    O99   99   0.832   0.164   0.246
    3MOP   C100  100   0.719   0.250   0.264
    3MOP   C101  101   0.692  -0.036   0.264
    3MOP   C102  102   0.672  -0.168   0.225
    3MOP   C103  103   0.996  -0.244   0.054
    3MOP   C104  104   0.999  -0.308  -0.071
    3MOP   C105  105   1.107  -0.390  -0.105
    3MOP   C106  106   1.213  -0.408  -0.015
    3MOP   C107  107   1.212  -0.344   0.110
    3MOP   C108  108   1.103  -0.263   0.142
    3MOP   C109  109   1.317  -0.370   0.217
    3MOP   N110  110   1.312  -0.511   0.255
    3MOP   C111  111   1.456  -0.329   0.168
    3MOP   C112  112   0.642  -0.403  -0.011
    3MOP   C113  113   0.609  -0.537  -0.041
    3MOP   H114  114   0.801  -0.686   0.196
    3MOP   H115  115   0.854  -0.459   0.248
    3MOP   H116  116   0.991   0.017   0.116
    3MOP   H117  117   0.756   0.352   0.273
    3MOP   H118  118   0.665   0.226   0.356
    3MOP   H119  119   0.653   0.246   0.177
    3MOP   H120  120   0.618   0.011   0.329
    3MOP   H121  121   0.585  -0.221   0.264
    3MOP   H122  122   0.916  -0.298  -0.140
    3MOP   H123  123   1.107  -0.442  -0.200
    3MOP   H124  124   1.294  -0.475  -0.043
    3MOP   H125  125   1.098  -0.219   0.242
    3MOP   H126  126   1.294  -0.311   0.307
    3MOP   H127  127   1.366  -0.571   0.196
    3MOP   H128  128   1.488  -0.390   0.082
    3MOP   H129  129   1.530  -0.342   0.246
    3MOP   H130  130   1.456  -0.224   0.136
    3MOP   H131  131   0.599  -0.324  -0.071
    3MOP   H132  132   0.538  -0.558  -0.122
    4MOP   C133  133   1.198  -0.560   0.317
    4MOP   O134  134   1.133  -0.496   0.399
    4MOP   C135  135   1.149  -0.694   0.271
    4MOP   C136  136   1.204  -0.757   0.160
    4MOP   C137  137   1.151  -0.876   0.109
    4MOP   C138  138   1.040  -0.936   0.168
    4MOP   C139  139   0.986  -1.059   0.109
    4MOP   C140  140   1.037  -1.188   0.137
    4MOP   C141  141   0.972  -1.301   0.082
    4MOP   C142  142   0.863  -1.289  -0.004
    4MOP   O143  143   0.807  -1.406  -0.046
    4MOP   C144  144   0.668  -1.400  -0.078
    4MOP   C145  145   0.824  -1.162  -0.045
    4MOP   C146  146   0.886  -1.049   0.010
    4MOP   C147  147   1.170  -1.205   0.199
    4MOP   C148  148   1.200  -1.168   0.330
    4MOP   C149  149   1.332  -1.173   0.376
    4MOP   C150  150   1.435  -1.214   0.292
    4MOP   C151  151   1.408  -1.252   0.160
    4MOP   C152  152   1.275  -1.247   0.116
    4MOP   C153  153   1.515  -1.289   0.059
    4MOP   N154  154   1.597  -1.174   0.025
    4MOP   C155  155   1.598  -1.408   0.107
    4MOP   C156  156   0.984  -0.874   0.281
    4MOP   C157  157   1.038  -0.754   0.332
    4MOP   H158  158   1.285  -0.714   0.106
    4MOP   H159  159   1.198  -0.923   0.023
    4MOP   H160  160   1.011  -1.400   0.105
    4MOP   H161  161   0.634  -1.502  -0.097
    4MOP   H162  162   0.651  -1.341  -0.168
    4MOP   H163  163   0.610  -1.361   0.006
    4MOP   H164  164   0.744  -1.147  -0.117
    4MOP   H165  165   0.855  -0.951  -0.025
    4MOP   H166  166   1.121  -1.133   0.397
    4MOP   H167  167   1.354  -1.141   0.478
    4MOP   H168  168   1.537  -1.213   0.329
    4MOP   H169  169   1.253  -1.271   0.012
    4MOP   H170  170   1.466  -1.321  -0.034
    4MOP   H171  171   1.680  -1.152   0.079
    4MOP   H172  172   1.654  -1.386   0.198
    4MOP   H173  173   1.670  -1.438   0.030
    4MOP   H174  174   1.533  -1.494   0.127
    4MOP   H175  175   0.898  -0.917   0.330
    4MOP   H176  176   0.990  -0.705   0.417
    5CAP   C177  177  -0.404  -0.651   0.144
    5CAP   O178  178  -0.342  -0.523   0.130
    5CAP   H179  179  -0.510  -0.637   0.167
    5CAP   H180  180  -0.357  -0.703   0.227
    5CAP   H181  181  -0.394  -0.713   0.054
    6CAP   C182  182   1.719  -0.755  -0.122
    6CAP   C183  183   1.594  -0.844  -0.118
    6CAP   C184  184   1.491  -0.776  -0.028
    6CAP   C185  185   1.540  -0.859  -0.261
    6CAP   O186  186   1.635  -0.970  -0.058
    6CAP   C187  187   1.546  -1.073  -0.051
    6CAP   O188  188   1.435  -1.074  -0.103
    6CAP   H189  189   1.696  -0.656  -0.162
    6CAP   H190  190   1.760  -0.742  -0.021
    6CAP   H191  191   1.797  -0.800  -0.183
    6CAP   H192  192   1.527  -0.770   0.076
    6CAP   H193  193   1.400  -0.836  -0.027
    6CAP   H194  194   1.465  -0.676  -0.063
    6CAP   H195  195   1.608  -0.918  -0.323
    6CAP   H196  196   1.443  -0.909  -0.264
    6CAP   H197  197   1.525  -0.761  -0.308
  5.0000000  5.0000000  5.0000000
