FOO
 3367
    1MOP     C1    1   1.627   0.544   0.489
    1MOP     O2    2   1.624   0.448   0.412
    1MOP     C3    3   1.739   0.639   0.474
    1MOP     C4    4   1.736   0.764   0.538
    1MOP     C5    5   1.841   0.855   0.523
    1MOP     C6    6   1.951   0.825   0.442
    1MOP     C7    7   2.058   0.924   0.420
    1MOP     C8    8   2.129   0.987   0.525
    1MOP     C9    9   2.221   1.088   0.492
    1MOP    C10   10   2.245   1.128   0.360
    1MOP    O11   11   2.337   1.229   0.343
    1MOP    C12   12   2.367   1.272   0.209
    1MOP    C13   13   2.175   1.064   0.258
    1MOP    C14   14   2.083   0.963   0.288
    1MOP    C15   15   2.119   0.949   0.668
    1MOP    C16   16   2.120   0.814   0.708
    1MOP    C17   17   2.120   0.780   0.843
    1MOP    C18   18   2.121   0.880   0.941
    1MOP    C19   19   2.122   1.015   0.905
    1MOP    C20   20   2.118   1.048   0.768
    1MOP    C21   21   2.136   1.121   1.013
    1MOP    N22   22   2.012   1.186   1.054
    1MOP    C23   23   2.243   1.226   0.980
    1MOP    C24   24   1.955   0.700   0.378
    1MOP    C25   25   1.851   0.609   0.394
    1MOP    H26   26   1.651   0.793   0.600
    1MOP    H27   27   1.837   0.952   0.572
    1MOP    H28   28   2.279   1.137   0.570
    1MOP    H29   29   2.443   1.350   0.221
    1MOP    H30   30   2.274   1.310   0.167
    1MOP    H31   31   2.407   1.185   0.156
    1MOP    H32   32   2.189   1.091   0.154
    1MOP    H33   33   2.029   0.916   0.206
    1MOP    H34   34   2.124   0.736   0.633
    1MOP    H35   35   2.123   0.676   0.873
    1MOP    H36   36   2.124   0.850   1.045
    1MOP    H37   37   2.118   1.152   0.738
    1MOP    H38   38   2.173   1.069   1.102
    1MOP    H39   39   2.025   1.238   1.140
    1MOP    H40   40   2.207   1.286   0.896
    1MOP    H41   41   2.334   1.170   0.955
    1MOP    H42   42   2.255   1.286   1.071
    1MOP    H43   43   2.040   0.675   0.315
    1MOP    H44   44   1.857   0.513   0.343
    2MOP    C45   45   1.940   1.265   0.968
    2MOP    O46   46   1.940   1.383   1.002
    2MOP    C47   47   1.840   1.217   0.870
    2MOP    C48   48   1.794   1.084   0.870
    2MOP    C49   49   1.692   1.043   0.783
    2MOP    C50   50   1.639   1.132   0.688
    2MOP    C51   51   1.542   1.087   0.585
    2MOP    C52   52   1.423   1.014   0.612
    2MOP    C53   53   1.344   0.973   0.504
    2MOP    C54   54   1.374   1.005   0.372
    2MOP    O55   55   1.287   0.964   0.274
    2MOP    C56   56   1.270   1.053   0.162
    2MOP    C57   57   1.491   1.077   0.346
    2MOP    C58   58   1.574   1.117   0.451
    2MOP    C59   59   1.374   0.984   0.747
    2MOP    C60   60   1.346   1.087   0.839
    2MOP    C61   61   1.293   1.057   0.964
    2MOP    C62   62   1.271   0.925   1.003
    2MOP    C63   63   1.299   0.820   0.914
    2MOP    C64   64   1.347   0.852   0.785
    2MOP    C65   65   1.283   0.676   0.959
    2MOP    N66   66   1.413   0.620   0.926
    2MOP    C67   67   1.166   0.609   0.887
    2MOP    C68   68   1.686   1.264   0.686
    2MOP    C69   69   1.784   1.306   0.777
    2MOP    H70   70   1.835   1.012   0.940
    2MOP    H71   71   1.657   0.940   0.787
    2MOP    H72   72   1.252   0.919   0.523
    2MOP    H73   73   1.176   1.021   0.115
    2MOP    H74   74   1.356   1.038   0.097
    2MOP    H75   75   1.263   1.154   0.203
    2MOP    H76   76   1.520   1.103   0.245
    2MOP    H77   77   1.665   1.171   0.428
    2MOP    H78   78   1.364   1.190   0.811
    2MOP    H79   79   1.270   1.137   1.034
    2MOP    H80   80   1.233   0.903   1.102
    2MOP    H81   81   1.367   0.772   0.714
    2MOP    H82   82   1.268   0.672   1.067
    2MOP    H83   83   1.478   0.685   0.882
    2MOP    H84   84   1.187   0.613   0.780
    2MOP    H85   85   1.077   0.667   0.915
    2MOP    H86   86   1.161   0.507   0.925
    2MOP    H87   87   1.647   1.334   0.614
    2MOP    H88   88   1.817   1.410   0.774
    3MOP    C89   89   1.462   0.493   0.945
    3MOP    O90   90   1.391   0.404   0.990
    3MOP    C91   91   1.603   0.470   0.907
    3MOP    C92   92   1.690   0.579   0.884
    3MOP    C93   93   1.822   0.558   0.846
    3MOP    C94   94   1.872   0.429   0.833
    3MOP    C95   95   2.013   0.408   0.799
    3MOP    C96   96   2.104   0.347   0.888
    3MOP    C97   97   2.235   0.324   0.845
    3MOP    C98   98   2.280   0.362   0.718
    3MOP    O99   99   2.411   0.334   0.688
    3MOP   C100  100   2.468   0.392   0.571
    3MOP   C101  101   2.189   0.425   0.632
    3MOP   C102  102   2.057   0.448   0.672
    3MOP   C103  103   2.067   0.308   1.026
    3MOP   C104  104   2.097   0.180   1.074
    3MOP   C105  105   2.064   0.144   1.205
    3MOP   C106  106   2.000   0.235   1.289
    3MOP   C107  107   1.970   0.365   1.245
    3MOP   C108  108   2.004   0.400   1.113
    3MOP   C109  109   1.905   0.463   1.342
    3MOP   N110  110   1.828   0.573   1.282
    3MOP   C111  111   2.006   0.509   1.448
    3MOP   C112  112   1.787   0.320   0.854
    3MOP   C113  113   1.653   0.341   0.890
    3MOP   H114  114   1.658   0.682   0.897
    3MOP   H115  115   1.887   0.644   0.830
    3MOP   H116  116   2.307   0.278   0.912
    3MOP   H117  117   2.574   0.364   0.573
    3MOP   H118  118   2.454   0.501   0.580
    3MOP   H119  119   2.416   0.349   0.485
    3MOP   H120  120   2.218   0.457   0.532
    3MOP   H121  121   1.987   0.495   0.604
    3MOP   H122  122   2.146   0.108   1.009
    3MOP   H123  123   2.088   0.044   1.241
    3MOP   H124  124   1.976   0.205   1.390
    3MOP   H125  125   1.985   0.501   1.077
    3MOP   H126  126   1.831   0.404   1.397
    3MOP   H127  127   1.727   0.565   1.287
    3MOP   H128  128   2.092   0.551   1.395
    3MOP   H129  129   2.033   0.420   1.506
    3MOP   H130  130   1.955   0.584   1.509
    3MOP   H131  131   1.825   0.219   0.841
    3MOP   H132  132   1.588   0.255   0.905
    4MOP   C133  133   1.875   0.699   1.246
    4MOP   O134  134   1.995   0.717   1.231
    4MOP   C135  135   1.783   0.815   1.234
    4MOP   C136  136   1.643   0.801   1.247
    4MOP   C137  137   1.559   0.913   1.238
    4MOP   C138  138   1.611   1.042   1.219
    4MOP   C139  139   1.523   1.160   1.206
    4MOP   C140  140   1.426   1.194   1.303
    4MOP   C141  141   1.341   1.303   1.281
    4MOP   C142  142   1.351   1.382   1.166
    4MOP   O143  143   1.263   1.487   1.156
    4MOP   C144  144   1.245   1.549   1.027
    4MOP   C145  145   1.451   1.352   1.073
    4MOP   C146  146   1.536   1.242   1.093
    4MOP   C147  147   1.414   1.123   1.430
    4MOP   C148  148   1.503   1.152   1.534
    4MOP   C149  149   1.491   1.086   1.657
    4MOP   C150  150   1.391   0.991   1.675
    4MOP   C151  151   1.300   0.961   1.573
    4MOP   C152  152   1.313   1.028   1.450
    4MOP   C153  153   1.193   0.857   1.597
    4MOP   N154  154   1.247   0.722   1.583
    4MOP   C155  155   1.062   0.876   1.519
    4MOP   C156  156   1.749   1.056   1.206
    4MOP   C157  157   1.834   0.944   1.214
    4MOP   H158  158   1.597   0.705   1.263
    4MOP   H159  159   1.451   0.898   1.246
    4MOP   H160  160   1.266   1.329   1.355
    4MOP   H161  161   1.163   1.619   1.042
    4MOP   H162  162   1.220   1.469   0.957
    4MOP   H163  163   1.339   1.600   1.003
    4MOP   H164  164   1.465   1.411   0.983
    4MOP   H165  165   1.610   1.219   1.017
    4MOP   H166  166   1.580   1.227   1.519
    4MOP   H167  167   1.560   1.110   1.737
    4MOP   H168  168   1.383   0.940   1.771
    4MOP   H169  169   1.246   1.006   1.367
    4MOP   H170  170   1.165   0.867   1.702
    4MOP   H171  171   1.250   0.664   1.667
    4MOP   H172  172   1.083   0.860   1.413
    4MOP   H173  173   1.030   0.979   1.540
    4MOP   H174  174   0.992   0.802   1.559
    4MOP   H175  175   1.790   1.155   1.192
    4MOP   H176  176   1.941   0.960   1.203
    5CAP   C177  177   1.428   0.473   0.597
    5CAP   O178  178   1.531   0.573   0.581
    5CAP   H179  179   1.361   0.512   0.674
    5CAP   H180  180   1.478   0.382   0.629
    5CAP   H181  181   1.378   0.463   0.501
    6CAP   C182  182   1.342   0.294   1.456
    6CAP   C183  183   1.326   0.429   1.384
    6CAP   C184  184   1.456   0.460   1.308
    6CAP   C185  185   1.205   0.418   1.288
    6CAP   O186  186   1.301   0.523   1.491
    6CAP   C187  187   1.281   0.655   1.468
    6CAP   O188  188   1.290   0.713   1.361
    6CAP   H189  189   1.359   0.219   1.379
    6CAP   H190  190   1.429   0.306   1.523
    6CAP   H191  191   1.250   0.277   1.511
    6CAP   H192  192   1.532   0.481   1.384
    6CAP   H193  193   1.436   0.545   1.243
    6CAP   H194  194   1.480   0.370   1.249
    6CAP   H195  195   1.118   0.399   1.350
    6CAP   H196  196   1.198   0.513   1.234
    6CAP   H197  197   1.228   0.335   1.221
    7TCM     c1  198   4.292   0.463   2.689
    7TCM    cl1  199   4.429   0.411   2.584
    7TCM    cl2  200   4.341   0.607   2.784
    7TCM     h1  201   4.206   0.487   2.627
    7TCM    cl3  202   4.250   0.331   2.802
    8TCM     c1  203   1.338   1.985   4.522
    8TCM    cl1  204   1.254   1.974   4.680
    8TCM    cl2  205   1.457   2.119   4.527
    8TCM     h1  206   1.389   1.890   4.501
    8TCM    cl3  207   1.217   2.016   4.393
    9TCM     c1  208   1.598   2.109   1.112
    9TCM    cl1  209   1.529   2.031   0.966
    9TCM    cl2  210   1.663   2.270   1.067
    9TCM     h1  211   1.520   2.121   1.187
    9TCM    cl3  212   1.731   2.008   1.176
   10TCM     c1  213   2.676   0.475   3.552
   10TCM    cl1  214   2.574   0.621   3.575
   10TCM    cl2  215   2.790   0.458   3.690
   10TCM     h1  216   2.611   0.387   3.547
   10TCM    cl3  217   2.767   0.489   3.399
   11TCM     c1  218   2.179   1.750   2.834
   11TCM    cl1  219   2.118   1.919   2.834
   11TCM    cl2  220   2.281   1.724   2.978
   11TCM     h1  221   2.094   1.681   2.836
   11TCM    cl3  222   2.277   1.721   2.687
   12TCM     c1  223   0.195   1.393   0.227
   12TCM    cl1  224   0.151   1.250   0.327
   12TCM    cl2  225   0.108   1.538   0.291
   12TCM     h1  226   0.302   1.410   0.232
   12TCM    cl3  227   0.145   1.366   0.057
   13TCM     c1  228   2.856   0.824   2.424
   13TCM    cl1  229   2.697   0.904   2.444
   13TCM    cl2  230   2.834   0.664   2.347
   13TCM     h1  231   2.921   0.886   2.361
   13TCM    cl3  232   2.932   0.802   2.585
   14TCM     c1  233   3.578   3.943   4.649
   14TCM    cl1  234   3.473   3.872   4.522
   14TCM    cl2  235   3.571   4.122   4.638
   14TCM     h1  236   3.543   3.911   4.748
   14TCM    cl3  237   3.747   3.889   4.624
   15TCM     c1  238   0.386   3.894   3.445
   15TCM    cl1  239   0.532   3.799   3.488
   15TCM    cl2  240   0.431   4.020   3.324
   15TCM     h1  241   0.310   3.829   3.402
   15TCM    cl3  242   0.322   3.973   3.592
   16TCM     c1  243   3.863   1.131   2.575
   16TCM    cl1  244   3.916   1.195   2.734
   16TCM    cl2  245   4.007   1.091   2.475
   16TCM     h1  246   3.803   1.041   2.591
   16TCM    cl3  247   3.765   1.255   2.490
   17TCM     c1  248   4.909   2.846   4.378
   17TCM    cl1  249   4.913   3.007   4.458
   17TCM    cl2  250   4.739   2.803   4.340
   17TCM     h1  251   4.967   2.850   4.285
   17TCM    cl3  252   4.979   2.724   4.488
   18TCM     c1  253   0.533   2.662   1.292
   18TCM    cl1  254   0.477   2.770   1.425
   18TCM    cl2  255   0.502   2.491   1.336
   18TCM     h1  256   0.479   2.687   1.200
   18TCM    cl3  257   0.709   2.685   1.266
   19TCM     c1  258   1.421   1.716   2.043
   19TCM    cl1  259   1.260   1.749   2.113
   19TCM    cl2  260   1.436   1.540   2.014
   19TCM     h1  261   1.433   1.771   1.949
   19TCM    cl3  262   1.548   1.769   2.159
   20TCM     c1  263   4.252   4.334   0.577
   20TCM    cl1  264   4.367   4.468   0.612
   20TCM    cl2  265   4.317   4.232   0.445
   20TCM     h1  266   4.238   4.274   0.667
   20TCM    cl3  267   4.094   4.404   0.527
   21TCM     c1  268   2.480   0.145   3.751
   21TCM    cl1  269   2.527   0.040   3.888
   21TCM    cl2  270   2.605   0.134   3.623
   21TCM     h1  271   2.384   0.114   3.711
   21TCM    cl3  272   2.469   0.315   3.808
   22TCM     c1  273   2.634   1.647   2.873
   22TCM    cl1  274   2.764   1.574   2.974
   22TCM    cl2  275   2.666   1.610   2.700
   22TCM     h1  276   2.537   1.605   2.902
   22TCM    cl3  277   2.633   1.825   2.897
   23TCM     c1  278   0.681   2.972   4.839
   23TCM    cl1  279   0.771   3.107   4.764
   23TCM    cl2  280   0.690   2.827   4.734
   23TCM     h1  281   0.724   2.949   4.937
   23TCM    cl3  282   0.508   3.017   4.860
   24TCM     c1  283   4.499   3.525   2.132
   24TCM    cl1  284   4.421   3.686   2.114
   24TCM    cl2  285   4.378   3.396   2.101
   24TCM     h1  286   4.582   3.516   2.061
   24TCM    cl3  287   4.562   3.508   2.300
   25TCM     c1  288   0.455   3.665   4.713
   25TCM    cl1  289   0.292   3.651   4.639
   25TCM    cl2  290   0.438   3.673   4.891
   25TCM     h1  291   0.516   3.578   4.685
   25TCM    cl3  292   0.535   3.815   4.653
   26TCM     c1  293   2.156   1.157   3.322
   26TCM    cl1  294   2.292   1.269   3.354
   26TCM    cl2  295   2.198   1.054   3.181
   26TCM     h1  296   2.138   1.095   3.410
   26TCM    cl3  297   2.008   1.252   3.283
   27TCM     c1  298   1.216   1.944   2.433
   27TCM    cl1  299   1.067   1.959   2.334
   27TCM    cl2  300   1.190   2.027   2.590
   27TCM     h1  301   1.239   1.838   2.450
   27TCM    cl3  302   1.353   2.022   2.348
   28TCM     c1  303   3.133   4.530   4.766
   28TCM    cl1  304   3.196   4.525   4.597
   28TCM    cl2  305   2.998   4.414   4.783
   28TCM     h1  306   3.213   4.502   4.834
   28TCM    cl3  307   3.076   4.695   4.804
   29TCM     c1  308   2.775   2.486   2.037
   29TCM    cl1  309   2.642   2.452   1.921
   29TCM    cl2  310   2.707   2.557   2.187
   29TCM     h1  311   2.827   2.393   2.061
   29TCM    cl3  312   2.891   2.602   1.963
   30TCM     c1  313   2.935   2.169   4.992
   30TCM    cl1  314   2.936   2.087   0.152
   30TCM    cl2  315   2.981   2.341   0.013
   30TCM     h1  316   3.006   2.120   4.926
   30TCM    cl3  317   2.770   2.160   4.921
   31TCM     c1  318   4.917   0.138   1.013
   31TCM    cl1  319   4.782   0.160   0.898
   31TCM    cl2  320   4.870   0.207   1.172
   31TCM     h1  321   4.939   0.031   1.025
   31TCM    cl3  322   0.063   0.223   0.953
   32TCM     c1  323   2.996   0.776   1.073
   32TCM    cl1  324   3.086   0.639   1.146
   32TCM    cl2  325   2.931   0.726   0.913
   32TCM     h1  326   2.914   0.805   1.139
   32TCM    cl3  327   3.107   0.916   1.051
   33TCM     c1  328   4.033   3.181   1.803
   33TCM    cl1  329   3.911   3.052   1.824
   33TCM    cl2  330   4.048   3.276   1.955
   33TCM     h1  331   4.130   3.137   1.778
   33TCM    cl3  332   3.982   3.291   1.670
   34TCM     c1  333   1.123   0.986   3.520
   34TCM    cl1  334   0.970   0.908   3.467
   34TCM    cl2  335   1.113   1.022   3.695
   34TCM     h1  336   1.207   0.919   3.501
   34TCM    cl3  337   1.148   1.139   3.429
   35TCM     c1  338   2.715   3.609   3.237
   35TCM    cl1  339   2.858   3.697   3.174
   35TCM    cl2  340   2.624   3.716   3.349
   35TCM     h1  341   2.650   3.580   3.154
   35TCM    cl3  342   2.768   3.464   3.327
   36TCM     c1  343   0.249   0.901   2.566
   36TCM    cl1  344   0.287   0.857   2.396
   36TCM    cl2  345   0.100   1.001   2.570
   36TCM     h1  346   0.233   0.810   2.625
   36TCM    cl3  347   0.386   0.995   2.635
   37TCM     c1  348   4.762   1.889   2.075
   37TCM    cl1  349   4.589   1.844   2.091
   37TCM    cl2  350   4.781   2.014   1.948
   37TCM     h1  351   4.799   1.928   2.171
   37TCM    cl3  352   4.857   1.744   2.029
   38TCM     c1  353   1.408   3.698   2.063
   38TCM    cl1  354   1.446   3.863   2.123
   38TCM    cl2  355   1.318   3.711   1.909
   38TCM     h1  356   1.501   3.643   2.046
   38TCM    cl3  357   1.309   3.613   2.185
   39TCM     c1  358   3.729   1.410   2.141
   39TCM    cl1  359   3.606   1.279   2.147
   39TCM    cl2  360   3.655   1.562   2.202
   39TCM     h1  361   3.815   1.384   2.203
   39TCM    cl3  362   3.781   1.434   1.971
   40TCM     c1  363   0.832   2.217   1.792
   40TCM    cl1  364   0.687   2.220   1.686
   40TCM    cl2  365   0.788   2.284   1.952
   40TCM     h1  366   0.867   2.114   1.803
   40TCM    cl3  367   0.962   2.318   1.721
   41TCM     c1  368   2.263   3.854   1.732
   41TCM    cl1  369   2.182   3.973   1.839
   41TCM    cl2  370   2.142   3.781   1.622
   41TCM     h1  371   2.340   3.905   1.673
   41TCM    cl3  372   2.338   3.725   1.832
   42TCM     c1  373   0.827   4.366   1.013
   42TCM    cl1  374   0.942   4.290   0.898
   42TCM    cl2  375   0.715   4.472   0.923
   42TCM     h1  376   0.770   4.288   1.065
   42TCM    cl3  377   0.918   4.463   1.133
   43TCM     c1  378   0.450   1.054   4.718
   43TCM    cl1  379   0.359   0.978   4.583
   43TCM    cl2  380   0.482   0.931   4.844
   43TCM     h1  381   0.545   1.093   4.680
   43TCM    cl3  382   0.353   1.187   4.789
   44TCM     c1  383   1.211   3.691   4.812
   44TCM    cl1  384   1.090   3.727   4.940
   44TCM    cl2  385   1.242   3.839   4.716
   44TCM     h1  386   1.304   3.656   4.858
   44TCM    cl3  387   1.146   3.562   4.704
   45TCM     c1  388   0.260   0.604   4.617
   45TCM    cl1  389   0.408   0.602   4.515
   45TCM    cl2  390   0.244   0.447   4.702
   45TCM     h1  391   0.267   0.685   4.690
   45TCM    cl3  392   0.117   0.629   4.512
   46TCM     c1  393   1.212   4.253   2.078
   46TCM    cl1  394   1.246   4.135   1.946
   46TCM    cl2  395   1.045   4.315   2.062
   46TCM     h1  396   1.224   4.203   2.175
   46TCM    cl3  397   1.328   4.389   2.066
   47TCM     c1  398   3.478   4.193   4.986
   47TCM    cl1  399   3.518   4.169   0.160
   47TCM    cl2  400   3.395   4.350   4.965
   47TCM     h1  401   3.571   4.193   4.927
   47TCM    cl3  402   3.371   4.061   4.931
   48TCM     c1  403   1.573   1.602   1.299
   48TCM    cl1  404   1.724   1.541   1.224
   48TCM    cl2  405   1.507   1.737   1.200
   48TCM     h1  406   1.500   1.522   1.305
   48TCM    cl3  407   1.608   1.662   1.464
   49TCM     c1  408   3.284   0.479   2.179
   49TCM    cl1  409   3.410   0.589   2.244
   49TCM    cl2  410   3.344   0.405   2.027
   49TCM     h1  411   3.262   0.400   2.252
   49TCM    cl3  412   3.136   0.573   2.145
   50TCM     c1  413   0.089   0.603   2.003
   50TCM    cl1  414   0.153   0.566   1.840
   50TCM    cl2  415   0.221   0.594   2.124
   50TCM     h1  416   0.045   0.704   2.003
   50TCM    cl3  417   4.963   0.483   2.045
   51TCM     c1  418   3.512   2.581   0.904
   51TCM    cl1  419   3.357   2.601   0.993
   51TCM    cl2  420   3.646   2.644   1.006
   51TCM     h1  421   3.529   2.475   0.882
   51TCM    cl3  422   3.505   2.674   0.751
   52TCM     c1  423   4.994   1.799   3.281
   52TCM    cl1  424   4.849   1.830   3.180
   52TCM    cl2  425   0.102   1.684   3.195
   52TCM     h1  426   0.047   1.892   3.299
   52TCM    cl3  427   4.943   1.726   3.437
   53TCM     c1  428   2.148   3.432   2.238
   53TCM    cl1  429   1.993   3.377   2.165
   53TCM    cl2  430   2.264   3.476   2.108
   53TCM     h1  431   2.130   3.519   2.302
   53TCM    cl3  432   2.216   3.298   2.337
   54TCM     c1  433   0.400   0.061   4.567
   54TCM    cl1  434   0.276   0.130   4.458
   54TCM    cl2  435   0.320   4.964   4.695
   54TCM     h1  436   0.467   4.996   4.509
   54TCM    cl3  437   0.494   0.194   4.643
   55TCM     c1  438   4.512   0.331   4.326
   55TCM    cl1  439   4.556   0.219   4.459
   55TCM    cl2  440   4.527   0.244   4.171
   55TCM     h1  441   4.409   0.365   4.340
   55TCM    cl3  442   4.622   0.472   4.327
   56TCM     c1  443   3.685   4.646   1.513
   56TCM    cl1  444   3.642   4.565   1.667
   56TCM    cl2  445   3.704   4.523   1.383
   56TCM     h1  446   3.606   4.717   1.485
   56TCM    cl3  447   3.840   4.734   1.533
   57TCM     c1  448   4.471   4.306   4.933
   57TCM    cl1  449   4.626   4.262   4.854
   57TCM    cl2  450   4.488   4.288   0.111
   57TCM     h1  451   4.447   4.410   4.909
   57TCM    cl3  452   4.339   4.199   4.874
   58TCM     c1  453   3.827   4.175   1.545
   58TCM    cl1  454   3.928   4.299   1.627
   58TCM    cl2  455   3.851   4.187   1.367
   58TCM     h1  456   3.856   4.075   1.579
   58TCM    cl3  457   3.655   4.205   1.584
   59TCM     c1  458   3.694   3.806   3.295
   59TCM    cl1  459   3.676   3.872   3.461
   59TCM    cl2  460   3.818   3.675   3.297
   59TCM     h1  461   3.599   3.765   3.260
   59TCM    cl3  462   3.750   3.935   3.184
   60TCM     c1  463   0.209   0.814   3.096
   60TCM    cl1  464   0.228   0.805   2.917
   60TCM    cl2  465   0.285   0.670   3.172
   60TCM     h1  466   0.258   0.905   3.132
   60TCM    cl3  467   0.035   0.820   3.137
   61TCM     c1  468   2.942   2.647   2.837
   61TCM    cl1  469   2.860   2.502   2.902
   61TCM    cl2  470   3.046   2.720   2.964
   61TCM     h1  471   3.004   2.619   2.751
   61TCM    cl3  472   2.819   2.767   2.786
   62TCM     c1  473   3.579   2.307   2.482
   62TCM    cl1  474   3.607   2.472   2.546
   62TCM    cl2  475   3.545   2.195   2.617
   62TCM     h1  476   3.495   2.308   2.413
   62TCM    cl3  477   3.726   2.251   2.395
   63TCM     c1  478   4.991   0.533   2.418
   63TCM    cl1  479   0.097   0.565   2.559
   63TCM    cl2  480   4.934   0.690   2.351
   63TCM     h1  481   0.047   0.479   2.341
   63TCM    cl3  482   4.851   0.434   2.471
   64TCM     c1  483   0.074   0.386   2.891
   64TCM    cl1  484   0.242   0.445   2.866
   64TCM    cl2  485   4.999   0.474   3.028
   64TCM     h1  486   0.015   0.402   2.801
   64TCM    cl3  487   0.080   0.212   2.930
   65TCM     c1  488   0.026   3.571   1.172
   65TCM    cl1  489   4.909   3.617   1.300
   65TCM    cl2  490   0.133   3.710   1.134
   65TCM     h1  491   0.087   3.487   1.207
   65TCM    cl3  492   4.936   3.523   1.024
   66TCM     c1  493   1.553   3.484   0.743
   66TCM    cl1  494   1.705   3.540   0.667
   66TCM    cl2  495   1.421   3.486   0.622
   66TCM     h1  496   1.567   3.383   0.782
   66TCM    cl3  497   1.511   3.595   0.879
   67TCM     c1  498   2.668   4.312   3.959
   67TCM    cl1  499   2.529   4.205   3.993
   67TCM    cl2  500   2.799   4.275   4.076
   67TCM     h1  501   2.704   4.296   3.857
   67TCM    cl3  502   2.615   4.482   3.979
   68TCM     c1  503   4.759   1.487   0.195
   68TCM    cl1  504   4.588   1.520   0.238
   68TCM    cl2  505   4.792   1.546   0.029
   68TCM     h1  506   4.825   1.538   0.266
   68TCM    cl3  507   4.789   1.310   0.203
   69TCM     c1  508   2.850   4.592   4.362
   69TCM    cl1  509   2.877   4.685   4.513
   69TCM    cl2  510   2.675   4.589   4.324
   69TCM     h1  511   2.904   4.639   4.280
   69TCM    cl3  512   2.911   4.425   4.385
   70TCM     c1  513   3.714   4.037   1.996
   70TCM    cl1  514   3.590   3.916   2.045
   70TCM    cl2  515   3.633   4.194   1.961
   70TCM     h1  516   3.787   4.050   2.076
   70TCM    cl3  517   3.796   3.980   1.847
   71TCM     c1  518   0.873   0.470   3.372
   71TCM    cl1  519   0.979   0.334   3.320
   71TCM    cl2  520   0.726   0.404   3.452
   71TCM     h1  521   0.927   0.534   3.442
   71TCM    cl3  522   0.824   0.566   3.229
   72TCM     c1  523   0.887   1.456   2.386
   72TCM    cl1  524   0.958   1.596   2.300
   72TCM    cl2  525   0.723   1.500   2.446
   72TCM     h1  526   0.879   1.371   2.318
   72TCM    cl3  527   0.992   1.413   2.525
   73TCM     c1  528   0.946   0.639   2.326
   73TCM    cl1  529   1.051   0.603   2.467
   73TCM    cl2  530   0.985   0.525   2.193
   73TCM     h1  531   0.841   0.628   2.354
   73TCM    cl3  532   0.978   0.806   2.271
   74TCM     c1  533   2.795   0.910   3.603
   74TCM    cl1  534   2.861   1.077   3.596
   74TCM    cl2  535   2.775   0.861   3.775
   74TCM     h1  536   2.699   0.906   3.552
   74TCM    cl3  537   2.912   0.800   3.523
   75TCM     c1  538   4.673   4.821   1.128
   75TCM    cl1  539   4.558   4.954   1.092
   75TCM    cl2  540   4.773   4.865   1.270
   75TCM     h1  541   4.616   4.729   1.150
   75TCM    cl3  542   4.779   4.792   0.986
   76TCM     c1  543   0.340   4.356   0.274
   76TCM    cl1  544   0.385   4.443   0.425
   76TCM    cl2  545   0.248   4.467   0.166
   76TCM     h1  546   0.430   4.322   0.223
   76TCM    cl3  547   0.237   4.215   0.315
   77TCM     c1  548   2.493   3.272   1.934
   77TCM    cl1  549   2.649   3.351   1.974
   77TCM    cl2  550   2.445   3.166   2.071
   77TCM     h1  551   2.417   3.348   1.917
   77TCM    cl3  552   2.512   3.171   1.786
   78TCM     c1  553   0.306   2.938   0.882
   78TCM    cl1  554   0.135   2.901   0.922
   78TCM    cl2  555   0.362   2.826   0.754
   78TCM     h1  556   0.314   3.041   0.846
   78TCM    cl3  557   0.408   2.917   1.028
   79TCM     c1  558   3.279   3.423   0.856
   79TCM    cl1  559   3.272   3.561   0.741
   79TCM    cl2  560   3.176   3.460   0.999
   79TCM     h1  561   3.242   3.333   0.808
   79TCM    cl3  562   3.448   3.397   0.909
   80TCM     c1  563   3.053   3.087   4.934
   80TCM    cl1  564   3.122   3.253   4.943
   80TCM    cl2  565   3.051   3.015   0.098
   80TCM     h1  566   2.951   3.092   4.895
   80TCM    cl3  567   3.153   2.987   4.825
   81TCM     c1  568   1.085   1.549   1.872
   81TCM    cl1  569   1.007   1.396   1.818
   81TCM    cl2  570   0.960   1.661   1.933
   81TCM     h1  571   1.157   1.527   1.951
   81TCM    cl3  572   1.170   1.625   1.733
   82TCM     c1  573   1.706   2.456   4.722
   82TCM    cl1  574   1.748   2.400   4.556
   82TCM    cl2  575   1.856   2.476   4.818
   82TCM     h1  576   1.653   2.552   4.716
   82TCM    cl3  577   1.599   2.335   4.800
   83TCM     c1  578   2.022   4.085   3.940
   83TCM    cl1  579   2.189   4.056   3.999
   83TCM    cl2  580   1.914   4.115   4.081
   83TCM     h1  581   2.021   4.173   3.874
   83TCM    cl3  582   1.964   3.941   3.850
   84TCM     c1  583   0.546   0.142   0.012
   84TCM    cl1  584   0.627   0.008   4.925
   84TCM    cl2  585   0.669   0.268   0.050
   84TCM     h1  586   0.467   0.185   4.949
   84TCM    cl3  587   0.476   0.079   0.164
   85TCM     c1  588   1.066   0.482   2.803
   85TCM    cl1  589   1.224   0.414   2.752
   85TCM    cl2  590   1.088   0.651   2.859
   85TCM     h1  591   0.996   0.480   2.718
   85TCM    cl3  592   0.999   0.383   2.937
   86TCM     c1  593   4.500   3.177   3.126
   86TCM    cl1  594   4.600   3.243   2.992
   86TCM    cl2  595   4.604   3.082   3.237
   86TCM     h1  596   4.453   3.259   3.181
   86TCM    cl3  597   4.373   3.070   3.058
   87TCM     c1  598   3.120   4.746   0.159
   87TCM    cl1  599   3.285   4.798   0.206
   87TCM    cl2  600   3.003   4.792   0.288
   87TCM     h1  601   3.091   4.795   0.065
   87TCM    cl3  602   3.117   4.568   0.137
   88TCM     c1  603   1.786   0.020   3.508
   88TCM    cl1  604   1.627   0.050   3.430
   88TCM    cl2  605   1.858   0.176   3.559
   88TCM     h1  606   1.773   4.955   3.595
   88TCM    cl3  607   1.896   4.941   3.390
   89TCM     c1  608   0.861   0.782   3.828
   89TCM    cl1  609   0.858   0.722   3.997
   89TCM    cl2  610   0.710   0.872   3.793
   89TCM     h1  611   0.947   0.848   3.815
   89TCM    cl3  612   0.874   0.642   3.716
   90TCM     c1  613   1.999   0.427   2.555
   90TCM    cl1  614   2.063   0.357   2.708
   90TCM    cl2  615   1.862   0.327   2.496
   90TCM     h1  616   1.965   0.529   2.573
   90TCM    cl3  617   2.130   0.428   2.432
   91TCM     c1  618   1.127   1.159   2.127
   91TCM    cl1  619   1.200   1.108   1.971
   91TCM    cl2  620   0.949   1.149   2.115
   91TCM     h1  621   1.162   1.094   2.207
   91TCM    cl3  622   1.173   1.329   2.162
   92TCM     c1  623   1.327   1.700   4.901
   92TCM    cl1  624   1.391   1.639   0.056
   92TCM    cl2  625   1.154   1.655   4.885
   92TCM     h1  626   1.336   1.809   4.898
   92TCM    cl3  627   1.419   1.629   4.764
   93TCM     c1  628   4.258   3.070   2.258
   93TCM    cl1  629   4.189   2.926   2.341
   93TCM    cl2  630   4.292   3.028   2.086
   93TCM     h1  631   4.187   3.153   2.262
   93TCM    cl3  632   4.411   3.117   2.339
   94TCM     c1  633   2.843   4.916   1.224
   94TCM    cl1  634   2.800   4.753   1.160
   94TCM    cl2  635   2.892   0.023   1.089
   94TCM     h1  636   2.756   4.959   1.276
   94TCM    cl3  637   2.980   4.900   1.340
   95TCM     c1  638   4.273   2.613   3.101
   95TCM    cl1  639   4.378   2.713   2.996
   95TCM    cl2  640   4.369   2.552   3.240
   95TCM     h1  641   4.190   2.674   3.138
   95TCM    cl3  642   4.209   2.474   3.007
   96TCM     c1  643   4.304   0.643   3.569
   96TCM    cl1  644   4.145   0.640   3.653
   96TCM    cl2  645   4.283   0.595   3.398
   96TCM     h1  646   4.346   0.744   3.574
   96TCM    cl3  647   4.414   0.527   3.649
   97TCM     c1  648   4.083   0.893   3.169
   97TCM    cl1  649   4.063   1.061   3.111
   97TCM    cl2  650   4.085   0.893   3.349
   97TCM     h1  651   4.000   0.832   3.133
   97TCM    cl3  652   4.238   0.827   3.108
   98TCM     c1  653   2.099   0.165   3.058
   98TCM    cl1  654   2.071   0.221   3.226
   98TCM    cl2  655   2.021   0.005   3.035
   98TCM     h1  656   2.056   0.237   2.988
   98TCM    cl3  657   2.275   0.150   3.030
   99TCM     c1  658   0.440   4.359   3.513
   99TCM    cl1  659   0.282   4.339   3.430
   99TCM    cl2  660   0.423   4.312   3.685
   99TCM     h1  661   0.514   4.295   3.465
   99TCM    cl3  662   0.490   4.530   3.503
  100TCM     c1  663   0.429   1.933   4.866
  100TCM    cl1  664   0.262   1.892   4.920
  100TCM    cl2  665   0.447   1.892   4.692
  100TCM     h1  666   0.448   2.039   4.881
  100TCM    cl3  667   0.545   1.835   4.962
  101TCM     c1  668   0.988   0.102   0.063
  101TCM    cl1  669   0.983   0.165   0.230
  101TCM    cl2  670   0.958   4.925   0.065
  101TCM     h1  671   0.911   0.151   0.002
  101TCM    cl3  672   1.149   0.134   4.991
  102TCM     c1  673   0.708   2.016   1.016
  102TCM    cl1  674   0.566   2.073   1.108
  102TCM    cl2  675   0.654   1.909   0.882
  102TCM     h1  676   0.762   2.102   0.974
  102TCM    cl3  677   0.816   1.925   1.126
  103TCM     c1  678   4.937   1.603   2.392
  103TCM    cl1  679   0.083   1.662   2.305
  103TCM    cl2  680   4.866   1.464   2.304
  103TCM     h1  681   4.965   1.572   2.493
  103TCM    cl3  682   4.816   1.736   2.402
  104TCM     c1  683   2.910   1.252   2.429
  104TCM    cl1  684   2.874   1.177   2.270
  104TCM    cl2  685   3.027   1.148   2.517
  104TCM     h1  686   2.953   1.351   2.415
  104TCM    cl3  687   2.759   1.265   2.526
  105TCM     c1  688   3.023   0.428   2.615
  105TCM    cl1  689   3.148   0.499   2.508
  105TCM    cl2  690   3.043   0.494   2.781
  105TCM     h1  691   2.924   0.453   2.578
  105TCM    cl3  692   3.044   0.250   2.620
  106TCM     c1  693   2.247   4.685   0.975
  106TCM    cl1  694   2.180   4.772   1.116
  106TCM    cl2  695   2.215   4.781   0.827
  106TCM     h1  696   2.355   4.672   0.987
  106TCM    cl3  697   2.169   4.524   0.959
  107TCM     c1  698   0.405   3.260   4.004
  107TCM    cl1  699   0.436   3.260   4.181
  107TCM    cl2  700   0.259   3.358   3.970
  107TCM     h1  701   0.491   3.303   3.952
  107TCM    cl3  702   0.379   3.092   3.948
  108TCM     c1  703   2.357   0.105   1.666
  108TCM    cl1  704   2.526   0.128   1.609
  108TCM    cl2  705   2.249   0.082   1.524
  108TCM     h1  706   2.352   0.017   1.731
  108TCM    cl3  707   2.305   0.250   1.757
  109TCM     c1  708   2.718   4.803   3.636
  109TCM    cl1  709   2.540   4.788   3.626
  109TCM    cl2  710   2.786   4.807   3.470
  109TCM     h1  711   2.745   4.895   3.689
  109TCM    cl3  712   2.785   4.662   3.723
  110TCM     c1  713   3.518   3.521   4.662
  110TCM    cl1  714   3.419   3.383   4.720
  110TCM    cl2  715   3.663   3.461   4.577
  110TCM     h1  716   3.458   3.582   4.594
  110TCM    cl3  717   3.569   3.621   4.802
  111TCM     c1  718   1.906   0.130   4.575
  111TCM    cl1  719   1.892   4.955   4.612
  111TCM    cl2  720   1.809   0.168   4.429
  111TCM     h1  721   1.868   0.188   4.660
  111TCM    cl3  722   2.078   0.172   4.546
  112TCM     c1  723   3.315   3.820   1.831
  112TCM    cl1  724   3.192   3.876   1.948
  112TCM    cl2  725   3.388   3.962   1.749
  112TCM     h1  726   3.392   3.763   1.884
  112TCM    cl3  727   3.236   3.714   1.709
  113TCM     c1  728   0.029   2.563   2.016
  113TCM    cl1  729   0.114   2.431   2.102
  113TCM    cl2  730   0.144   2.648   1.908
  113TCM     h1  731   4.947   2.521   1.956
  113TCM    cl3  732   4.962   2.679   2.135
  114TCM     c1  733   1.811   0.945   3.431
  114TCM    cl1  734   1.968   0.862   3.404
  114TCM    cl2  735   1.836   1.082   3.544
  114TCM     h1  736   1.773   0.983   3.336
  114TCM    cl3  737   1.693   0.830   3.502
  115TCM     c1  738   1.499   4.609   3.459
  115TCM    cl1  739   1.533   4.508   3.315
  115TCM    cl2  740   1.385   4.740   3.415
  115TCM     h1  741   1.455   4.547   3.538
  115TCM    cl3  742   1.652   4.681   3.519
  116TCM     c1  743   1.289   3.049   3.583
  116TCM    cl1  744   1.394   3.119   3.455
  116TCM    cl2  745   1.127   3.014   3.514
  116TCM     h1  746   1.334   2.957   3.621
  116TCM    cl3  747   1.273   3.167   3.717
  117TCM     c1  748   0.036   2.137   2.299
  117TCM    cl1  749   4.872   2.200   2.263
  117TCM    cl2  750   0.095   2.042   2.158
  117TCM     h1  751   0.104   2.220   2.318
  117TCM    cl3  752   0.028   2.030   2.443
  118TCM     c1  753   2.252   1.265   1.726
  118TCM    cl1  754   2.139   1.374   1.813
  118TCM    cl2  755   2.400   1.243   1.825
  118TCM     h1  756   2.205   1.169   1.708
  118TCM    cl3  757   2.296   1.342   1.570
  119TCM     c1  758   1.227   0.150   3.541
  119TCM    cl1  759   1.335   0.270   3.464
  119TCM    cl2  760   1.110   0.237   3.648
  119TCM     h1  761   1.172   0.095   3.465
  119TCM    cl3  762   1.325   0.037   3.640
  120TCM     c1  763   4.325   3.667   2.562
  120TCM    cl1  764   4.231   3.672   2.715
  120TCM    cl2  765   4.354   3.835   2.506
  120TCM     h1  766   4.420   3.616   2.579
  120TCM    cl3  767   4.230   3.578   2.438
  121TCM     c1  768   4.336   1.151   3.741
  121TCM    cl1  769   4.201   1.231   3.829
  121TCM    cl2  770   4.277   0.996   3.672
  121TCM     h1  771   4.370   1.217   3.660
  121TCM    cl3  772   4.471   1.120   3.854
  122TCM     c1  773   3.793   1.899   2.471
  122TCM    cl1  774   3.807   1.913   2.292
  122TCM    cl2  775   3.957   1.877   2.542
  122TCM     h1  776   3.748   1.990   2.512
  122TCM    cl3  777   3.691   1.757   2.512
  123TCM     c1  778   4.929   4.124   3.272
  123TCM    cl1  779   0.045   4.026   3.367
  123TCM    cl2  780   4.935   4.295   3.329
  123TCM     h1  781   4.956   4.120   3.166
  123TCM    cl3  782   4.764   4.060   3.295
  124TCM     c1  783   0.506   1.810   0.352
  124TCM    cl1  784   0.368   1.917   0.393
  124TCM    cl2  785   0.446   1.644   0.328
  124TCM     h1  786   0.554   1.845   0.260
  124TCM    cl3  787   0.625   1.811   0.487
  125TCM     c1  788   3.455   1.659   3.266
  125TCM    cl1  789   3.325   1.782   3.256
  125TCM    cl2  790   3.502   1.610   3.100
  125TCM     h1  791   3.541   1.701   3.318
  125TCM    cl3  792   3.396   1.516   3.356
  126TCM     c1  793   1.466   2.240   2.787
  126TCM    cl1  794   1.451   2.073   2.853
  126TCM    cl2  795   1.311   2.327   2.807
  126TCM     h1  796   1.545   2.293   2.840
  126TCM    cl3  797   1.508   2.231   2.613
  127TCM     c1  798   0.340   2.744   0.127
  127TCM    cl1  799   0.181   2.665   0.157
  127TCM    cl2  800   0.411   2.677   4.976
  127TCM     h1  801   0.327   2.852   0.117
  127TCM    cl3  802   0.449   2.708   0.265
  128TCM     c1  803   0.593   4.583   4.925
  128TCM    cl1  804   0.452   4.691   4.945
  128TCM    cl2  805   0.558   4.423   4.998
  128TCM     h1  806   0.615   4.570   4.818
  128TCM    cl3  807   0.735   4.655   0.008
  129TCM     c1  808   4.704   4.576   0.163
  129TCM    cl1  809   4.587   4.645   0.045
  129TCM    cl2  810   4.715   4.684   0.306
  129TCM     h1  811   4.669   4.477   0.195
  129TCM    cl3  812   4.865   4.561   0.085
  130TCM     c1  813   0.688   1.440   0.524
  130TCM    cl1  814   0.541   1.343   0.491
  130TCM    cl2  815   0.775   1.467   0.369
  130TCM     h1  816   0.660   1.536   0.568
  130TCM    cl3  817   0.795   1.351   0.637
  131TCM     c1  818   2.177   0.424   3.518
  131TCM    cl1  819   2.216   0.598   3.502
  131TCM    cl2  820   2.133   0.389   3.688
  131TCM     h1  821   2.093   0.399   3.452
  131TCM    cl3  822   2.320   0.326   3.473
  132TCM     c1  823   0.478   1.429   3.377
  132TCM    cl1  824   0.592   1.564   3.415
  132TCM    cl2  825   0.399   1.462   3.220
  132TCM     h1  826   0.534   1.335   3.371
  132TCM    cl3  827   0.355   1.417   3.506
  133TCM     c1  828   0.116   4.308   4.878
  133TCM    cl1  829   0.245   4.395   4.791
  133TCM    cl2  830   0.186   4.163   4.957
  133TCM     h1  831   0.071   4.373   4.954
  133TCM    cl3  832   4.990   4.255   4.762
  134TCM     c1  833   4.260   1.370   2.082
  134TCM    cl1  834   4.330   1.471   2.212
  134TCM    cl2  835   4.247   1.468   1.932
  134TCM     h1  836   4.325   1.284   2.064
  134TCM    cl3  837   4.097   1.313   2.132
  135TCM     c1  838   0.987   0.481   1.650
  135TCM    cl1  839   0.962   0.304   1.648
  135TCM    cl2  840   1.082   0.525   1.796
  135TCM     h1  841   1.041   0.512   1.560
  135TCM    cl3  842   0.827   0.562   1.656
  136TCM     c1  843   4.864   0.050   3.163
  136TCM    cl1  844   4.784   0.210   3.167
  136TCM    cl2  845   4.743   4.921   3.195
  136TCM     h1  846   4.909   0.034   3.065
  136TCM    cl3  847   4.992   0.045   3.289
  137TCM     c1  848   2.003   1.703   3.270
  137TCM    cl1  849   2.137   1.603   3.335
  137TCM    cl2  850   1.949   1.635   3.113
  137TCM     h1  851   1.920   1.703   3.341
  137TCM    cl3  852   2.061   1.871   3.246
  138TCM     c1  853   2.581   3.503   3.670
  138TCM    cl1  854   2.420   3.438   3.714
  138TCM    cl2  855   2.709   3.392   3.731
  138TCM     h1  856   2.589   3.511   3.562
  138TCM    cl3  857   2.602   3.665   3.744
  139TCM     c1  858   0.799   1.356   3.630
  139TCM    cl1  859   0.957   1.341   3.713
  139TCM    cl2  860   0.668   1.309   3.742
  139TCM     h1  861   0.784   1.460   3.599
  139TCM    cl3  862   0.795   1.249   3.486
  140TCM     c1  863   0.890   4.521   1.815
  140TCM    cl1  864   0.906   4.367   1.723
  140TCM    cl2  865   0.760   4.620   1.741
  140TCM     h1  866   0.865   4.499   1.919
  140TCM    cl3  867   1.045   4.612   1.807
  141TCM     c1  868   3.653   4.147   2.525
  141TCM    cl1  869   3.675   4.048   2.377
  141TCM    cl2  870   3.485   4.127   2.585
  141TCM     h1  871   3.723   4.114   2.602
  141TCM    cl3  872   3.684   4.319   2.485
  142TCM     c1  873   0.424   2.430   3.364
  142TCM    cl1  874   0.532   2.309   3.287
  142TCM    cl2  875   0.281   2.346   3.433
  142TCM     h1  876   0.478   2.482   3.444
  142TCM    cl3  877   0.369   2.548   3.241
  143TCM     c1  878   1.767   3.710   1.404
  143TCM    cl1  879   1.912   3.616   1.356
  143TCM    cl2  880   1.781   3.752   1.578
  143TCM     h1  881   1.762   3.802   1.345
  143TCM    cl3  882   1.620   3.612   1.378
  144TCM     c1  883   1.494   1.434   2.438
  144TCM    cl1  884   1.632   1.457   2.326
  144TCM    cl2  885   1.365   1.553   2.399
  144TCM     h1  886   1.455   1.333   2.428
  144TCM    cl3  887   1.550   1.461   2.607
  145TCM     c1  888   3.683   0.195   3.820
  145TCM    cl1  889   3.689   0.043   3.915
  145TCM    cl2  890   3.687   0.155   3.645
  145TCM     h1  891   3.591   0.250   3.843
  145TCM    cl3  892   3.826   0.296   3.861
  146TCM     c1  893   4.899   4.532   4.482
  146TCM    cl1  894   0.070   4.580   4.508
  146TCM    cl2  895   4.809   4.542   4.637
  146TCM     h1  896   4.853   4.600   4.409
  146TCM    cl3  897   4.894   4.364   4.419
  147TCM     c1  898   1.021   1.835   0.676
  147TCM    cl1  899   0.961   1.695   0.581
  147TCM    cl2  900   1.016   1.793   0.850
  147TCM     h1  901   1.124   1.859   0.646
  147TCM    cl3  902   0.917   1.978   0.646
  148TCM     c1  903   2.706   2.874   0.160
  148TCM    cl1  904   2.668   2.953   0.004
  148TCM    cl2  905   2.652   2.704   0.155
  148TCM     h1  906   2.814   2.878   0.178
  148TCM    cl3  907   2.621   2.960   0.293
  149TCM     c1  908   3.559   1.221   3.168
  149TCM    cl1  909   3.429   1.129   3.085
  149TCM    cl2  910   3.713   1.201   3.079
  149TCM     h1  911   3.532   1.327   3.171
  149TCM    cl3  912   3.578   1.159   3.335
  150TCM     c1  913   3.279   0.246   1.640
  150TCM    cl1  914   3.114   0.217   1.576
  150TCM    cl2  915   3.355   0.383   1.551
  150TCM     h1  916   3.274   0.270   1.746
  150TCM    cl3  917   3.378   0.098   1.616
  151TCM     c1  918   3.551   2.479   1.327
  151TCM    cl1  919   3.376   2.486   1.366
  151TCM    cl2  920   3.582   2.340   1.218
  151TCM     h1  921   3.581   2.572   1.277
  151TCM    cl3  922   3.645   2.459   1.478
  152TCM     c1  923   2.909   4.135   2.618
  152TCM    cl1  924   2.902   4.267   2.739
  152TCM    cl2  925   2.963   3.984   2.698
  152TCM     h1  926   2.810   4.121   2.574
  152TCM    cl3  927   3.027   4.180   2.489
  153TCM     c1  928   4.301   1.038   2.748
  153TCM    cl1  929   4.162   0.926   2.768
  153TCM    cl2  930   4.450   0.960   2.811
  153TCM     h1  931   4.314   1.062   2.642
  153TCM    cl3  932   4.270   1.188   2.840
  154TCM     c1  933   0.807   1.981   4.735
  154TCM    cl1  934   0.720   2.129   4.786
  154TCM    cl2  935   0.924   1.934   4.863
  154TCM     h1  936   0.736   1.899   4.719
  154TCM    cl3  937   0.896   2.013   4.582
  155TCM     c1  938   2.194   4.638   4.499
  155TCM    cl1  939   2.224   4.811   4.459
  155TCM    cl2  940   2.104   4.626   4.654
  155TCM     h1  941   2.135   4.592   4.419
  155TCM    cl3  942   2.350   4.551   4.516
  156TCM     c1  943   2.300   0.086   4.837
  156TCM    cl1  944   2.409   0.122   4.699
  156TCM    cl2  945   2.398   0.065   4.987
  156TCM     h1  946   2.229   0.168   4.851
  156TCM    cl3  947   2.212   4.934   4.805
  157TCM     c1  948   2.024   1.256   2.922
  157TCM    cl1  949   1.857   1.320   2.906
  157TCM    cl2  950   2.142   1.390   2.907
  157TCM     h1  951   2.035   1.209   3.020
  157TCM    cl3  952   2.055   1.135   2.794
  158TCM     c1  953   1.768   2.169   0.203
  158TCM    cl1  954   1.886   2.228   0.326
  158TCM    cl2  955   1.731   1.996   0.235
  158TCM     h1  956   1.676   2.228   0.209
  158TCM    cl3  957   1.840   2.185   0.040
  159TCM     c1  958   2.061   1.627   1.415
  159TCM    cl1  959   1.983   1.785   1.375
  159TCM    cl2  960   2.095   1.537   1.264
  159TCM     h1  961   2.154   1.645   1.468
  159TCM    cl3  962   1.951   1.532   1.520
  160TCM     c1  963   2.502   2.743   0.613
  160TCM    cl1  964   2.665   2.812   0.644
  160TCM    cl2  965   2.513   2.628   0.476
  160TCM     h1  966   2.466   2.691   0.702
  160TCM    cl3  967   2.389   2.876   0.570
  161TCM     c1  968   3.104   2.134   1.893
  161TCM    cl1  969   3.171   2.063   2.044
  161TCM    cl2  970   3.195   2.284   1.853
  161TCM     h1  971   3.113   2.062   1.812
  161TCM    cl3  972   2.931   2.175   1.919
  162TCM     c1  973   4.556   4.622   2.609
  162TCM    cl1  974   4.380   4.598   2.580
  162TCM    cl2  975   4.623   4.727   2.480
  162TCM     h1  976   4.571   4.669   2.706
  162TCM    cl3  977   4.639   4.463   2.605
  163TCM     c1  978   3.037   0.216   4.548
  163TCM    cl1  979   2.981   0.051   4.590
  163TCM    cl2  980   3.011   0.248   4.374
  163TCM     h1  981   2.980   0.289   4.607
  163TCM    cl3  982   3.212   0.232   4.586
  164TCM     c1  983   3.799   3.891   3.904
  164TCM    cl1  984   3.957   3.877   3.988
  164TCM    cl2  985   3.802   4.033   3.795
  164TCM     h1  986   3.780   3.801   3.846
  164TCM    cl3  987   3.669   3.912   4.026
  165TCM     c1  988   1.975   1.444   2.504
  165TCM    cl1  989   2.150   1.407   2.513
  165TCM    cl2  990   1.931   1.553   2.640
  165TCM     h1  991   1.952   1.493   2.409
  165TCM    cl3  992   1.883   1.291   2.517
  166TCM     c1  993   2.665   0.320   4.887
  166TCM    cl1  994   2.508   0.408   4.887
  166TCM    cl2  995   2.780   0.409   4.991
  166TCM     h1  996   2.650   0.219   4.925
  166TCM    cl3  997   2.729   0.313   4.720
  167TCM     c1  998   2.435   2.817   2.072
  167TCM    cl1  999   2.586   2.833   1.976
  167TCM    cl2 1000   2.470   2.842   2.247
  167TCM     h1 1001   2.363   2.893   2.039
  167TCM    cl3 1002   2.365   2.654   2.048
  168TCM     c1 1003   0.960   4.882   1.538
  168TCM    cl1 1004   0.824   4.968   1.617
  168TCM    cl2 1005   1.084   0.001   1.485
  168TCM     h1 1006   1.005   4.811   1.608
  168TCM    cl3 1007   0.899   4.793   1.394
  169TCM     c1 1008   4.089   2.292   4.622
  169TCM    cl1 1009   4.107   2.469   4.599
  169TCM    cl2 1010   4.241   2.210   4.572
  169TCM     h1 1011   4.069   2.270   4.728
  169TCM    cl3 1012   3.954   2.231   4.521
  170TCM     c1 1013   1.899   4.749   4.940
  170TCM    cl1 1014   1.740   4.831   4.944
  170TCM    cl2 1015   1.875   4.571   4.944
  170TCM     h1 1016   1.953   4.777   4.848
  170TCM    cl3 1017   1.994   4.799   0.083
  171TCM     c1 1018   3.589   3.749   0.282
  171TCM    cl1 1019   3.549   3.793   0.114
  171TCM    cl2 1020   3.647   3.894   0.370
  171TCM     h1 1021   3.501   3.708   0.332
  171TCM    cl3 1022   3.720   3.625   0.282
  172TCM     c1 1023   4.687   0.489   1.022
  172TCM    cl1 1024   4.543   0.565   0.946
  172TCM    cl2 1025   4.708   0.554   1.188
  172TCM     h1 1026   4.672   0.381   1.027
  172TCM    cl3 1027   4.833   0.525   0.925
  173TCM     c1 1028   4.171   1.801   2.106
  173TCM    cl1 1029   4.213   1.814   2.280
  173TCM    cl2 1030   4.143   1.966   2.039
  173TCM     h1 1031   4.253   1.753   2.051
  173TCM    cl3 1032   4.022   1.704   2.087
  174TCM     c1 1033   3.773   1.567   4.992
  174TCM    cl1 1034   3.864   1.633   4.852
  174TCM    cl2 1035   3.884   1.545   0.131
  174TCM     h1 1036   3.693   1.636   0.019
  174TCM    cl3 1037   3.702   1.409   4.946
  175TCM     c1 1038   3.933   3.281   4.828
  175TCM    cl1 1039   4.058   3.198   4.927
  175TCM    cl2 1040   3.810   3.354   4.936
  175TCM     h1 1041   3.980   3.359   4.768
  175TCM    cl3 1042   3.854   3.161   4.720
  176TCM     c1 1043   1.280   0.574   3.656
  176TCM    cl1 1044   1.192   0.608   3.504
  176TCM    cl2 1045   1.236   0.697   3.778
  176TCM     h1 1046   1.253   0.474   3.693
  176TCM    cl3 1047   1.456   0.581   3.626
  177TCM     c1 1048   3.305   0.256   1.154
  177TCM    cl1 1049   3.394   0.135   1.252
  177TCM    cl2 1050   3.381   0.417   1.173
  177TCM     h1 1051   3.306   0.227   1.049
  177TCM    cl3 1052   3.135   0.265   1.211
  178TCM     c1 1053   1.306   0.289   4.001
  178TCM    cl1 1054   1.169   0.403   3.978
  178TCM    cl2 1055   1.426   0.314   3.870
  178TCM     h1 1056   1.353   0.307   4.098
  178TCM    cl3 1057   1.244   0.121   3.994
  179TCM     c1 1058   3.186   0.277   3.471
  179TCM    cl1 1059   3.291   0.217   3.603
  179TCM    cl2 1060   3.020   0.214   3.493
  179TCM     h1 1061   3.184   0.387   3.473
  179TCM    cl3 1062   3.251   0.222   3.313
  180TCM     c1 1063   2.418   0.964   4.167
  180TCM    cl1 1064   2.526   0.995   4.028
  180TCM    cl2 1065   2.248   0.985   4.116
  180TCM     h1 1066   2.434   0.862   4.204
  180TCM    cl3 1067   2.457   1.081   4.299
  181TCM     c1 1068   3.319   0.809   0.268
  181TCM    cl1 1069   3.297   0.982   0.308
  181TCM    cl2 1070   3.335   0.790   0.090
  181TCM     h1 1071   3.410   0.772   0.317
  181TCM    cl3 1072   3.177   0.715   0.324
  182TCM     c1 1073   1.677   1.909   2.514
  182TCM    cl1 1074   1.780   1.984   2.641
  182TCM    cl2 1075   1.537   1.827   2.591
  182TCM     h1 1076   1.641   1.986   2.445
  182TCM    cl3 1077   1.775   1.788   2.425
  183TCM     c1 1078   4.932   3.797   4.614
  183TCM    cl1 1079   4.851   3.957   4.601
  183TCM    cl2 1080   4.999   3.752   4.454
  183TCM     h1 1081   0.012   3.802   4.687
  183TCM    cl3 1082   4.812   3.673   4.665
  184TCM     c1 1083   0.740   0.968   2.536
  184TCM    cl1 1084   0.866   0.880   2.629
  184TCM    cl2 1085   0.657   0.854   2.426
  184TCM     h1 1086   0.667   1.012   2.605
  184TCM    cl3 1087   0.818   1.098   2.440
  185TCM     c1 1088   4.624   0.930   3.457
  185TCM    cl1 1089   4.639   1.098   3.520
  185TCM    cl2 1090   4.468   0.914   3.371
  185TCM     h1 1091   4.706   0.910   3.387
  185TCM    cl3 1092   4.629   0.814   3.593
  186TCM     c1 1093   0.045   4.659   0.493
  186TCM    cl1 1094   0.008   4.498   0.422
  186TCM    cl2 1095   0.156   4.748   0.384
  186TCM     h1 1096   4.952   4.716   0.505
  186TCM    cl3 1097   0.123   4.635   0.653
  187TCM     c1 1098   0.783   3.086   0.261
  187TCM    cl1 1099   0.791   3.259   0.310
  187TCM    cl2 1100   0.898   3.055   0.127
  187TCM     h1 1101   0.809   3.023   0.346
  187TCM    cl3 1102   0.617   3.047   0.206
  188TCM     c1 1103   1.081   2.778   4.649
  188TCM    cl1 1104   1.024   2.899   4.530
  188TCM    cl2 1105   0.980   2.630   4.636
  188TCM     h1 1106   1.185   2.753   4.629
  188TCM    cl3 1107   1.065   2.844   4.815
  189TCM     c1 1108   0.618   3.222   0.654
  189TCM    cl1 1109   0.518   3.243   0.801
  189TCM    cl2 1110   0.580   3.064   0.578
  189TCM     h1 1111   0.598   3.303   0.583
  189TCM    cl3 1112   0.792   3.224   0.699
  190TCM     c1 1113   4.077   1.543   2.539
  190TCM    cl1 1114   3.975   1.544   2.686
  190TCM    cl2 1115   3.972   1.531   2.394
  190TCM     h1 1116   4.136   1.635   2.534
  190TCM    cl3 1117   4.188   1.402   2.543
  191TCM     c1 1118   2.254   0.483   4.399
  191TCM    cl1 1119   2.345   0.612   4.314
  191TCM    cl2 1120   2.085   0.537   4.425
  191TCM     h1 1121   2.254   0.391   4.340
  191TCM    cl3 1122   2.331   0.451   4.558
  192TCM     c1 1123   0.328   0.201   2.492
  192TCM    cl1 1124   0.333   0.332   2.371
  192TCM    cl2 1125   0.170   0.204   2.577
  192TCM     h1 1126   0.340   0.104   2.442
  192TCM    cl3 1127   0.460   0.224   2.611
  193TCM     c1 1128   1.807   4.517   4.407
  193TCM    cl1 1129   1.928   4.385   4.420
  193TCM    cl2 1130   1.878   4.653   4.315
  193TCM     h1 1131   1.718   4.480   4.355
  193TCM    cl3 1132   1.760   4.573   4.571
  194TCM     c1 1133   4.118   4.499   1.374
  194TCM    cl1 1134   4.155   4.607   1.235
  194TCM    cl2 1135   4.184   4.571   1.525
  194TCM     h1 1136   4.010   4.487   1.383
  194TCM    cl3 1137   4.196   4.340   1.345
  195TCM     c1 1138   0.979   2.468   0.495
  195TCM    cl1 1139   0.923   2.339   0.606
  195TCM    cl2 1140   1.081   2.394   0.367
  195TCM     h1 1141   0.894   2.519   0.450
  195TCM    cl3 1142   1.077   2.586   0.589
  196TCM     c1 1143   1.196   0.964   4.233
  196TCM    cl1 1144   1.219   1.140   4.262
  196TCM    cl2 1145   1.174   0.936   4.057
  196TCM     h1 1146   1.283   0.909   4.269
  196TCM    cl3 1147   1.049   0.909   4.320
  197TCM     c1 1148   1.926   1.697   0.938
  197TCM    cl1 1149   2.009   1.841   1.006
  197TCM    cl2 1150   2.008   1.649   0.785
  197TCM     h1 1151   1.930   1.615   1.010
  197TCM    cl3 1152   1.755   1.739   0.902
  198TCM     c1 1153   1.230   4.600   1.342
  198TCM    cl1 1154   1.346   4.487   1.265
  198TCM    cl2 1155   1.322   4.727   1.431
  198TCM     h1 1156   1.168   4.647   1.265
  198TCM    cl3 1157   1.127   4.510   1.458
  199TCM     c1 1158   4.972   2.502   2.581
  199TCM    cl1 1159   4.867   2.359   2.597
  199TCM    cl2 1160   4.877   2.639   2.514
  199TCM     h1 1161   0.012   2.530   2.680
  199TCM    cl3 1162   0.108   2.464   2.470
  200TCM     c1 1163   0.779   2.198   0.250
  200TCM    cl1 1164   0.907   2.188   0.125
  200TCM    cl2 1165   0.639   2.100   0.198
  200TCM     h1 1166   0.818   2.159   0.345
  200TCM    cl3 1167   0.727   2.369   0.271
  201TCM     c1 1168   3.650   4.737   3.350
  201TCM    cl1 1169   3.516   4.638   3.282
  201TCM    cl2 1170   3.591   4.904   3.380
  201TCM     h1 1171   3.683   4.694   3.445
  201TCM    cl3 1172   3.786   4.742   3.234
  202TCM     c1 1173   2.132   0.828   2.460
  202TCM    cl1 1174   1.990   0.787   2.359
  202TCM    cl2 1175   2.108   0.765   2.626
  202TCM     h1 1176   2.222   0.784   2.416
  202TCM    cl3 1177   2.150   1.007   2.466
  203TCM     c1 1178   0.501   4.539   4.422
  203TCM    cl1 1179   0.678   4.537   4.398
  203TCM    cl2 1180   0.425   4.646   4.299
  203TCM     h1 1181   0.461   4.437   4.412
  203TCM    cl3 1182   0.463   4.602   4.586
  204TCM     c1 1183   2.117   4.798   3.683
  204TCM    cl1 1184   2.150   4.974   3.692
  204TCM    cl2 1185   1.946   4.769   3.728
  204TCM     h1 1186   2.136   4.762   3.582
  204TCM    cl3 1187   2.224   4.712   3.799
  205TCM     c1 1188   2.087   2.666   3.758
  205TCM    cl1 1189   2.074   2.579   3.601
  205TCM    cl2 1190   1.960   2.792   3.767
  205TCM     h1 1191   2.074   2.595   3.840
  205TCM    cl3 1192   2.248   2.743   3.770
  206TCM     c1 1193   2.407   3.125   0.963
  206TCM    cl1 1194   2.534   2.998   0.947
  206TCM    cl2 1195   2.350   3.130   1.133
  206TCM     h1 1196   2.448   3.222   0.935
  206TCM    cl3 1197   2.270   3.085   0.855
  207TCM     c1 1198   1.004   3.492   0.797
  207TCM    cl1 1199   0.853   3.580   0.834
  207TCM    cl2 1200   1.141   3.569   0.884
  207TCM     h1 1201   0.995   3.388   0.829
  207TCM    cl3 1202   1.036   3.498   0.620
  208TCM     c1 1203   3.621   2.307   2.027
  208TCM    cl1 1204   3.574   2.341   1.857
  208TCM    cl2 1205   3.513   2.180   2.094
  208TCM     h1 1206   3.725   2.272   2.030
  208TCM    cl3 1207   3.604   2.456   2.124
  209TCM     c1 1208   2.586   2.407   0.892
  209TCM    cl1 1209   2.656   2.570   0.918
  209TCM    cl2 1210   2.707   2.302   0.811
  209TCM     h1 1211   2.557   2.363   0.988
  209TCM    cl3 1212   2.441   2.422   0.787
  210TCM     c1 1213   2.678   3.472   4.169
  210TCM    cl1 1214   2.518   3.495   4.092
  210TCM    cl2 1215   2.677   3.546   4.333
  210TCM     h1 1216   2.700   3.365   4.177
  210TCM    cl3 1217   2.804   3.552   4.069
  211TCM     c1 1218   1.128   2.765   3.927
  211TCM    cl1 1219   1.290   2.825   3.878
  211TCM    cl2 1220   1.118   2.589   3.897
  211TCM     h1 1221   1.112   2.785   4.033
  211TCM    cl3 1222   1.001   2.849   3.831
  212TCM     c1 1223   1.631   2.832   3.482
  212TCM    cl1 1224   1.604   2.864   3.656
  212TCM    cl2 1225   1.479   2.774   3.408
  212TCM     h1 1226   1.663   2.924   3.432
  212TCM    cl3 1227   1.758   2.706   3.463
  213TCM     c1 1228   3.818   4.710   3.845
  213TCM    cl1 1229   3.793   4.532   3.840
  213TCM    cl2 1230   3.796   4.777   3.680
  213TCM     h1 1231   3.746   4.755   3.913
  213TCM    cl3 1232   3.985   4.745   3.902
  214TCM     c1 1233   0.239   3.179   0.428
  214TCM    cl1 1234   0.281   3.020   0.356
  214TCM    cl2 1235   0.374   3.294   0.402
  214TCM     h1 1236   0.149   3.218   0.381
  214TCM    cl3 1237   0.211   3.158   0.604
  215TCM     c1 1238   1.290   2.156   0.165
  215TCM    cl1 1239   1.384   2.070   0.290
  215TCM    cl2 1240   1.237   2.040   0.039
  215TCM     h1 1241   1.202   2.204   0.210
  215TCM    cl3 1242   1.394   2.281   0.089
  216TCM     c1 1243   0.183   1.848   2.797
  216TCM    cl1 1244   0.065   1.752   2.702
  216TCM    cl2 1245   0.295   1.736   2.882
  216TCM     h1 1246   0.240   1.913   2.731
  216TCM    cl3 1247   0.095   1.947   2.918
  217TCM     c1 1248   3.440   0.302   4.865
  217TCM    cl1 1249   3.551   0.238   4.739
  217TCM    cl2 1250   3.435   0.481   4.856
  217TCM     h1 1251   3.339   0.262   4.848
  217TCM    cl3 1252   3.498   0.251   0.027
  218TCM     c1 1253   1.766   2.595   1.902
  218TCM    cl1 1254   1.754   2.555   1.727
  218TCM    cl2 1255   1.600   2.597   1.972
  218TCM     h1 1256   1.826   2.520   1.953
  218TCM    cl3 1257   1.840   2.758   1.922
  219TCM     c1 1258   4.130   0.406   4.041
  219TCM    cl1 1259   4.148   0.360   4.214
  219TCM    cl2 1260   4.292   0.418   3.966
  219TCM     h1 1261   4.070   0.330   3.989
  219TCM    cl3 1262   4.048   0.565   4.030
  220TCM     c1 1263   0.302   3.897   1.436
  220TCM    cl1 1264   0.422   3.784   1.365
  220TCM    cl2 1265   0.160   3.804   1.495
  220TCM     h1 1266   0.347   3.950   1.520
  220TCM    cl3 1267   0.249   4.015   1.312
  221TCM     c1 1268   0.311   1.488   0.754
  221TCM    cl1 1269   0.402   1.636   0.712
  221TCM    cl2 1270   0.174   1.530   0.863
  221TCM     h1 1271   0.272   1.442   0.663
  221TCM    cl3 1272   0.420   1.372   0.837
  222TCM     c1 1273   3.330   2.404   2.829
  222TCM    cl1 1274   3.210   2.384   2.961
  222TCM    cl2 1275   3.492   2.437   2.901
  222TCM     h1 1276   3.335   2.313   2.769
  222TCM    cl3 1277   3.281   2.543   2.726
  223TCM     c1 1278   0.260   4.844   2.880
  223TCM    cl1 1279   0.228   4.854   2.704
  223TCM    cl2 1280   0.104   4.848   2.969
  223TCM     h1 1281   0.313   4.751   2.902
  223TCM    cl3 1282   0.362   4.983   2.929
  224TCM     c1 1283   4.900   4.546   2.109
  224TCM    cl1 1284   0.036   4.431   2.133
  224TCM    cl2 1285   4.766   4.504   2.221
  224TCM     h1 1286   4.935   4.647   2.130
  224TCM    cl3 1287   4.842   4.536   1.940
  225TCM     c1 1288   0.486   2.300   2.149
  225TCM    cl1 1289   0.394   2.261   2.298
  225TCM    cl2 1290   0.478   2.476   2.118
  225TCM     h1 1291   0.591   2.271   2.163
  225TCM    cl3 1292   0.416   2.211   2.010
  226TCM     c1 1293   0.385   4.101   2.813
  226TCM    cl1 1294   0.222   4.099   2.738
  226TCM    cl2 1295   0.510   4.089   2.684
  226TCM     h1 1296   0.399   4.195   2.868
  226TCM    cl3 1297   0.401   3.962   2.925
  227TCM     c1 1298   2.346   0.653   3.859
  227TCM    cl1 1299   2.217   0.619   3.979
  227TCM    cl2 1300   2.506   0.645   3.940
  227TCM     h1 1301   2.341   0.579   3.778
  227TCM    cl3 1302   2.323   0.817   3.790
  228TCM     c1 1303   1.846   2.063   1.976
  228TCM    cl1 1304   1.891   1.987   2.132
  228TCM    cl2 1305   1.828   2.240   1.997
  228TCM     h1 1306   1.923   2.042   1.902
  228TCM    cl3 1307   1.690   1.993   1.920
  229TCM     c1 1308   1.202   3.262   1.960
  229TCM    cl1 1309   1.341   3.289   1.849
  229TCM    cl2 1310   1.099   3.409   1.962
  229TCM     h1 1311   1.144   3.177   1.925
  229TCM    cl3 1312   1.264   3.230   2.125
  230TCM     c1 1313   4.616   3.640   2.981
  230TCM    cl1 1314   4.657   3.796   3.061
  230TCM    cl2 1315   4.606   3.664   2.804
  230TCM     h1 1316   4.693   3.566   3.004
  230TCM    cl3 1317   4.458   3.583   3.043
  231TCM     c1 1318   4.184   0.853   4.461
  231TCM    cl1 1319   4.022   0.931   4.470
  231TCM    cl2 1320   4.168   0.691   4.385
  231TCM     h1 1321   4.251   0.916   4.402
  231TCM    cl3 1322   4.250   0.835   4.627
  232TCM     c1 1323   0.382   3.185   4.536
  232TCM    cl1 1324   0.252   3.084   4.607
  232TCM    cl2 1325   0.522   3.081   4.494
  232TCM     h1 1326   0.345   3.234   4.445
  232TCM    cl3 1327   0.433   3.310   4.654
  233TCM     c1 1328   1.003   1.808   0.194
  233TCM    cl1 1329   1.046   1.929   0.319
  233TCM    cl2 1330   0.825   1.791   0.188
  233TCM     h1 1331   1.040   1.840   0.097
  233TCM    cl3 1332   1.075   1.650   0.237
  234TCM     c1 1333   1.826   2.141   1.499
  234TCM    cl1 1334   1.919   2.212   1.635
  234TCM    cl2 1335   1.709   2.262   1.437
  234TCM     h1 1336   1.895   2.113   1.419
  234TCM    cl3 1337   1.739   1.995   1.556
  235TCM     c1 1338   2.420   4.463   3.652
  235TCM    cl1 1339   2.319   4.350   3.748
  235TCM    cl2 1340   2.334   4.507   3.501
  235TCM     h1 1341   2.440   4.553   3.711
  235TCM    cl3 1342   2.576   4.384   3.612
  236TCM     c1 1343   3.081   0.663   1.652
  236TCM    cl1 1344   2.935   0.760   1.686
  236TCM    cl2 1345   3.059   0.575   1.497
  236TCM     h1 1346   3.169   0.728   1.645
  236TCM    cl3 1347   3.106   0.544   1.784
  237TCM     c1 1348   2.626   4.769   4.756
  237TCM    cl1 1349   2.705   4.905   4.843
  237TCM    cl2 1350   2.564   4.828   4.598
  237TCM     h1 1351   2.699   4.689   4.739
  237TCM    cl3 1352   2.489   4.706   4.853
  238TCM     c1 1353   2.514   1.782   3.248
  238TCM    cl1 1354   2.511   1.603   3.235
  238TCM    cl2 1355   2.684   1.838   3.266
  238TCM     h1 1356   2.471   1.827   3.158
  238TCM    cl3 1357   2.419   1.833   3.391
  239TCM     c1 1358   0.932   1.496   4.525
  239TCM    cl1 1359   1.106   1.462   4.554
  239TCM    cl2 1360   0.885   1.643   4.616
  239TCM     h1 1361   0.915   1.512   4.418
  239TCM    cl3 1362   0.835   1.356   4.580
  240TCM     c1 1363   2.925   1.078   2.856
  240TCM    cl1 1364   2.804   1.005   2.967
  240TCM    cl2 1365   3.082   0.993   2.874
  240TCM     h1 1366   2.891   1.069   2.753
  240TCM    cl3 1367   2.945   1.252   2.897
  241TCM     c1 1368   3.377   0.748   1.338
  241TCM    cl1 1369   3.503   0.720   1.462
  241TCM    cl2 1370   3.454   0.817   1.191
  241TCM     h1 1371   3.329   0.653   1.313
  241TCM    cl3 1372   3.256   0.864   1.402
  242TCM     c1 1373   0.399   0.190   0.516
  242TCM    cl1 1374   0.372   0.013   0.525
  242TCM    cl2 1375   0.574   0.225   0.534
  242TCM     h1 1376   0.363   0.228   0.420
  242TCM    cl3 1377   0.307   0.268   0.649
  243TCM     c1 1378   0.541   3.626   3.829
  243TCM    cl1 1379   0.605   3.561   3.984
  243TCM    cl2 1380   0.391   3.719   3.861
  243TCM     h1 1381   0.616   3.691   3.783
  243TCM    cl3 1382   0.504   3.490   3.719
  244TCM     c1 1383   0.170   4.110   4.457
  244TCM    cl1 1384   0.252   4.269   4.452
  244TCM    cl2 1385   0.222   4.019   4.603
  244TCM     h1 1386   0.061   4.124   4.459
  244TCM    cl3 1387   0.216   4.016   4.311
  245TCM     c1 1388   3.386   1.712   0.700
  245TCM    cl1 1389   3.435   1.799   0.849
  245TCM    cl2 1390   3.525   1.703   0.587
  245TCM     h1 1391   3.352   1.611   0.725
  245TCM    cl3 1392   3.252   1.803   0.621
  246TCM     c1 1393   3.425   4.263   3.492
  246TCM    cl1 1394   3.503   4.188   3.348
  246TCM    cl2 1395   3.531   4.240   3.635
  246TCM     h1 1396   3.410   4.370   3.474
  246TCM    cl3 1397   3.267   4.184   3.522
  247TCM     c1 1398   1.623   4.819   3.134
  247TCM    cl1 1399   1.489   4.754   3.033
  247TCM    cl2 1400   1.655   4.988   3.084
  247TCM     h1 1401   1.594   4.817   3.240
  247TCM    cl3 1402   1.771   4.720   3.110
  248TCM     c1 1403   2.500   0.461   2.457
  248TCM    cl1 1404   2.647   0.427   2.554
  248TCM    cl2 1405   2.538   0.442   2.283
  248TCM     h1 1406   2.421   0.391   2.486
  248TCM    cl3 1407   2.446   0.629   2.487
  249TCM     c1 1408   3.248   2.010   4.160
  249TCM    cl1 1409   3.182   2.004   4.327
  249TCM    cl2 1410   3.265   2.182   4.111
  249TCM     h1 1411   3.346   1.962   4.157
  249TCM    cl3 1412   3.135   1.926   4.048
  250TCM     c1 1413   2.917   2.558   0.374
  250TCM    cl1 1414   2.837   2.500   0.524
  250TCM    cl2 1415   3.076   2.476   0.358
  250TCM     h1 1416   2.854   2.535   0.288
  250TCM    cl3 1417   2.942   2.735   0.386
  251TCM     c1 1418   1.481   0.129   4.886
  251TCM    cl1 1419   1.621   0.201   4.801
  251TCM    cl2 1420   1.524   0.101   0.058
  251TCM     h1 1421   1.396   0.197   4.881
  251TCM    cl3 1422   1.438   4.972   4.810
  252TCM     c1 1423   0.699   1.796   1.534
  252TCM    cl1 1424   0.607   1.927   1.452
  252TCM    cl2 1425   0.825   1.869   1.639
  252TCM     h1 1426   0.631   1.736   1.595
  252TCM    cl3 1427   0.778   1.693   1.411
  253TCM     c1 1428   4.843   3.032   0.261
  253TCM    cl1 1429   4.849   3.045   0.439
  253TCM    cl2 1430   4.877   2.862   0.213
  253TCM     h1 1431   4.744   3.061   0.225
  253TCM    cl3 1432   4.966   3.141   0.189
  254TCM     c1 1433   0.576   1.718   3.932
  254TCM    cl1 1434   0.522   1.650   3.774
  254TCM    cl2 1435   0.435   1.732   4.043
  254TCM     h1 1436   0.651   1.652   3.976
  254TCM    cl3 1437   0.646   1.881   3.905
  255TCM     c1 1438   0.628   1.019   0.174
  255TCM    cl1 1439   0.474   1.111   0.183
  255TCM    cl2 1440   0.608   0.861   0.257
  255TCM     h1 1441   0.654   1.002   0.069
  255TCM    cl3 1442   0.758   1.114   0.254
  256TCM     c1 1443   3.432   4.872   4.755
  256TCM    cl1 1444   3.335   4.868   4.604
  256TCM    cl2 1445   3.463   4.705   4.812
  256TCM     h1 1446   3.527   4.923   4.736
  256TCM    cl3 1447   3.339   4.959   4.881
  257TCM     c1 1448   3.077   3.673   3.470
  257TCM    cl1 1449   2.936   3.677   3.582
  257TCM    cl2 1450   3.134   3.504   3.453
  257TCM     h1 1451   3.047   3.712   3.373
  257TCM    cl3 1452   3.208   3.776   3.536
  258TCM     c1 1453   2.989   4.226   3.160
  258TCM    cl1 1454   3.159   4.172   3.169
  258TCM    cl2 1455   2.895   4.104   3.067
  258TCM     h1 1456   2.947   4.234   3.261
  258TCM    cl3 1457   2.980   4.384   3.077
  259TCM     c1 1458   3.474   1.255   2.702
  259TCM    cl1 1459   3.561   1.376   2.801
  259TCM    cl2 1460   3.300   1.256   2.747
  259TCM     h1 1461   3.484   1.281   2.596
  259TCM    cl3 1462   3.542   1.092   2.731
  260TCM     c1 1463   4.553   1.972   4.945
  260TCM    cl1 1464   4.426   2.099   4.937
  260TCM    cl2 1465   4.557   1.901   0.110
  260TCM     h1 1466   4.531   1.894   4.872
  260TCM    cl3 1467   4.713   2.045   4.909
  261TCM     c1 1468   3.007   2.180   0.572
  261TCM    cl1 1469   3.032   2.116   0.738
  261TCM    cl2 1470   2.849   2.121   0.509
  261TCM     h1 1471   3.007   2.289   0.574
  261TCM    cl3 1472   3.139   2.121   0.465
  262TCM     c1 1473   4.666   4.493   1.396
  262TCM    cl1 1474   4.511   4.573   1.355
  262TCM    cl2 1475   4.777   4.502   1.255
  262TCM     h1 1476   4.712   4.543   1.482
  262TCM    cl3 1477   4.636   4.321   1.436
  263TCM     c1 1478   4.620   0.532   3.160
  263TCM    cl1 1479   4.460   0.468   3.111
  263TCM    cl2 1480   4.640   0.515   3.338
  263TCM     h1 1481   4.700   0.477   3.109
  263TCM    cl3 1482   4.630   0.706   3.118
  264TCM     c1 1483   3.405   1.880   0.283
  264TCM    cl1 1484   3.239   1.830   0.237
  264TCM    cl2 1485   3.438   2.044   0.218
  264TCM     h1 1486   3.414   1.882   0.392
  264TCM    cl3 1487   3.523   1.764   0.214
  265TCM     c1 1488   1.613   0.108   2.755
  265TCM    cl1 1489   1.721   0.230   2.830
  265TCM    cl2 1490   1.713   4.991   2.663
  265TCM     h1 1491   1.557   0.055   2.832
  265TCM    cl3 1492   1.499   0.191   2.643
  266TCM     c1 1493   1.265   4.538   4.923
  266TCM    cl1 1494   1.200   4.703   4.897
  266TCM    cl2 1495   1.441   4.537   4.889
  266TCM     h1 1496   1.248   4.508   0.027
  266TCM    cl3 1497   1.183   4.423   4.812
  267TCM     c1 1498   4.959   0.285   4.553
  267TCM    cl1 1499   4.910   0.240   4.386
  267TCM    cl2 1500   4.972   0.138   4.654
  267TCM     h1 1501   0.056   0.335   4.549
  267TCM    cl3 1502   4.837   0.396   4.624
  268TCM     c1 1503   4.166   4.542   0.138
  268TCM    cl1 1504   4.225   4.578   4.972
  268TCM    cl2 1505   4.299   4.568   0.255
  268TCM     h1 1506   4.082   4.608   0.162
  268TCM    cl3 1507   4.112   4.371   0.145
  269TCM     c1 1508   0.606   2.375   3.930
  269TCM    cl1 1509   0.538   2.448   3.780
  269TCM    cl2 1510   0.526   2.446   4.074
  269TCM     h1 1511   0.588   2.267   3.928
  269TCM    cl3 1512   0.782   2.407   3.938
  270TCM     c1 1513   3.939   1.362   1.647
  270TCM    cl1 1514   4.071   1.471   1.593
  270TCM    cl2 1515   4.006   1.238   1.758
  270TCM     h1 1516   3.862   1.420   1.699
  270TCM    cl3 1517   3.867   1.280   1.504
  271TCM     c1 1518   1.288   4.836   0.215
  271TCM    cl1 1519   1.446   4.754   0.194
  271TCM    cl2 1520   1.304   4.969   0.334
  271TCM     h1 1521   1.255   4.877   0.119
  271TCM    cl3 1522   1.167   4.716   0.273
  272TCM     c1 1523   3.111   0.978   3.886
  272TCM    cl1 1524   3.177   0.955   3.721
  272TCM    cl2 1525   3.149   1.144   3.942
  272TCM     h1 1526   3.003   0.964   3.885
  272TCM    cl3 1527   3.187   0.857   3.995
  273TCM     c1 1528   4.284   3.417   3.452
  273TCM    cl1 1529   4.240   3.414   3.278
  273TCM    cl2 1530   4.436   3.324   3.476
  273TCM     h1 1531   4.299   3.520   3.484
  273TCM    cl3 1532   4.152   3.342   3.548
  274TCM     c1 1533   1.635   0.801   0.116
  274TCM    cl1 1534   1.753   0.934   0.132
  274TCM    cl2 1535   1.723   0.648   0.079
  274TCM     h1 1536   1.579   0.790   0.210
  274TCM    cl3 1537   1.523   0.836   4.981
  275TCM     c1 1538   1.130   2.113   1.117
  275TCM    cl1 1539   1.252   2.236   1.163
  275TCM    cl2 1540   1.207   1.951   1.114
  275TCM     h1 1541   1.049   2.113   1.189
  275TCM    cl3 1542   1.066   2.152   0.954
  276TCM     c1 1543   3.349   2.908   2.189
  276TCM    cl1 1544   3.482   2.806   2.253
  276TCM    cl2 1545   3.404   2.994   2.041
  276TCM     h1 1546   3.263   2.845   2.166
  276TCM    cl3 1547   3.303   3.029   2.314
  277TCM     c1 1548   2.953   3.457   2.695
  277TCM    cl1 1549   3.047   3.503   2.550
  277TCM    cl2 1550   2.788   3.408   2.646
  277TCM     h1 1551   3.003   3.373   2.745
  277TCM    cl3 1552   2.945   3.596   2.807
  278TCM     c1 1553   1.105   1.297   4.904
  278TCM    cl1 1554   1.047   1.319   0.072
  278TCM    cl2 1555   1.047   1.138   4.843
  278TCM     h1 1556   1.066   1.377   4.840
  278TCM    cl3 1557   1.284   1.300   4.902
  279TCM     c1 1558   3.017   0.243   0.813
  279TCM    cl1 1559   3.141   0.115   0.835
  279TCM    cl2 1560   2.966   0.248   0.641
  279TCM     h1 1561   2.930   0.222   0.876
  279TCM    cl3 1562   3.087   0.402   0.858
  280TCM     c1 1563   2.046   3.576   0.866
  280TCM    cl1 1564   2.200   3.628   0.941
  280TCM    cl2 1565   1.913   3.588   0.987
  280TCM     h1 1566   2.023   3.639   0.780
  280TCM    cl3 1567   2.061   3.405   0.812
  281TCM     c1 1568   2.793   3.673   1.859
  281TCM    cl1 1569   2.677   3.736   1.981
  281TCM    cl2 1570   2.934   3.601   1.942
  281TCM     h1 1571   2.743   3.597   1.798
  281TCM    cl3 1572   2.848   3.808   1.754
  282TCM     c1 1573   4.699   0.378   3.836
  282TCM    cl1 1574   4.768   0.447   3.686
  282TCM    cl2 1575   4.674   0.509   3.956
  282TCM     h1 1576   4.604   0.329   3.815
  282TCM    cl3 1577   4.813   0.257   3.904
  283TCM     c1 1578   4.404   2.940   4.584
  283TCM    cl1 1579   4.329   2.792   4.650
  283TCM    cl2 1580   4.570   2.958   4.649
  283TCM     h1 1581   4.409   2.933   4.475
  283TCM    cl3 1582   4.307   3.083   4.631
  284TCM     c1 1583   0.978   4.688   2.259
  284TCM    cl1 1584   1.089   4.766   2.143
  284TCM    cl2 1585   1.063   4.553   2.341
  284TCM     h1 1586   0.946   4.761   2.334
  284TCM    cl3 1587   0.835   4.625   2.171
  285TCM     c1 1588   0.058   0.232   0.087
  285TCM    cl1 1589   0.172   0.192   4.954
  285TCM    cl2 1590   0.014   0.406   0.076
  285TCM     h1 1591   4.968   0.171   0.079
  285TCM    cl3 1592   0.139   0.199   0.244
  286TCM     c1 1593   4.529   0.211   3.510
  286TCM    cl1 1594   4.432   0.163   3.654
  286TCM    cl2 1595   4.440   0.165   3.361
  286TCM     h1 1596   4.545   0.319   3.511
  286TCM    cl3 1597   4.687   0.126   3.516
  287TCM     c1 1598   3.576   0.158   4.384
  287TCM    cl1 1599   3.423   0.083   4.326
  287TCM    cl2 1600   3.668   0.222   4.244
  287TCM     h1 1601   3.553   0.240   4.453
  287TCM    cl3 1602   3.673   0.033   4.469
  288TCM     c1 1603   1.305   1.916   1.565
  288TCM    cl1 1604   1.168   2.018   1.622
  288TCM    cl2 1605   1.416   1.885   1.702
  288TCM     h1 1606   1.266   1.820   1.528
  288TCM    cl3 1607   1.392   2.001   1.434
  289TCM     c1 1608   0.282   0.168   1.357
  289TCM    cl1 1609   0.331   0.268   1.216
  289TCM    cl2 1610   0.169   0.040   1.302
  289TCM     h1 1611   0.371   0.121   1.401
  289TCM    cl3 1612   0.203   0.272   1.479
  290TCM     c1 1613   3.073   1.634   2.769
  290TCM    cl1 1614   3.025   1.791   2.694
  290TCM    cl2 1615   3.247   1.639   2.813
  290TCM     h1 1616   3.013   1.616   2.858
  290TCM    cl3 1617   3.044   1.503   2.650
  291TCM     c1 1618   3.445   0.355   0.373
  291TCM    cl1 1619   3.495   0.504   0.286
  291TCM    cl2 1620   3.298   0.390   0.471
  291TCM     h1 1621   3.423   0.276   0.301
  291TCM    cl3 1622   3.578   0.303   0.481
  292TCM     c1 1623   0.617   1.393   1.923
  292TCM    cl1 1624   0.639   1.542   1.825
  292TCM    cl2 1625   0.714   1.407   2.073
  292TCM     h1 1626   0.512   1.382   1.949
  292TCM    cl3 1627   0.672   1.250   1.830
  293TCM     c1 1628   2.851   3.772   1.235
  293TCM    cl1 1629   2.801   3.934   1.176
  293TCM    cl2 1630   2.707   3.666   1.247
  293TCM     h1 1631   2.923   3.728   1.165
  293TCM    cl3 1632   2.927   3.788   1.397
  294TCM     c1 1633   2.420   2.563   4.138
  294TCM    cl1 1634   2.283   2.496   4.043
  294TCM    cl2 1635   2.358   2.626   4.294
  294TCM     h1 1636   2.494   2.485   4.156
  294TCM    cl3 1637   2.496   2.697   4.045
  295TCM     c1 1638   0.505   2.247   0.705
  295TCM    cl1 1639   0.592   2.163   0.572
  295TCM    cl2 1640   0.624   2.307   0.825
  295TCM     h1 1641   0.449   2.331   0.664
  295TCM    cl3 1642   0.392   2.133   0.785
  296TCM     c1 1643   2.348   0.369   1.247
  296TCM    cl1 1644   2.437   0.221   1.198
  296TCM    cl2 1645   2.386   0.503   1.134
  296TCM     h1 1646   2.241   0.349   1.245
  296TCM    cl3 1647   2.397   0.415   1.414
  297TCM     c1 1648   2.375   3.859   0.040
  297TCM    cl1 1649   2.388   3.685   4.997
  297TCM    cl2 1650   2.331   3.875   0.213
  297TCM     h1 1651   2.471   3.908   0.022
  297TCM    cl3 1652   2.249   3.937   4.939
  298TCM     c1 1653   0.250   3.372   4.982
  298TCM    cl1 1654   0.112   3.345   4.871
  298TCM    cl2 1655   0.299   3.217   0.057
  298TCM     h1 1656   0.335   3.413   4.926
  298TCM    cl3 1657   0.202   3.487   0.112
  299TCM     c1 1658   3.725   1.850   1.789
  299TCM    cl1 1659   3.867   1.743   1.763
  299TCM    cl2 1660   3.779   2.003   1.866
  299TCM     h1 1661   3.678   1.872   1.693
  299TCM    cl3 1662   3.607   1.768   1.896
  300TCM     c1 1663   2.325   2.697   2.558
  300TCM    cl1 1664   2.191   2.601   2.628
  300TCM    cl2 1665   2.474   2.677   2.657
  300TCM     h1 1666   2.345   2.664   2.456
  300TCM    cl3 1667   2.278   2.870   2.556
  301TCM     c1 1668   4.444   2.749   0.545
  301TCM    cl1 1669   4.426   2.914   0.612
  301TCM    cl2 1670   4.298   2.707   0.449
  301TCM     h1 1671   4.532   2.745   0.480
  301TCM    cl3 1672   4.463   2.631   0.678
  302TCM     c1 1673   4.951   4.244   1.605
  302TCM    cl1 1674   0.113   4.169   1.626
  302TCM    cl2 1675   4.970   4.422   1.589
  302TCM     h1 1676   4.904   4.204   1.515
  302TCM    cl3 1677   4.849   4.208   1.748
  303TCM     c1 1678   3.073   1.575   3.739
  303TCM    cl1 1679   3.042   1.411   3.673
  303TCM    cl2 1680   2.925   1.674   3.719
  303TCM     h1 1681   3.098   1.568   3.845
  303TCM    cl3 1682   3.209   1.650   3.650
  304TCM     c1 1683   1.023   3.872   2.080
  304TCM    cl1 1684   0.947   3.714   2.119
  304TCM    cl2 1685   1.095   3.942   2.228
  304TCM     h1 1686   1.101   3.857   2.004
  304TCM    cl3 1687   0.898   3.983   2.015
  305TCM     c1 1688   2.883   4.035   2.193
  305TCM    cl1 1689   2.844   4.062   2.020
  305TCM    cl2 1690   2.954   3.871   2.213
  305TCM     h1 1691   2.954   4.110   2.227
  305TCM    cl3 1692   2.732   4.045   2.290
  306TCM     c1 1693   1.574   3.016   2.151
  306TCM    cl1 1694   1.530   2.984   1.980
  306TCM    cl2 1695   1.748   3.060   2.161
  306TCM     h1 1696   1.513   3.098   2.189
  306TCM    cl3 1697   1.545   2.869   2.248
  307TCM     c1 1698   4.638   0.169   0.076
  307TCM    cl1 1699   4.732   0.201   4.926
  307TCM    cl2 1700   4.685   0.288   0.202
  307TCM     h1 1701   4.531   0.178   0.055
  307TCM    cl3 1702   4.676   0.004   0.134
  308TCM     c1 1703   4.149   4.973   2.469
  308TCM    cl1 1704   4.145   0.148   2.512
  308TCM    cl2 1705   4.145   4.874   2.618
  308TCM     h1 1706   4.062   4.950   2.407
  308TCM    cl3 1707   4.299   4.937   2.376
  309TCM     c1 1708   1.265   0.157   3.058
  309TCM    cl1 1709   1.297   0.040   3.191
  309TCM    cl2 1710   1.255   0.068   2.902
  309TCM     h1 1711   1.170   0.209   3.077
  309TCM    cl3 1712   1.398   0.276   3.049
  310TCM     c1 1713   3.395   4.724   3.770
  310TCM    cl1 1714   3.424   4.890   3.707
  310TCM    cl2 1715   3.470   4.710   3.932
  310TCM     h1 1716   3.288   4.706   3.777
  310TCM    cl3 1717   3.470   4.605   3.658
  311TCM     c1 1718   3.681   2.070   4.836
  311TCM    cl1 1719   3.778   2.220   4.851
  311TCM    cl2 1720   3.720   1.958   4.970
  311TCM     h1 1721   3.574   2.095   4.838
  311TCM    cl3 1722   3.721   1.990   4.680
  312TCM     c1 1723   4.735   4.145   2.292
  312TCM    cl1 1724   4.817   4.128   2.132
  312TCM    cl2 1725   4.854   4.202   2.414
  312TCM     h1 1726   4.654   4.218   2.283
  312TCM    cl3 1727   4.668   3.987   2.342
  313TCM     c1 1728   4.765   3.000   2.208
  313TCM    cl1 1729   4.735   3.173   2.169
  313TCM    cl2 1730   4.643   2.898   2.124
  313TCM     h1 1731   4.865   2.971   2.176
  313TCM    cl3 1732   4.750   2.976   2.385
  314TCM     c1 1733   1.302   2.299   0.662
  314TCM    cl1 1734   1.399   2.361   0.524
  314TCM    cl2 1735   1.392   2.327   0.815
  314TCM     h1 1736   1.207   2.352   0.666
  314TCM    cl3 1737   1.273   2.123   0.640
  315TCM     c1 1738   0.993   1.733   3.783
  315TCM    cl1 1739   0.933   1.646   3.927
  315TCM    cl2 1740   0.875   1.715   3.649
  315TCM     h1 1741   1.006   1.839   3.806
  315TCM    cl3 1742   1.151   1.664   3.733
  316TCM     c1 1743   4.022   3.676   1.271
  316TCM    cl1 1744   4.162   3.647   1.381
  316TCM    cl2 1745   4.082   3.690   1.103
  316TCM     h1 1746   3.952   3.593   1.279
  316TCM    cl3 1747   3.941   3.829   1.318
  317TCM     c1 1748   0.044   0.034   2.164
  317TCM    cl1 1749   4.999   0.185   2.250
  317TCM    cl2 1750   4.907   4.918   2.169
  317TCM     h1 1751   0.068   0.057   2.060
  317TCM    cl3 1752   0.188   4.962   2.243
  318TCM     c1 1753   1.416   2.391   1.671
  318TCM    cl1 1754   1.319   2.344   1.528
  318TCM    cl2 1755   1.508   2.250   1.731
  318TCM     h1 1756   1.486   2.471   1.644
  318TCM    cl3 1757   1.306   2.449   1.801
  319TCM     c1 1758   0.665   2.414   4.415
  319TCM    cl1 1759   0.527   2.308   4.461
  319TCM    cl2 1760   0.816   2.347   4.485
  319TCM     h1 1761   0.673   2.417   4.306
  319TCM    cl3 1762   0.637   2.579   4.478
  320TCM     c1 1763   1.068   0.746   0.064
  320TCM    cl1 1764   1.172   0.768   4.919
  320TCM    cl2 1765   1.021   0.573   0.077
  320TCM     h1 1766   1.124   0.776   0.153
  320TCM    cl3 1767   0.921   0.847   0.047
  321TCM     c1 1768   3.350   2.980   0.882
  321TCM    cl1 1769   3.203   3.068   0.938
  321TCM    cl2 1770   3.480   2.996   1.004
  321TCM     h1 1771   3.326   2.874   0.869
  321TCM    cl3 1772   3.404   3.050   0.726
  322TCM     c1 1773   3.505   4.781   2.928
  322TCM    cl1 1774   3.498   4.925   3.034
  322TCM    cl2 1775   3.673   4.755   2.872
  322TCM     h1 1776   3.471   4.692   2.983
  322TCM    cl3 1777   3.397   4.809   2.786
  323TCM     c1 1778   4.541   3.257   4.881
  323TCM    cl1 1779   4.602   3.236   0.049
  323TCM    cl2 1780   4.671   3.325   4.778
  323TCM     h1 1781   4.510   3.161   4.842
  323TCM    cl3 1782   4.401   3.370   4.882
  324TCM     c1 1783   4.389   2.732   2.601
  324TCM    cl1 1784   4.404   2.901   2.662
  324TCM    cl2 1785   4.239   2.658   2.666
  324TCM     h1 1786   4.385   2.733   2.492
  324TCM    cl3 1787   4.531   2.637   2.655
  325TCM     c1 1788   1.991   4.408   3.461
  325TCM    cl1 1789   1.851   4.320   3.391
  325TCM    cl2 1790   1.983   4.399   3.640
  325TCM     h1 1791   2.084   4.362   3.426
  325TCM    cl3 1792   1.985   4.580   3.410
  326TCM     c1 1793   3.392   2.174   0.741
  326TCM    cl1 1794   3.333   2.336   0.691
  326TCM    cl2 1795   3.497   2.192   0.885
  326TCM     h1 1796   3.307   2.110   0.766
  326TCM    cl3 1797   3.485   2.100   0.607
  327TCM     c1 1798   2.206   1.840   2.339
  327TCM    cl1 1799   2.109   1.947   2.446
  327TCM    cl2 1800   2.254   1.930   2.191
  327TCM     h1 1801   2.296   1.808   2.392
  327TCM    cl3 1802   2.109   1.697   2.293
  328TCM     c1 1803   2.786   2.662   3.233
  328TCM    cl1 1804   2.814   2.714   3.402
  328TCM    cl2 1805   2.717   2.799   3.140
  328TCM     h1 1806   2.881   2.631   3.188
  328TCM    cl3 1807   2.671   2.524   3.230
  329TCM     c1 1808   0.068   1.766   1.422
  329TCM    cl1 1809   0.202   1.885   1.432
  329TCM    cl2 1810   0.023   1.742   1.250
  329TCM     h1 1811   0.100   1.671   1.465
  329TCM    cl3 1812   4.927   1.829   1.513
  330TCM     c1 1813   1.604   1.326   3.418
  330TCM    cl1 1814   1.570   1.191   3.306
  330TCM    cl2 1815   1.449   1.397   3.475
  330TCM     h1 1816   1.660   1.289   3.504
  330TCM    cl3 1817   1.700   1.451   3.333
  331TCM     c1 1818   3.321   4.172   2.152
  331TCM    cl1 1819   3.284   4.039   2.267
  331TCM    cl2 1820   3.393   4.310   2.242
  331TCM     h1 1821   3.391   4.137   2.076
  331TCM    cl3 1822   3.169   4.227   2.072
  332TCM     c1 1823   2.161   3.623   0.417
  332TCM    cl1 1824   2.248   3.670   0.567
  332TCM    cl2 1825   2.017   3.525   0.460
  332TCM     h1 1826   2.130   3.712   0.363
  332TCM    cl3 1827   2.270   3.525   0.313
  333TCM     c1 1828   4.591   2.271   3.082
  333TCM    cl1 1829   4.591   2.394   2.951
  333TCM    cl2 1830   4.675   2.338   3.226
  333TCM     h1 1831   4.488   2.246   3.109
  333TCM    cl3 1832   4.676   2.124   3.026
  334TCM     c1 1833   2.364   3.802   1.259
  334TCM    cl1 1834   2.429   3.880   1.111
  334TCM    cl2 1835   2.186   3.824   1.263
  334TCM     h1 1836   2.388   3.695   1.258
  334TCM    cl3 1837   2.437   3.879   1.404
  335TCM     c1 1838   0.855   4.829   4.710
  335TCM    cl1 1839   0.993   4.940   4.683
  335TCM    cl2 1840   0.905   4.660   4.674
  335TCM     h1 1841   0.822   4.835   4.814
  335TCM    cl3 1842   0.719   4.874   4.602
  336TCM     c1 1843   3.414   3.064   3.609
  336TCM    cl1 1844   3.479   3.168   3.479
  336TCM    cl2 1845   3.381   3.165   3.753
  336TCM     h1 1846   3.321   3.016   3.575
  336TCM    cl3 1847   3.535   2.938   3.650
  337TCM     c1 1848   3.561   3.775   1.141
  337TCM    cl1 1849   3.412   3.745   1.045
  337TCM    cl2 1850   3.605   3.948   1.131
  337TCM     h1 1851   3.542   3.749   1.246
  337TCM    cl3 1852   3.695   3.674   1.078
  338TCM     c1 1853   2.611   1.311   3.815
  338TCM    cl1 1854   2.760   1.247   3.892
  338TCM    cl2 1855   2.490   1.351   3.941
  338TCM     h1 1856   2.635   1.400   3.757
  338TCM    cl3 1857   2.541   1.186   3.705
  339TCM     c1 1858   1.962   3.543   4.557
  339TCM    cl1 1859   1.927   3.715   4.520
  339TCM    cl2 1860   1.954   3.447   4.406
  339TCM     h1 1861   2.062   3.535   4.600
  339TCM    cl3 1862   1.841   3.481   4.674
  340TCM     c1 1863   4.224   3.877   3.103
  340TCM    cl1 1864   4.128   4.011   3.173
  340TCM    cl2 1865   4.309   3.934   2.956
  340TCM     h1 1866   4.298   3.842   3.176
  340TCM    cl3 1867   4.114   3.741   3.061
  341TCM     c1 1868   3.166   1.898   4.799
  341TCM    cl1 1869   3.081   2.006   4.683
  341TCM    cl2 1870   3.046   1.826   4.911
  341TCM     h1 1871   3.217   1.818   4.745
  341TCM    cl3 1872   3.285   1.994   4.893
  342TCM     c1 1873   0.400   0.687   4.047
  342TCM    cl1 1874   0.519   0.779   4.145
  342TCM    cl2 1875   0.486   0.599   3.916
  342TCM     h1 1876   0.348   0.615   4.111
  342TCM    cl3 1877   0.282   0.800   3.975
  343TCM     c1 1878   3.353   0.808   1.950
  343TCM    cl1 1879   3.430   0.711   1.821
  343TCM    cl2 1880   3.220   0.906   1.880
  343TCM     h1 1881   3.312   0.742   2.027
  343TCM    cl3 1882   3.475   0.917   2.024
  344TCM     c1 1883   2.853   4.981   2.386
  344TCM    cl1 1884   2.744   0.074   2.495
  344TCM    cl2 1885   2.761   4.845   2.314
  344TCM     h1 1886   2.890   0.046   2.307
  344TCM    cl3 1887   2.990   4.915   2.481
  345TCM     c1 1888   2.782   4.484   2.363
  345TCM    cl1 1889   2.920   4.540   2.464
  345TCM    cl2 1890   2.679   4.374   2.460
  345TCM     h1 1891   2.723   4.570   2.330
  345TCM    cl3 1892   2.846   4.396   2.220
  346TCM     c1 1893   0.757   0.823   1.909
  346TCM    cl1 1894   0.936   0.840   1.908
  346TCM    cl2 1895   0.691   0.891   1.757
  346TCM     h1 1896   0.731   0.717   1.917
  346TCM    cl3 1897   0.689   0.912   2.050
  347TCM     c1 1898   2.537   4.417   3.094
  347TCM    cl1 1899   2.370   4.370   3.139
  347TCM    cl2 1900   2.593   4.319   2.955
  347TCM     h1 1901   2.540   4.523   3.068
  347TCM    cl3 1902   2.646   4.386   3.234
  348TCM     c1 1903   4.134   1.837   4.713
  348TCM    cl1 1904   4.308   1.858   4.674
  348TCM    cl2 1905   4.038   1.833   4.562
  348TCM     h1 1906   4.120   1.744   4.768
  348TCM    cl3 1907   4.079   1.975   4.814
  349TCM     c1 1908   0.409   0.605   0.050
  349TCM    cl1 1909   0.254   0.663   4.983
  349TCM    cl2 1910   0.523   0.573   4.915
  349TCM     h1 1911   0.451   0.680   0.117
  349TCM    cl3 1912   0.381   0.453   0.141
  350TCM     c1 1913   3.905   3.893   0.052
  350TCM    cl1 1914   4.076   3.947   0.059
  350TCM    cl2 1915   3.894   3.740   4.958
  350TCM     h1 1916   3.868   3.875   0.154
  350TCM    cl3 1917   3.805   4.019   4.973
  351TCM     c1 1918   1.912   2.261   2.446
  351TCM    cl1 1919   1.887   2.385   2.573
  351TCM    cl2 1920   2.039   2.317   2.331
  351TCM     h1 1921   1.944   2.168   2.492
  351TCM    cl3 1922   1.759   2.236   2.357
  352TCM     c1 1923   1.972   4.143   1.471
  352TCM    cl1 1924   2.150   4.116   1.480
  352TCM    cl2 1925   1.897   4.092   1.625
  352TCM     h1 1926   1.952   4.249   1.454
  352TCM    cl3 1927   1.904   4.047   1.335
  353TCM     c1 1928   4.056   3.618   1.820
  353TCM    cl1 1929   3.986   3.714   1.685
  353TCM    cl2 1930   4.050   3.715   1.971
  353TCM     h1 1931   3.998   3.526   1.833
  353TCM    cl3 1932   4.226   3.577   1.782
  354TCM     c1 1933   2.646   4.512   0.639
  354TCM    cl1 1934   2.727   4.641   0.545
  354TCM    cl2 1935   2.575   4.581   0.788
  354TCM     h1 1936   2.567   4.467   0.578
  354TCM    cl3 1937   2.766   4.385   0.681
  355TCM     c1 1938   2.789   2.375   4.443
  355TCM    cl1 1939   2.813   2.552   4.428
  355TCM    cl2 1940   2.612   2.340   4.447
  355TCM     h1 1941   2.834   2.324   4.357
  355TCM    cl3 1942   2.865   2.316   4.594
  356TCM     c1 1943   1.652   3.408   2.261
  356TCM    cl1 1944   1.526   3.339   2.367
  356TCM    cl2 1945   1.673   3.583   2.297
  356TCM     h1 1946   1.747   3.356   2.278
  356TCM    cl3 1947   1.603   3.388   2.089
  357TCM     c1 1948   0.655   4.169   4.665
  357TCM    cl1 1949   0.599   4.165   4.494
  357TCM    cl2 1950   0.514   4.151   4.773
  357TCM     h1 1951   0.726   4.088   4.682
  357TCM    cl3 1952   0.736   4.326   4.697
  358TCM     c1 1953   0.168   2.203   1.610
  358TCM    cl1 1954   0.339   2.151   1.632
  358TCM    cl2 1955   0.160   2.329   1.482
  358TCM     h1 1956   0.107   2.117   1.580
  358TCM    cl3 1957   0.106   2.270   1.764
  359TCM     c1 1958   4.352   0.777   4.081
  359TCM    cl1 1959   4.478   0.799   4.208
  359TCM    cl2 1960   4.430   0.767   3.920
  359TCM     h1 1961   4.297   0.685   4.101
  359TCM    cl3 1962   4.239   0.917   4.085
  360TCM     c1 1963   3.721   0.936   0.192
  360TCM    cl1 1964   3.662   0.907   0.359
  360TCM    cl2 1965   3.624   1.067   0.116
  360TCM     h1 1966   3.826   0.965   0.195
  360TCM    cl3 1967   3.703   0.785   0.096
  361TCM     c1 1968   1.764   1.593   3.765
  361TCM    cl1 1969   1.898   1.613   3.881
  361TCM    cl2 1970   1.722   1.419   3.750
  361TCM     h1 1971   1.676   1.648   3.800
  361TCM    cl3 1972   1.814   1.657   3.605
  362TCM     c1 1973   0.303   1.883   1.869
  362TCM    cl1 1974   0.398   1.803   1.739
  362TCM    cl2 1975   0.317   1.788   2.020
  362TCM     h1 1976   0.342   1.984   1.885
  362TCM    cl3 1977   0.131   1.892   1.819
  363TCM     c1 1978   1.667   0.412   3.332
  363TCM    cl1 1979   1.801   0.498   3.414
  363TCM    cl2 1980   1.732   0.327   3.188
  363TCM     h1 1981   1.623   0.339   3.400
  363TCM    cl3 1982   1.541   0.529   3.279
  364TCM     c1 1983   2.096   4.148   0.964
  364TCM    cl1 1984   1.929   4.208   0.984
  364TCM    cl2 1985   2.093   3.971   0.932
  364TCM     h1 1986   2.144   4.199   0.879
  364TCM    cl3 1987   2.190   4.180   1.113
  365TCM     c1 1988   3.378   1.603   4.191
  365TCM    cl1 1989   3.327   1.589   4.019
  365TCM    cl2 1990   3.233   1.636   4.292
  365TCM     h1 1991   3.425   1.510   4.223
  365TCM    cl3 1992   3.494   1.739   4.208
  366TCM     c1 1993   2.187   3.622   4.087
  366TCM    cl1 1994   2.234   3.686   3.926
  366TCM    cl2 1995   2.143   3.449   4.073
  366TCM     h1 1996   2.270   3.633   4.156
  366TCM    cl3 1997   2.045   3.715   4.148
  367TCM     c1 1998   3.098   0.671   4.837
  367TCM    cl1 1999   2.966   0.717   4.950
  367TCM    cl2 2000   3.117   0.799   4.712
  367TCM     h1 2001   3.191   0.660   4.892
  367TCM    cl3 2002   3.056   0.516   4.756
  368TCM     c1 2003   2.963   2.760   2.439
  368TCM    cl1 2004   3.020   2.768   2.270
  368TCM    cl2 2005   3.090   2.825   2.547
  368TCM     h1 2006   2.871   2.819   2.450
  368TCM    cl3 2007   2.931   2.589   2.483
  369TCM     c1 2008   4.744   4.350   0.613
  369TCM    cl1 2009   4.676   4.342   0.447
  369TCM    cl2 2010   4.643   4.252   0.723
  369TCM     h1 2011   4.847   4.312   0.612
  369TCM    cl3 2012   4.745   4.521   0.669
  370TCM     c1 2013   2.008   2.731   4.206
  370TCM    cl1 2014   1.887   2.821   4.303
  370TCM    cl2 2015   2.102   2.846   4.105
  370TCM     h1 2016   2.076   2.678   4.273
  370TCM    cl3 2017   1.925   2.613   4.099
  371TCM     c1 2018   2.526   3.937   4.229
  371TCM    cl1 2019   2.576   3.858   4.076
  371TCM    cl2 2020   2.651   3.907   4.355
  371TCM     h1 2021   2.515   4.045   4.214
  371TCM    cl3 2022   2.370   3.868   4.284
  372TCM     c1 2023   4.411   0.008   2.841
  372TCM    cl1 2024   4.475   0.034   2.676
  372TCM    cl2 2025   4.499   0.113   2.957
  372TCM     h1 2026   4.304   0.033   2.843
  372TCM    cl3 2027   4.433   4.836   2.887
  373TCM     c1 2028   1.928   3.706   1.914
  373TCM    cl1 2029   2.016   3.740   2.067
  373TCM    cl2 2030   1.753   3.697   1.950
  373TCM     h1 2031   1.947   3.785   1.842
  373TCM    cl3 2032   1.984   3.549   1.848
  374TCM     c1 2033   3.295   0.696   0.701
  374TCM    cl1 2034   3.205   0.848   0.674
  374TCM    cl2 2035   3.334   0.681   0.875
  374TCM     h1 2036   3.234   0.610   0.670
  374TCM    cl3 2037   3.448   0.700   0.606
  375TCM     c1 2038   0.104   3.764   2.996
  375TCM    cl1 2039   0.189   3.746   3.153
  375TCM    cl2 2040   0.017   3.921   2.993
  375TCM     h1 2041   0.177   3.762   2.915
  375TCM    cl3 2042   4.986   3.631   2.976
  376TCM     c1 2043   2.864   2.658   4.786
  376TCM    cl1 2044   2.822   2.814   4.708
  376TCM    cl2 2045   2.714   2.567   4.822
  376TCM     h1 2046   2.927   2.599   4.720
  376TCM    cl3 2047   2.952   2.691   4.939
  377TCM     c1 2048   1.230   2.342   4.733
  377TCM    cl1 2049   1.075   2.279   4.797
  377TCM    cl2 2050   1.270   2.498   4.814
  377TCM     h1 2051   1.310   2.270   4.752
  377TCM    cl3 2052   1.214   2.371   4.557
  378TCM     c1 2053   2.838   0.310   2.102
  378TCM    cl1 2054   2.903   0.320   2.269
  378TCM    cl2 2055   2.720   0.175   2.094
  378TCM     h1 2056   2.789   0.404   2.076
  378TCM    cl3 2057   2.972   0.278   1.988
  379TCM     c1 2058   1.589   3.513   4.411
  379TCM    cl1 2059   1.502   3.596   4.544
  379TCM    cl2 2060   1.650   3.634   4.294
  379TCM     h1 2061   1.673   3.456   4.453
  379TCM    cl3 2062   1.478   3.400   4.328
  380TCM     c1 2063   0.653   2.723   0.572
  380TCM    cl1 2064   0.768   2.765   0.441
  380TCM    cl2 2065   0.733   2.747   0.731
  380TCM     h1 2066   0.564   2.786   0.565
  380TCM    cl3 2067   0.605   2.551   0.556
  381TCM     c1 2068   2.780   0.150   3.012
  381TCM    cl1 2069   2.711   0.203   2.855
  381TCM    cl2 2070   2.650   0.078   3.113
  381TCM     h1 2071   2.858   0.076   2.995
  381TCM    cl3 2072   2.850   0.292   3.097
  382TCM     c1 2073   1.958   3.039   1.024
  382TCM    cl1 2074   1.974   3.191   1.119
  382TCM    cl2 2075   1.891   3.077   0.862
  382TCM     h1 2076   2.056   2.992   1.013
  382TCM    cl3 2077   1.846   2.927   1.109
  383TCM     c1 2078   3.234   0.261   4.087
  383TCM    cl1 2079   3.096   0.324   3.991
  383TCM    cl2 2080   3.312   0.397   4.175
  383TCM     h1 2081   3.197   0.187   4.159
  383TCM    cl3 2082   3.352   0.185   3.977
  384TCM     c1 2083   2.787   3.436   0.033
  384TCM    cl1 2084   2.804   3.417   4.855
  384TCM    cl2 2085   2.928   3.528   0.095
  384TCM     h1 2086   2.694   3.489   0.056
  384TCM    cl3 2087   2.785   3.274   0.109
  385TCM     c1 2088   0.076   0.415   4.117
  385TCM    cl1 2089   4.968   0.544   4.180
  385TCM    cl2 2090   0.219   0.401   4.224
  385TCM     h1 2091   0.022   0.320   4.115
  385TCM    cl3 2092   0.129   0.458   3.951
  386TCM     c1 2093   2.541   2.467   3.731
  386TCM    cl1 2094   2.599   2.379   3.876
  386TCM    cl2 2095   2.381   2.402   3.682
  386TCM     h1 2096   2.532   2.573   3.754
  386TCM    cl3 2097   2.658   2.445   3.597
  387TCM     c1 2098   0.701   1.392   0.016
  387TCM    cl1 2099   0.790   1.529   4.940
  387TCM    cl2 2100   0.702   1.251   4.904
  387TCM     h1 2101   0.750   1.365   0.110
  387TCM    cl3 2102   0.532   1.441   0.048
  388TCM     c1 2103   4.541   3.148   1.848
  388TCM    cl1 2104   4.395   3.226   1.779
  388TCM    cl2 2105   4.685   3.247   1.808
  388TCM     h1 2106   4.531   3.141   1.957
  388TCM    cl3 2107   4.560   2.984   1.778
  389TCM     c1 2108   3.019   3.277   0.423
  389TCM    cl1 2109   2.913   3.133   0.426
  389TCM    cl2 2110   3.137   3.266   0.558
  389TCM     h1 2111   3.073   3.282   0.328
  389TCM    cl3 2112   2.920   3.425   0.445
  390TCM     c1 2113   2.537   4.746   1.470
  390TCM    cl1 2114   2.494   4.855   1.335
  390TCM    cl2 2115   2.406   4.747   1.592
  390TCM     h1 2116   2.551   4.644   1.432
  390TCM    cl3 2117   2.690   4.802   1.546
  391TCM     c1 2118   2.734   3.849   4.767
  391TCM    cl1 2119   2.570   3.898   4.716
  391TCM    cl2 2120   2.797   3.725   4.653
  391TCM     h1 2121   2.801   3.936   4.768
  391TCM    cl3 2122   2.725   3.780   4.932
  392TCM     c1 2123   4.046   3.998   2.676
  392TCM    cl1 2124   4.044   4.164   2.610
  392TCM    cl2 2125   3.971   3.887   2.557
  392TCM     h1 2126   4.149   3.967   2.697
  392TCM    cl3 2127   3.950   3.994   2.828
  393TCM     c1 2128   2.401   1.420   2.243
  393TCM    cl1 2129   2.346   1.499   2.092
  393TCM    cl2 2130   2.457   1.545   2.359
  393TCM     h1 2131   2.319   1.364   2.287
  393TCM    cl3 2132   2.537   1.308   2.206
  394TCM     c1 2133   4.794   2.214   0.636
  394TCM    cl1 2134   4.734   2.045   0.646
  394TCM    cl2 2135   4.867   2.260   0.793
  394TCM     h1 2136   4.870   2.221   0.557
  394TCM    cl3 2137   4.658   2.324   0.598
  395TCM     c1 2138   4.069   0.509   3.119
  395TCM    cl1 2139   4.086   0.331   3.122
  395TCM    cl2 2140   3.952   0.559   3.245
  395TCM     h1 2141   4.167   0.555   3.139
  395TCM    cl3 2142   4.009   0.564   2.959
  396TCM     c1 2143   4.885   2.340   0.032
  396TCM    cl1 2144   4.926   2.413   0.191
  396TCM    cl2 2145   0.023   2.363   4.920
  396TCM     h1 2146   4.865   2.233   0.045
  396TCM    cl3 2147   4.740   2.421   4.967
  397TCM     c1 2148   3.392   1.148   0.772
  397TCM    cl1 2149   3.483   1.049   0.891
  397TCM    cl2 2150   3.465   1.128   0.609
  397TCM     h1 2151   3.288   1.116   0.769
  397TCM    cl3 2152   3.400   1.322   0.819
  398TCM     c1 2153   2.631   4.254   4.592
  398TCM    cl1 2154   2.786   4.164   4.609
  398TCM    cl2 2155   2.585   4.261   4.418
  398TCM     h1 2156   2.553   4.202   4.647
  398TCM    cl3 2157   2.651   4.419   4.658
  399TCM     c1 2158   1.683   0.138   0.452
  399TCM    cl1 2159   1.842   0.201   0.509
  399TCM    cl2 2160   1.578   0.107   0.594
  399TCM     h1 2161   1.636   0.212   0.387
  399TCM    cl3 2162   1.709   4.986   0.361
  400TCM     c1 2163   1.323   3.090   4.213
  400TCM    cl1 2164   1.429   2.967   4.290
  400TCM    cl2 2165   1.162   3.018   4.182
  400TCM     h1 2166   1.313   3.176   4.280
  400TCM    cl3 2167   1.396   3.144   4.058
  401TCM     c1 2168   1.178   2.152   1.973
  401TCM    cl1 2169   1.135   2.263   2.107
  401TCM    cl2 2170   1.060   2.017   1.968
  401TCM     h1 2171   1.177   2.206   1.879
  401TCM    cl3 2172   1.343   2.086   2.001
  402TCM     c1 2173   1.172   1.393   0.473
  402TCM    cl1 2174   1.320   1.399   0.371
  402TCM    cl2 2175   1.217   1.421   0.645
  402TCM     h1 2176   1.101   1.469   0.440
  402TCM    cl3 2177   1.096   1.231   0.457
  403TCM     c1 2178   0.478   0.293   3.214
  403TCM    cl1 2179   0.534   0.388   3.072
  403TCM    cl2 2180   0.573   0.142   3.225
  403TCM     h1 2181   0.492   0.352   3.305
  403TCM    cl3 2182   0.304   0.253   3.195
  404TCM     c1 2183   2.738   3.746   0.378
  404TCM    cl1 2184   2.654   3.871   0.476
  404TCM    cl2 2185   2.859   3.825   0.273
  404TCM     h1 2186   2.787   3.674   0.444
  404TCM    cl3 2187   2.619   3.660   0.275
  405TCM     c1 2188   0.141   1.912   0.683
  405TCM    cl1 2189   0.105   2.059   0.585
  405TCM    cl2 2190   0.084   1.767   0.595
  405TCM     h1 2191   0.249   1.905   0.700
  405TCM    cl3 2192   0.056   1.924   0.841
  406TCM     c1 2193   3.120   4.486   4.099
  406TCM    cl1 2194   3.200   4.600   4.212
  406TCM    cl2 2195   3.241   4.424   3.982
  406TCM     h1 2196   3.077   4.402   4.155
  406TCM    cl3 2197   2.991   4.572   4.011
  407TCM     c1 2198   0.331   3.196   3.413
  407TCM    cl1 2199   0.351   3.057   3.301
  407TCM    cl2 2200   0.387   3.346   3.332
  407TCM     h1 2201   0.226   3.206   3.439
  407TCM    cl3 2202   0.428   3.169   3.561
  408TCM     c1 2203   2.607   0.470   1.721
  408TCM    cl1 2204   2.774   0.411   1.693
  408TCM    cl2 2205   2.590   0.637   1.658
  408TCM     h1 2206   2.536   0.404   1.670
  408TCM    cl3 2207   2.574   0.471   1.898
  409TCM     c1 2208   4.691   4.914   4.308
  409TCM    cl1 2209   4.800   4.887   4.448
  409TCM    cl2 2210   4.613   4.758   4.264
  409TCM     h1 2211   4.614   4.986   4.336
  409TCM    cl3 2212   4.785   4.977   4.169
  410TCM     c1 2213   3.818   0.883   2.232
  410TCM    cl1 2214   3.845   1.012   2.110
  410TCM    cl2 2215   3.773   0.729   2.150
  410TCM     h1 2216   3.910   0.867   2.289
  410TCM    cl3 2217   3.686   0.930   2.343
  411TCM     c1 2218   2.372   4.834   2.144
  411TCM    cl1 2219   2.467   4.688   2.189
  411TCM    cl2 2220   2.406   4.877   1.973
  411TCM     h1 2221   2.266   4.812   2.156
  411TCM    cl3 2222   2.418   4.971   2.251
  412TCM     c1 2223   2.007   2.646   0.589
  412TCM    cl1 2224   2.023   2.796   0.493
  412TCM    cl2 2225   1.957   2.688   0.757
  412TCM     h1 2226   1.932   2.581   0.544
  412TCM    cl3 2227   2.164   2.560   0.594
  413TCM     c1 2228   2.277   4.719   0.463
  413TCM    cl1 2229   2.308   4.554   0.527
  413TCM    cl2 2230   2.284   4.715   0.284
  413TCM     h1 2231   2.179   4.753   0.495
  413TCM    cl3 2232   2.404   4.831   0.524
  414TCM     c1 2233   3.331   0.940   2.359
  414TCM    cl1 2234   3.313   0.861   2.519
  414TCM    cl2 2235   3.364   1.115   2.382
  414TCM     h1 2236   3.415   0.894   2.304
  414TCM    cl3 2237   3.180   0.919   2.265
  415TCM     c1 2238   3.529   3.997   0.718
  415TCM    cl1 2239   3.581   3.826   0.736
  415TCM    cl2 2240   3.656   4.105   0.784
  415TCM     h1 2241   3.513   4.019   0.612
  415TCM    cl3 2242   3.376   4.023   0.808
  416TCM     c1 2243   1.613   4.099   1.899
  416TCM    cl1 2244   1.613   4.261   1.822
  416TCM    cl2 2245   1.776   4.062   1.963
  416TCM     h1 2246   1.540   4.098   1.981
  416TCM    cl3 2247   1.566   3.975   1.777
  417TCM     c1 2248   4.728   2.725   2.956
  417TCM    cl1 2249   4.890   2.672   2.898
  417TCM    cl2 2250   4.702   2.896   2.911
  417TCM     h1 2251   4.651   2.663   2.910
  417TCM    cl3 2252   4.720   2.709   3.134
  418TCM     c1 2253   1.638   1.107   2.123
  418TCM    cl1 2254   1.761   1.070   2.248
  418TCM    cl2 2255   1.693   1.246   2.023
  418TCM     h1 2256   1.625   1.019   2.058
  418TCM    cl3 2257   1.482   1.147   2.202
  419TCM     c1 2258   0.938   4.385   0.290
  419TCM    cl1 2259   0.987   4.422   0.121
  419TCM    cl2 2260   0.997   4.221   0.333
  419TCM     h1 2261   0.982   4.459   0.358
  419TCM    cl3 2262   0.759   4.390   0.303
  420TCM     c1 2263   3.002   2.663   0.799
  420TCM    cl1 2264   3.137   2.725   0.698
  420TCM    cl2 2265   2.996   2.755   0.953
  420TCM     h1 2266   2.907   2.676   0.745
  420TCM    cl3 2267   3.029   2.489   0.833
  421TCM     c1 2268   0.475   1.810   2.481
  421TCM    cl1 2269   0.386   1.663   2.534
  421TCM    cl2 2270   0.511   1.912   2.624
  421TCM     h1 2271   0.568   1.780   2.432
  421TCM    cl3 2272   0.373   1.903   2.367
  422TCM     c1 2273   2.575   0.702   4.683
  422TCM    cl1 2274   2.739   0.668   4.619
  422TCM    cl2 2275   2.493   0.821   4.576
  422TCM     h1 2276   2.517   0.609   4.685
  422TCM    cl3 2277   2.587   0.769   4.849
  423TCM     c1 2278   0.261   4.287   4.007
  423TCM    cl1 2279   0.265   4.113   3.961
  423TCM    cl2 2280   0.401   4.325   4.112
  423TCM     h1 2281   0.264   4.349   3.917
  423TCM    cl3 2282   0.109   4.321   4.097
  424TCM     c1 2283   4.815   4.052   1.243
  424TCM    cl1 2284   4.831   3.964   1.399
  424TCM    cl2 2285   4.849   3.940   1.107
  424TCM     h1 2286   4.714   4.091   1.234
  424TCM    cl3 2287   4.933   4.186   1.240
  425TCM     c1 2288   2.515   2.267   0.293
  425TCM    cl1 2289   2.379   2.370   0.237
  425TCM    cl2 2290   2.514   2.259   0.472
  425TCM     h1 2291   2.505   2.167   0.251
  425TCM    cl3 2292   2.670   2.339   0.237
  426TCM     c1 2293   0.219   4.722   3.358
  426TCM    cl1 2294   0.291   4.649   3.211
  426TCM    cl2 2295   0.313   4.861   3.295
  426TCM     h1 2296   0.144   4.801   3.369
  426TCM    cl3 2297   0.077   4.638   3.288
  427TCM     c1 2298   3.235   2.432   2.197
  427TCM    cl1 2299   3.252   2.563   2.075
  427TCM    cl2 2300   3.064   2.382   2.208
  427TCM     h1 2301   3.296   2.346   2.167
  427TCM    cl3 2302   3.289   2.492   2.357
  428TCM     c1 2303   3.918   1.120   4.884
  428TCM    cl1 2304   3.985   1.168   0.043
  428TCM    cl2 2305   3.954   0.947   4.853
  428TCM     h1 2306   3.810   1.135   4.884
  428TCM    cl3 2307   3.991   1.220   4.754
  429TCM     c1 2308   0.882   2.019   4.210
  429TCM    cl1 2309   0.975   2.017   4.056
  429TCM    cl2 2310   0.832   1.852   4.250
  429TCM     h1 2311   0.944   2.060   4.290
  429TCM    cl3 2312   0.736   2.122   4.189
  430TCM     c1 2313   0.278   0.217   1.829
  430TCM    cl1 2314   0.444   0.169   1.780
  430TCM    cl2 2315   0.277   0.252   2.005
  430TCM     h1 2316   0.247   0.305   1.773
  430TCM    cl3 2317   0.164   0.082   1.796
  431TCM     c1 2318   3.611   0.335   0.855
  431TCM    cl1 2319   3.654   0.497   0.919
  431TCM    cl2 2320   3.437   0.334   0.812
  431TCM     h1 2321   3.671   0.314   0.767
  431TCM    cl3 2322   3.641   0.211   0.981
  432TCM     c1 2323   2.888   1.993   3.529
  432TCM    cl1 2324   2.881   2.123   3.404
  432TCM    cl2 2325   2.756   2.019   3.648
  432TCM     h1 2326   2.875   1.896   3.481
  432TCM    cl3 2327   3.047   2.000   3.612
  433TCM     c1 2328   3.815   2.898   3.422
  433TCM    cl1 2329   3.856   3.062   3.484
  433TCM    cl2 2330   3.960   2.823   3.349
  433TCM     h1 2331   3.780   2.836   3.505
  433TCM    cl3 2332   3.685   2.912   3.299
  434TCM     c1 2333   3.122   4.261   1.628
  434TCM    cl1 2334   3.075   4.395   1.738
  434TCM    cl2 2335   3.043   4.283   1.468
  434TCM     h1 2336   3.231   4.260   1.616
  434TCM    cl3 2337   3.068   4.105   1.697
  435TCM     c1 2338   0.397   1.265   4.018
  435TCM    cl1 2339   0.479   1.112   3.976
  435TCM    cl2 2340   0.318   1.333   3.872
  435TCM     h1 2341   0.321   1.246   4.095
  435TCM    cl3 2342   0.517   1.383   4.081
  436TCM     c1 2343   0.484   1.718   1.166
  436TCM    cl1 2344   0.419   1.628   1.307
  436TCM    cl2 2345   0.348   1.779   1.066
  436TCM     h1 2346   0.544   1.802   1.201
  436TCM    cl3 2347   0.586   1.608   1.068
  437TCM     c1 2348   0.057   2.658   1.329
  437TCM    cl1 2349   0.191   2.668   1.211
  437TCM    cl2 2350   4.927   2.772   1.280
  437TCM     h1 2351   0.017   2.556   1.331
  437TCM    cl3 2352   0.117   2.702   1.493
  438TCM     c1 2353   0.776   3.471   4.949
  438TCM    cl1 2354   0.931   3.388   4.985
  438TCM    cl2 2355   0.639   3.359   4.979
  438TCM     h1 2356   0.766   3.559   0.013
  438TCM    cl3 2357   0.774   3.521   4.777
  439TCM     c1 2358   3.500   1.177   1.242
  439TCM    cl1 2359   3.326   1.187   1.199
  439TCM    cl2 2360   3.516   1.146   1.418
  439TCM     h1 2361   3.547   1.095   1.186
  439TCM    cl3 2362   3.580   1.332   1.202
  440TCM     c1 2363   3.529   1.701   4.635
  440TCM    cl1 2364   3.503   1.537   4.565
  440TCM    cl2 2365   3.493   1.698   4.811
  440TCM     h1 2366   3.632   1.732   4.618
  440TCM    cl3 2367   3.417   1.817   4.556
  441TCM     c1 2368   0.438   3.725   4.308
  441TCM    cl1 2369   0.524   3.843   4.204
  441TCM    cl2 2370   0.553   3.598   4.363
  441TCM     h1 2371   0.395   3.776   4.394
  441TCM    cl3 2372   0.306   3.646   4.215
  442TCM     c1 2373   3.483   3.247   0.145
  442TCM    cl1 2374   3.474   3.144   4.998
  442TCM    cl2 2375   3.346   3.208   0.254
  442TCM     h1 2376   3.578   3.229   0.196
  442TCM    cl3 2377   3.473   3.420   0.098
  443TCM     c1 2378   0.851   2.331   1.349
  443TCM    cl1 2379   0.894   2.164   1.399
  443TCM    cl2 2380   0.811   2.330   1.174
  443TCM     h1 2381   0.765   2.366   1.407
  443TCM    cl3 2382   0.991   2.439   1.376
  444TCM     c1 2383   4.299   4.932   0.181
  444TCM    cl1 2384   4.122   4.901   0.193
  444TCM    cl2 2385   4.337   0.088   0.259
  444TCM     h1 2386   4.354   4.851   0.230
  444TCM    cl3 2387   4.345   4.938   0.008
  445TCM     c1 2388   4.465   1.149   4.986
  445TCM    cl1 2389   4.328   1.097   4.883
  445TCM    cl2 2390   4.399   1.221   0.138
  445TCM     h1 2391   4.528   1.064   0.010
  445TCM    cl3 2392   4.560   1.273   4.899
  446TCM     c1 2393   3.065   0.700   3.166
  446TCM    cl1 2394   2.916   0.662   3.073
  446TCM    cl2 2395   3.206   0.708   3.055
  446TCM     h1 2396   3.053   0.797   3.215
  446TCM    cl3 2397   3.095   0.574   3.289
  447TCM     c1 2398   4.333   1.365   4.616
  447TCM    cl1 2399   4.491   1.434   4.566
  447TCM    cl2 2400   4.302   1.213   4.526
  447TCM     h1 2401   4.335   1.344   4.724
  447TCM    cl3 2402   4.203   1.484   4.581
  448TCM     c1 2403   4.916   2.140   3.569
  448TCM    cl1 2404   4.786   2.068   3.470
  448TCM    cl2 2405   4.923   2.317   3.539
  448TCM     h1 2406   4.896   2.122   3.675
  448TCM    cl3 2407   0.073   2.065   3.526
  449TCM     c1 2408   4.966   4.921   3.660
  449TCM    cl1 2409   4.896   4.800   3.547
  449TCM    cl2 2410   0.145   4.906   3.661
  449TCM     h1 2411   4.938   0.022   3.628
  449TCM    cl3 2412   4.903   4.891   3.825
  450TCM     c1 2413   3.314   0.612   3.699
  450TCM    cl1 2414   3.140   0.565   3.705
  450TCM    cl2 2415   3.374   0.596   3.531
  450TCM     h1 2416   3.325   0.715   3.732
  450TCM    cl3 2417   3.409   0.504   3.806
  451TCM     c1 2418   3.595   3.685   1.563
  451TCM    cl1 2419   3.633   3.850   1.506
  451TCM    cl2 2420   3.632   3.673   1.739
  451TCM     h1 2421   3.489   3.664   1.547
  451TCM    cl3 2422   3.695   3.567   1.473
  452TCM     c1 2423   0.680   0.210   1.299
  452TCM    cl1 2424   0.630   0.289   1.453
  452TCM    cl2 2425   0.623   0.040   1.299
  452TCM     h1 2426   0.636   0.263   1.215
  452TCM    cl3 2427   0.859   0.214   1.286
  453TCM     c1 2428   2.274   3.924   3.652
  453TCM    cl1 2429   2.423   3.984   3.730
  453TCM    cl2 2430   2.316   3.796   3.534
  453TCM     h1 2431   2.207   3.882   3.728
  453TCM    cl3 2432   2.192   4.059   3.567
  454TCM     c1 2433   4.369   3.926   1.226
  454TCM    cl1 2434   4.458   4.007   1.358
  454TCM    cl2 2435   4.480   3.901   1.087
  454TCM     h1 2436   4.331   3.829   1.260
  454TCM    cl3 2437   4.232   4.029   1.174
  455TCM     c1 2438   3.179   4.086   4.424
  455TCM    cl1 2439   3.018   4.041   4.359
  455TCM    cl2 2440   3.168   4.109   4.602
  455TCM     h1 2441   3.251   4.006   4.402
  455TCM    cl3 2442   3.235   4.239   4.347
  456TCM     c1 2443   1.704   1.921   4.827
  456TCM    cl1 2444   1.552   1.990   4.893
  456TCM    cl2 2445   1.678   1.871   4.657
  456TCM     h1 2446   1.783   1.997   4.832
  456TCM    cl3 2447   1.751   1.778   4.925
  457TCM     c1 2448   1.718   3.297   1.671
  457TCM    cl1 2449   1.638   3.450   1.719
  457TCM    cl2 2450   1.769   3.208   1.818
  457TCM     h1 2451   1.648   3.236   1.614
  457TCM    cl3 2452   1.862   3.333   1.571
  458TCM     c1 2453   1.729   4.972   1.510
  458TCM    cl1 2454   1.635   4.884   1.635
  458TCM    cl2 2455   1.902   4.925   1.522
  458TCM     h1 2456   1.691   4.945   1.411
  458TCM    cl3 2457   1.713   0.149   1.535
  459TCM     c1 2458   3.879   4.298   3.552
  459TCM    cl1 2459   3.799   4.442   3.480
  459TCM    cl2 2460   4.047   4.340   3.598
  459TCM     h1 2461   3.823   4.265   3.640
  459TCM    cl3 2462   3.883   4.166   3.430
  460TCM     c1 2463   0.381   0.954   3.651
  460TCM    cl1 2464   0.473   1.057   3.536
  460TCM    cl2 2465   0.378   0.785   3.590
  460TCM     h1 2466   0.429   0.957   3.749
  460TCM    cl3 2467   0.213   1.016   3.665
  461TCM     c1 2468   1.359   4.309   0.583
  461TCM    cl1 2469   1.302   4.430   0.463
  461TCM    cl2 2470   1.255   4.164   0.574
  461TCM     h1 2471   1.463   4.282   0.561
  461TCM    cl3 2472   1.349   4.379   0.748
  462TCM     c1 2473   3.082   0.261   0.103
  462TCM    cl1 2474   3.173   0.145   0.205
  462TCM    cl2 2475   3.070   0.196   4.936
  462TCM     h1 2476   2.982   0.276   0.144
  462TCM    cl3 2477   3.169   0.418   0.100
  463TCM     c1 2478   3.668   0.836   3.008
  463TCM    cl1 2479   3.617   0.668   2.969
  463TCM    cl2 2480   3.806   0.881   2.903
  463TCM     h1 2481   3.584   0.905   2.992
  463TCM    cl3 2482   3.719   0.845   3.180
  464TCM     c1 2483   4.985   4.441   3.669
  464TCM    cl1 2484   0.034   4.271   3.696
  464TCM    cl2 2485   0.130   4.546   3.679
  464TCM     h1 2486   4.939   4.452   3.570
  464TCM    cl3 2487   4.868   4.491   3.795
  465TCM     c1 2488   4.304   1.579   0.019
  465TCM    cl1 2489   4.437   1.613   4.904
  465TCM    cl2 2490   4.191   1.462   4.943
  465TCM     h1 2491   4.345   1.537   0.111
  465TCM    cl3 2492   4.217   1.731   0.055
  466TCM     c1 2493   0.577   0.566   2.732
  466TCM    cl1 2494   0.733   0.522   2.654
  466TCM    cl2 2495   0.456   0.599   2.604
  466TCM     h1 2496   0.543   0.483   2.795
  466TCM    cl3 2497   0.600   0.713   2.831
  467TCM     c1 2498   0.737   1.886   2.117
  467TCM    cl1 2499   0.712   2.018   2.236
  467TCM    cl2 2500   0.673   1.937   1.958
  467TCM     h1 2501   0.843   1.862   2.109
  467TCM    cl3 2502   0.647   1.741   2.172
  468TCM     c1 2503   3.471   2.139   1.562
  468TCM    cl1 2504   3.354   2.111   1.428
  468TCM    cl2 2505   3.634   2.085   1.511
  468TCM     h1 2506   3.473   2.246   1.587
  468TCM    cl3 2507   3.420   2.045   1.706
  469TCM     c1 2508   2.847   0.760   4.204
  469TCM    cl1 2509   2.882   0.647   4.069
  469TCM    cl2 2510   2.678   0.735   4.259
  469TCM     h1 2511   2.916   0.742   4.287
  469TCM    cl3 2512   2.865   0.929   4.147
  470TCM     c1 2513   4.512   2.452   4.653
  470TCM    cl1 2514   4.632   2.586   4.644
  470TCM    cl2 2515   4.418   2.464   4.806
  470TCM     h1 2516   4.444   2.459   4.568
  470TCM    cl3 2517   4.598   2.295   4.648
  471TCM     c1 2518   3.810   0.614   2.645
  471TCM    cl1 2519   3.648   0.621   2.569
  471TCM    cl2 2520   3.912   0.745   2.577
  471TCM     h1 2521   3.801   0.626   2.753
  471TCM    cl3 2522   3.888   0.456   2.609
  472TCM     c1 2523   2.982   2.022   3.069
  472TCM    cl1 2524   3.003   1.845   3.045
  472TCM    cl2 2525   2.955   2.101   2.910
  472TCM     h1 2526   2.896   2.040   3.134
  472TCM    cl3 2527   3.131   2.087   3.145
  473TCM     c1 2528   3.584   1.584   1.486
  473TCM    cl1 2529   3.487   1.732   1.513
  473TCM    cl2 2530   3.593   1.490   1.639
  473TCM     h1 2531   3.537   1.522   1.409
  473TCM    cl3 2532   3.749   1.630   1.434
  474TCM     c1 2533   0.443   3.408   1.294
  474TCM    cl1 2534   0.290   3.420   1.387
  474TCM    cl2 2535   0.419   3.475   1.129
  474TCM     h1 2536   0.521   3.465   1.345
  474TCM    cl3 2537   0.494   3.236   1.280
  475TCM     c1 2538   2.397   3.625   4.557
  475TCM    cl1 2539   2.480   3.520   4.677
  475TCM    cl2 2540   2.270   3.720   4.641
  475TCM     h1 2541   2.469   3.693   4.511
  475TCM    cl3 2542   2.320   3.524   4.431
  476TCM     c1 2543   1.868   1.609   1.866
  476TCM    cl1 2544   1.974   1.749   1.827
  476TCM    cl2 2545   1.702   1.643   1.808
  476TCM     h1 2546   1.906   1.519   1.817
  476TCM    cl3 2547   1.865   1.584   2.044
  477TCM     c1 2548   4.485   2.424   0.290
  477TCM    cl1 2549   4.611   2.552   0.294
  477TCM    cl2 2550   4.560   2.268   0.243
  477TCM     h1 2551   4.439   2.414   0.389
  477TCM    cl3 2552   4.360   2.469   0.169
  478TCM     c1 2553   3.053   4.538   3.480
  478TCM    cl1 2554   2.916   4.425   3.461
  478TCM    cl2 2555   3.181   4.498   3.361
  478TCM     h1 2556   3.019   4.641   3.464
  478TCM    cl3 2557   3.120   4.521   3.646
  479TCM     c1 2558   4.903   4.038   0.144
  479TCM    cl1 2559   4.805   3.957   0.271
  479TCM    cl2 2560   4.865   4.214   0.144
  479TCM     h1 2561   0.009   4.024   0.166
  479TCM    cl3 2562   4.864   3.968   4.984
  480TCM     c1 2563   0.974   2.680   3.502
  480TCM    cl1 2564   0.869   2.572   3.599
  480TCM    cl2 2565   0.940   2.656   3.328
  480TCM     h1 2566   0.954   2.784   3.529
  480TCM    cl3 2567   1.146   2.642   3.535
  481TCM     c1 2568   2.329   2.727   1.087
  481TCM    cl1 2569   2.288   2.725   0.912
  481TCM    cl2 2570   2.357   2.559   1.144
  481TCM     h1 2571   2.419   2.787   1.103
  481TCM    cl3 2572   2.192   2.799   1.179
  482TCM     c1 2573   4.878   3.497   3.354
  482TCM    cl1 2574   0.023   3.427   3.276
  482TCM    cl2 2575   4.731   3.435   3.272
  482TCM     h1 2576   4.876   3.469   3.460
  482TCM    cl3 2577   4.882   3.676   3.341
  483TCM     c1 2578   2.356   4.833   3.222
  483TCM    cl1 2579   2.502   4.737   3.260
  483TCM    cl2 2580   2.303   4.923   3.368
  483TCM     h1 2581   2.379   4.904   3.142
  483TCM    cl3 2582   2.225   4.723   3.169
  484TCM     c1 2583   0.084   2.751   3.938
  484TCM    cl1 2584   0.262   2.727   3.937
  484TCM    cl2 2585   0.046   2.922   3.977
  484TCM     h1 2586   0.044   2.726   3.840
  484TCM    cl3 2587   0.010   2.646   4.063
  485TCM     c1 2588   2.493   2.208   3.197
  485TCM    cl1 2589   2.358   2.100   3.146
  485TCM    cl2 2590   2.639   2.169   3.100
  485TCM     h1 2591   2.465   2.312   3.182
  485TCM    cl3 2592   2.528   2.180   3.371
  486TCM     c1 2593   1.961   0.876   3.912
  486TCM    cl1 2594   1.898   0.785   4.053
  486TCM    cl2 2595   1.867   1.028   3.894
  486TCM     h1 2596   2.066   0.901   3.928
  486TCM    cl3 2597   1.944   0.776   3.764
  487TCM     c1 2598   0.538   0.056   0.877
  487TCM    cl1 2599   0.666   4.946   0.939
  487TCM    cl2 2600   0.572   0.223   0.934
  487TCM     h1 2601   0.538   0.054   0.768
  487TCM    cl3 2602   0.378   0.003   0.938
  488TCM     c1 2603   3.956   1.223   3.425
  488TCM    cl1 2604   3.870   1.375   3.383
  488TCM    cl2 2605   3.896   1.162   3.583
  488TCM     h1 2606   3.937   1.148   3.348
  488TCM    cl3 2607   4.132   1.255   3.437
  489TCM     c1 2608   3.165   4.896   3.190
  489TCM    cl1 2609   3.228   4.852   3.352
  489TCM    cl2 2610   2.998   4.959   3.207
  489TCM     h1 2611   3.229   4.973   3.145
  489TCM    cl3 2612   3.163   4.751   3.084
  490TCM     c1 2613   2.240   2.265   2.846
  490TCM    cl1 2614   2.230   2.242   2.669
  490TCM    cl2 2615   2.088   2.337   2.907
  490TCM     h1 2616   2.256   2.168   2.894
  490TCM    cl3 2617   2.377   2.375   2.885
  491TCM     c1 2618   1.414   0.467   0.175
  491TCM    cl1 2619   1.358   0.623   0.243
  491TCM    cl2 2620   1.391   0.466   4.997
  491TCM     h1 2621   1.520   0.453   0.198
  491TCM    cl3 2622   1.319   0.333   0.248
  492TCM     c1 2623   2.257   4.433   4.105
  492TCM    cl1 2624   2.093   4.435   4.034
  492TCM    cl2 2625   2.258   4.324   4.248
  492TCM     h1 2626   2.329   4.397   4.031
  492TCM    cl3 2627   2.302   4.599   4.155
  493TCM     c1 2628   0.817   3.964   0.102
  493TCM    cl1 2629   0.746   3.834   0.001
  493TCM    cl2 2630   0.747   3.955   0.268
  493TCM     h1 2631   0.925   3.952   0.108
  493TCM    cl3 2632   0.777   4.122   0.029
  494TCM     c1 2633   0.012   2.989   1.709
  494TCM    cl1 2634   4.880   2.974   1.588
  494TCM    cl2 2635   4.944   2.971   1.874
  494TCM     h1 2636   0.087   2.912   1.691
  494TCM    cl3 2637   0.088   3.151   1.693
  495TCM     c1 2638   3.148   1.050   3.379
  495TCM    cl1 2639   3.224   1.205   3.429
  495TCM    cl2 2640   3.275   0.927   3.350
  495TCM     h1 2641   3.082   1.015   3.459
  495TCM    cl3 2642   3.053   1.076   3.230
  496TCM     c1 2643   0.108   1.515   1.891
  496TCM    cl1 2644   0.274   1.472   1.838
  496TCM    cl2 2645   0.039   1.379   1.985
  496TCM     h1 2646   0.111   1.605   1.953
  496TCM    cl3 2647   0.007   1.545   1.745
  497TCM     c1 2648   1.748   0.039   1.082
  497TCM    cl1 2649   1.620   0.114   1.184
  497TCM    cl2 2650   1.675   4.977   0.931
  497TCM     h1 2651   1.824   0.114   1.060
  497TCM    cl3 2652   1.821   4.901   1.170
  498TCM     c1 2653   2.757   2.858   3.751
  498TCM    cl1 2654   2.806   2.705   3.831
  498TCM    cl2 2655   2.773   2.994   3.867
  498TCM     h1 2656   2.822   2.876   3.665
  498TCM    cl3 2657   2.587   2.846   3.696
  499TCM     c1 2658   0.072   3.121   1.225
  499TCM    cl1 2659   0.159   3.215   1.099
  499TCM    cl2 2660   4.972   3.234   1.324
  499TCM     h1 2661   0.007   3.047   1.178
  499TCM    cl3 2662   0.190   3.038   1.331
  500TCM     c1 2663   1.906   0.147   0.106
  500TCM    cl1 2664   2.057   0.147   0.204
  500TCM    cl2 2665   1.948   0.136   4.933
  500TCM     h1 2666   1.844   0.061   0.134
  500TCM    cl3 2667   1.817   0.300   0.136
  501TCM     c1 2668   1.051   1.749   2.763
  501TCM    cl1 2669   0.929   1.773   2.634
  501TCM    cl2 2670   1.199   1.674   2.693
  501TCM     h1 2671   1.077   1.845   2.808
  501TCM    cl3 2672   0.984   1.640   2.889
  502TCM     c1 2673   2.680   3.680   2.341
  502TCM    cl1 2674   2.784   3.542   2.290
  502TCM    cl2 2675   2.734   3.741   2.501
  502TCM     h1 2676   2.688   3.760   2.267
  502TCM    cl3 2677   2.510   3.624   2.352
  503TCM     c1 2678   1.578   0.553   2.742
  503TCM    cl1 2679   1.530   0.611   2.580
  503TCM    cl2 2680   1.489   0.644   2.868
  503TCM     h1 2681   1.554   0.446   2.751
  503TCM    cl3 2682   1.754   0.578   2.764
  504TCM     c1 2683   4.878   0.013   2.708
  504TCM    cl1 2684   4.787   4.887   2.799
  504TCM    cl2 2685   4.800   0.172   2.734
  504TCM     h1 2686   4.981   0.017   2.744
  504TCM    cl3 2687   4.877   4.975   2.533
  505TCM     c1 2688   2.652   3.898   2.906
  505TCM    cl1 2689   2.566   3.957   3.052
  505TCM    cl2 2690   2.597   3.990   2.762
  505TCM     h1 2691   2.760   3.912   2.919
  505TCM    cl3 2692   2.615   3.724   2.883
  506TCM     c1 2693   0.007   4.860   4.890
  506TCM    cl1 2694   4.834   4.851   4.842
  506TCM    cl2 2695   0.089   4.707   4.845
  506TCM     h1 2696   0.055   4.944   4.838
  506TCM    cl3 2697   0.020   4.884   0.067
  507TCM     c1 2698   1.307   4.123   0.003
  507TCM    cl1 2699   1.133   4.091   4.973
  507TCM    cl2 2700   1.389   3.969   0.045
  507TCM     h1 2701   1.352   4.166   4.913
  507TCM    cl3 2702   1.322   4.239   0.139
  508TCM     c1 2703   0.418   1.901   3.418
  508TCM    cl1 2704   0.341   1.980   3.277
  508TCM    cl2 2705   0.304   1.783   3.490
  508TCM     h1 2706   0.508   1.848   3.385
  508TCM    cl3 2707   0.462   2.024   3.541
  509TCM     c1 2708   4.471   0.392   4.762
  509TCM    cl1 2709   4.467   0.480   4.919
  509TCM    cl2 2710   4.378   0.485   4.639
  509TCM     h1 2711   4.575   0.382   4.730
  509TCM    cl3 2712   4.398   0.230   4.783
  510TCM     c1 2713   4.122   2.276   2.233
  510TCM    cl1 2714   4.080   2.162   2.364
  510TCM    cl2 2715   4.183   2.430   2.303
  510TCM     h1 2716   4.200   2.231   2.170
  510TCM    cl3 2717   3.977   2.308   2.132
  511TCM     c1 2718   3.259   4.671   1.490
  511TCM    cl1 2719   3.329   4.506   1.470
  511TCM    cl2 2720   3.351   4.786   1.387
  511TCM     h1 2721   3.154   4.670   1.460
  511TCM    cl3 2722   3.273   4.721   1.662
  512TCM     c1 2723   5.000   0.071   0.539
  512TCM    cl1 2724   4.937   0.235   0.579
  512TCM    cl2 2725   4.889   4.992   0.422
  512TCM     h1 2726   0.099   0.080   0.495
  512TCM    cl3 2727   0.010   4.972   0.688
  513TCM     c1 2728   3.658   4.872   0.113
  513TCM    cl1 2729   3.773   4.741   0.157
  513TCM    cl2 2730   3.715   4.950   4.961
  513TCM     h1 2731   3.559   4.830   0.097
  513TCM    cl3 2732   3.653   4.994   0.244
  514TCM     c1 2733   0.734   0.130   2.260
  514TCM    cl1 2734   0.744   0.281   2.357
  514TCM    cl2 2735   0.568   0.111   2.196
  514TCM     h1 2736   0.805   0.135   2.177
  514TCM    cl3 2737   0.773   4.989   2.365
  515TCM     c1 2738   2.820   4.967   4.183
  515TCM    cl1 2739   2.753   4.836   4.080
  515TCM    cl2 2740   2.977   4.914   4.252
  515TCM     h1 2741   2.836   0.057   4.123
  515TCM    cl3 2742   2.706   0.003   4.317
  516TCM     c1 2743   4.255   4.058   1.693
  516TCM    cl1 2744   4.153   4.012   1.553
  516TCM    cl2 2745   4.153   4.065   1.840
  516TCM     h1 2746   4.334   3.983   1.707
  516TCM    cl3 2747   4.330   4.218   1.663
  517TCM     c1 2748   3.113   3.706   4.825
  517TCM    cl1 2749   3.235   3.639   4.937
  517TCM    cl2 2750   3.182   3.713   4.660
  517TCM     h1 2751   3.024   3.643   4.825
  517TCM    cl3 2752   3.069   3.872   4.878
  518TCM     c1 2753   2.609   0.381   4.187
  518TCM    cl1 2754   2.663   0.385   4.358
  518TCM    cl2 2755   2.458   0.286   4.175
  518TCM     h1 2756   2.591   0.483   4.152
  518TCM    cl3 2757   2.736   0.305   4.085
  519TCM     c1 2758   3.475   3.331   1.837
  519TCM    cl1 2759   3.439   3.362   1.664
  519TCM    cl2 2760   3.399   3.460   1.937
  519TCM     h1 2761   3.434   3.233   1.866
  519TCM    cl3 2762   3.652   3.333   1.863
  520TCM     c1 2763   4.947   2.990   3.196
  520TCM    cl1 2764   4.976   3.110   3.066
  520TCM    cl2 2765   4.966   3.070   3.356
  520TCM     h1 2766   4.845   2.950   3.187
  520TCM    cl3 2767   0.065   2.856   3.183
  521TCM     c1 2768   1.403   3.629   3.257
  521TCM    cl1 2769   1.569   3.675   3.309
  521TCM    cl2 2770   1.285   3.683   3.381
  521TCM     h1 2771   1.381   3.676   3.162
  521TCM    cl3 2772   1.394   3.451   3.239
  522TCM     c1 2773   2.710   4.136   1.695
  522TCM    cl1 2774   2.734   4.086   1.524
  522TCM    cl2 2775   2.552   4.075   1.753
  522TCM     h1 2776   2.791   4.094   1.756
  522TCM    cl3 2777   2.713   4.315   1.706
  523TCM     c1 2778   0.240   1.368   2.801
  523TCM    cl1 2779   0.134   1.393   2.658
  523TCM    cl2 2780   0.411   1.359   2.747
  523TCM     h1 2781   0.228   1.452   2.870
  523TCM    cl3 2782   0.195   1.215   2.883
  524TCM     c1 2783   4.315   3.253   2.738
  524TCM    cl1 2784   4.191   3.224   2.612
  524TCM    cl2 2785   4.242   3.348   2.872
  524TCM     h1 2786   4.351   3.158   2.777
  524TCM    cl3 2787   4.452   3.345   2.667
  525TCM     c1 2788   2.509   4.929   2.715
  525TCM    cl1 2789   2.495   4.805   2.586
  525TCM    cl2 2790   2.466   4.856   2.874
  525TCM     h1 2791   2.612   4.966   2.719
  525TCM    cl3 2792   2.399   0.066   2.679
  526TCM     c1 2793   2.883   3.181   2.255
  526TCM    cl1 2794   2.788   3.038   2.206
  526TCM    cl2 2795   3.015   3.208   2.136
  526TCM     h1 2796   2.819   3.269   2.258
  526TCM    cl3 2797   2.954   3.153   2.418
  527TCM     c1 2798   1.756   3.117   4.019
  527TCM    cl1 2799   1.919   3.143   3.951
  527TCM    cl2 2800   1.754   3.168   4.191
  527TCM     h1 2801   1.683   3.176   3.963
  527TCM    cl3 2802   1.713   2.943   4.007
  528TCM     c1 2803   4.928   1.910   0.293
  528TCM    cl1 2804   4.958   1.860   0.124
  528TCM    cl2 2805   4.809   1.799   0.368
  528TCM     h1 2806   0.022   1.908   0.349
  528TCM    cl3 2807   4.861   2.077   0.296
  529TCM     c1 2808   2.082   3.041   1.919
  529TCM    cl1 2809   2.107   3.018   2.095
  529TCM    cl2 2810   2.176   2.917   1.829
  529TCM     h1 2811   1.976   3.030   1.895
  529TCM    cl3 2812   2.138   3.204   1.870
  530TCM     c1 2813   2.053   0.545   4.888
  530TCM    cl1 2814   2.160   0.664   4.806
  530TCM    cl2 2815   2.154   0.430   4.981
  530TCM     h1 2816   1.986   0.598   4.956
  530TCM    cl3 2817   1.957   0.456   4.766
  531TCM     c1 2818   0.324   0.056   3.978
  531TCM    cl1 2819   0.403   0.003   4.131
  531TCM    cl2 2820   0.402   0.206   3.920
  531TCM     h1 2821   0.334   4.977   3.903
  531TCM    cl3 2822   0.150   0.089   4.008
  532TCM     c1 2823   1.678   4.488   1.513
  532TCM    cl1 2824   1.691   4.609   1.381
  532TCM    cl2 2825   1.830   4.490   1.609
  532TCM     h1 2826   1.593   4.512   1.577
  532TCM    cl3 2827   1.655   4.325   1.442
  533TCM     c1 2828   4.808   0.857   3.898
  533TCM    cl1 2829   4.822   0.861   4.077
  533TCM    cl2 2830   4.933   0.748   3.830
  533TCM     h1 2831   4.709   0.821   3.870
  533TCM    cl3 2832   4.833   1.022   3.833
  534TCM     c1 2833   2.337   3.075   0.104
  534TCM    cl1 2834   2.212   3.023   4.986
  534TCM    cl2 2835   2.261   3.101   0.264
  534TCM     h1 2836   2.413   2.996   0.112
  534TCM    cl3 2837   2.413   3.228   0.049
  535TCM     c1 2838   2.716   4.282   1.221
  535TCM    cl1 2839   2.722   4.418   1.339
  535TCM    cl2 2840   2.741   4.347   1.056
  535TCM     h1 2841   2.794   4.210   1.245
  535TCM    cl3 2842   2.555   4.202   1.229
  536TCM     c1 2843   1.454   1.000   3.827
  536TCM    cl1 2844   1.557   0.855   3.852
  536TCM    cl2 2845   1.479   1.066   3.662
  536TCM     h1 2846   1.349   0.971   3.839
  536TCM    cl3 2847   1.495   1.125   3.949
  537TCM     c1 2848   1.674   1.073   2.698
  537TCM    cl1 2849   1.571   1.101   2.553
  537TCM    cl2 2850   1.768   0.922   2.676
  537TCM     h1 2851   1.742   1.157   2.711
  537TCM    cl3 2852   1.569   1.059   2.842
  538TCM     c1 2853   2.050   3.099   3.609
  538TCM    cl1 2854   1.929   3.039   3.491
  538TCM    cl2 2855   2.046   3.278   3.613
  538TCM     h1 2856   2.028   3.059   3.709
  538TCM    cl3 2857   2.214   3.044   3.559
  539TCM     c1 2858   3.741   4.251   2.987
  539TCM    cl1 2859   3.713   4.375   3.113
  539TCM    cl2 2860   3.801   4.331   2.838
  539TCM     h1 2861   3.814   4.178   3.022
  539TCM    cl3 2862   3.586   4.167   2.950
  540TCM     c1 2863   2.632   0.097   0.264
  540TCM    cl1 2864   2.780   0.083   0.164
  540TCM    cl2 2865   2.561   0.260   0.242
  540TCM     h1 2866   2.559   0.020   0.233
  540TCM    cl3 2867   2.675   0.074   0.437
  541TCM     c1 2868   1.744   3.591   3.943
  541TCM    cl1 2869   1.882   3.532   3.844
  541TCM    cl2 2870   1.632   3.454   3.975
  541TCM     h1 2871   1.780   3.632   4.037
  541TCM    cl3 2872   1.657   3.718   3.851
  542TCM     c1 2873   2.114   2.222   1.019
  542TCM    cl1 2874   2.292   2.208   1.039
  542TCM    cl2 2875   2.074   2.382   0.948
  542TCM     h1 2876   2.078   2.143   0.953
  542TCM    cl3 2877   2.034   2.206   1.179
  543TCM     c1 2878   3.077   4.993   3.806
  543TCM    cl1 2879   3.135   4.901   3.948
  543TCM    cl2 2880   2.913   0.058   3.837
  543TCM     h1 2881   3.146   0.076   3.785
  543TCM    cl3 2882   3.071   4.884   3.664
  544TCM     c1 2883   2.088   1.106   2.129
  544TCM    cl1 2884   2.265   1.077   2.125
  544TCM    cl2 2885   2.016   1.068   1.969
  544TCM     h1 2886   2.043   1.042   2.205
  544TCM    cl3 2887   2.058   1.278   2.170
  545TCM     c1 2888   2.147   2.673   0.127
  545TCM    cl1 2889   2.284   2.733   0.226
  545TCM    cl2 2890   2.056   2.548   0.218
  545TCM     h1 2891   2.081   2.756   0.103
  545TCM    cl3 2892   2.211   2.602   4.975
  546TCM     c1 2893   3.453   2.228   4.438
  546TCM    cl1 2894   3.546   2.381   4.443
  546TCM    cl2 2895   3.409   2.181   4.605
  546TCM     h1 2896   3.362   2.242   4.379
  546TCM    cl3 2897   3.553   2.099   4.364
  547TCM     c1 2898   0.581   0.449   2.031
  547TCM    cl1 2899   0.514   0.533   1.887
  547TCM    cl2 2900   0.614   0.570   2.159
  547TCM     h1 2901   0.509   0.376   2.068
  547TCM    cl3 2902   0.733   0.367   1.984
  548TCM     c1 2903   0.216   2.793   3.522
  548TCM    cl1 2904   0.165   2.930   3.625
  548TCM    cl2 2905   0.105   2.655   3.547
  548TCM     h1 2906   0.214   2.823   3.417
  548TCM    cl3 2907   0.383   2.744   3.566
  549TCM     c1 2908   4.501   4.792   0.655
  549TCM    cl1 2909   4.386   4.828   0.788
  549TCM    cl2 2910   4.643   4.901   0.668
  549TCM     h1 2911   4.534   4.688   0.663
  549TCM    cl3 2912   4.421   4.818   0.497
  550TCM     c1 2913   0.154   4.273   0.922
  550TCM    cl1 2914   0.164   4.097   0.958
  550TCM    cl2 2915   4.983   4.317   0.888
  550TCM     h1 2916   0.190   4.330   1.007
  550TCM    cl3 2917   0.255   4.309   0.778
  551TCM     c1 2918   2.199   2.054   3.644
  551TCM    cl1 2919   2.189   2.145   3.490
  551TCM    cl2 2920   2.371   2.033   3.691
  551TCM     h1 2921   2.147   2.110   3.723
  551TCM    cl3 2922   2.122   1.893   3.623
  552TCM     c1 2923   0.515   4.100   1.072
  552TCM    cl1 2924   0.576   4.107   0.903
  552TCM    cl2 2925   0.462   4.264   1.122
  552TCM     h1 2926   0.431   4.030   1.077
  552TCM    cl3 2927   0.647   4.045   1.180
  553TCM     c1 2928   1.501   3.874   0.386
  553TCM    cl1 2929   1.651   3.777   0.376
  553TCM    cl2 2930   1.543   4.049   0.384
  553TCM     h1 2931   1.437   3.851   0.301
  553TCM    cl3 2932   1.415   3.835   0.539
  554TCM     c1 2933   3.132   2.097   2.496
  554TCM    cl1 2934   3.278   2.115   2.392
  554TCM    cl2 2935   2.989   2.068   2.392
  554TCM     h1 2936   3.146   2.012   2.563
  554TCM    cl3 2937   3.108   2.247   2.591
  555TCM     c1 2938   1.920   2.748   2.288
  555TCM    cl1 2939   1.894   2.826   2.447
  555TCM    cl2 2940   1.811   2.606   2.271
  555TCM     h1 2941   1.898   2.820   2.208
  555TCM    cl3 2942   2.090   2.693   2.274
  556TCM     c1 2943   3.203   4.982   2.111
  556TCM    cl1 2944   3.265   0.050   1.957
  556TCM    cl2 2945   3.035   4.924   2.087
  556TCM     h1 2946   3.267   4.899   2.142
  556TCM    cl3 2947   3.205   0.109   2.238
  557TCM     c1 2948   1.038   2.539   4.288
  557TCM    cl1 2949   1.191   2.632   4.276
  557TCM    cl2 2950   1.053   2.382   4.202
  557TCM     h1 2951   1.015   2.520   4.393
  557TCM    cl3 2952   0.905   2.635   4.214
  558TCM     c1 2953   4.492   3.804   4.955
  558TCM    cl1 2954   4.614   3.678   4.993
  558TCM    cl2 2955   4.537   3.889   4.803
  558TCM     h1 2956   4.394   3.757   4.942
  558TCM    cl3 2957   4.484   3.922   0.090
  559TCM     c1 2958   0.092   1.808   3.866
  559TCM    cl1 2959   0.135   1.656   3.781
  559TCM    cl2 2960   4.932   1.866   3.807
  559TCM     h1 2961   0.086   1.790   3.973
  559TCM    cl3 2962   0.216   1.934   3.833
  560TCM     c1 2963   4.008   2.308   2.739
  560TCM    cl1 2964   3.888   2.174   2.742
  560TCM    cl2 2965   3.964   2.424   2.610
  560TCM     h1 2966   4.008   2.359   2.836
  560TCM    cl3 2967   4.172   2.242   2.707
  561TCM     c1 2968   1.210   2.751   0.156
  561TCM    cl1 2969   1.309   2.899   0.130
  561TCM    cl2 2970   1.086   2.784   0.281
  561TCM     h1 2971   1.161   2.724   0.062
  561TCM    cl3 2972   1.315   2.617   0.211
  562TCM     c1 2973   3.420   1.948   2.925
  562TCM    cl1 2974   3.298   2.019   2.814
  562TCM    cl2 2975   3.484   2.076   3.033
  562TCM     h1 2976   3.373   1.870   2.986
  562TCM    cl3 2977   3.554   1.878   2.830
  563TCM     c1 2978   2.613   0.006   0.805
  563TCM    cl1 2979   2.652   0.176   0.848
  563TCM    cl2 2980   2.533   4.927   0.944
  563TCM     h1 2981   2.547   0.004   0.718
  563TCM    cl3 2982   2.766   4.920   0.766
  564TCM     c1 2983   1.685   3.905   0.790
  564TCM    cl1 2984   1.719   3.897   0.966
  564TCM    cl2 2985   1.837   3.875   0.698
  564TCM     h1 2986   1.611   3.829   0.763
  564TCM    cl3 2987   1.622   4.068   0.749
  565TCM     c1 2988   4.968   2.894   4.826
  565TCM    cl1 2989   4.838   3.007   4.876
  565TCM    cl2 2990   4.922   2.726   4.865
  565TCM     h1 2991   4.985   2.904   4.718
  565TCM    cl3 2992   0.119   2.935   4.914
  566TCM     c1 2993   2.854   4.687   2.885
  566TCM    cl1 2994   2.884   4.854   2.826
  566TCM    cl2 2995   2.736   4.607   2.777
  566TCM     h1 2996   2.948   4.631   2.885
  566TCM    cl3 2997   2.787   4.695   3.051
  567TCM     c1 2998   4.532   3.852   3.482
  567TCM    cl1 2999   4.474   3.826   3.650
  567TCM    cl2 3000   4.434   3.981   3.405
  567TCM     h1 3001   4.637   3.882   3.484
  567TCM    cl3 3002   4.514   3.700   3.389
  568TCM     c1 3003   1.748   0.828   3.047
  568TCM    cl1 3004   1.855   0.972   3.058
  568TCM    cl2 3005   1.604   0.855   3.150
  568TCM     h1 3006   1.716   0.813   2.943
  568TCM    cl3 3007   1.838   0.683   3.103
  569TCM     c1 3008   3.223   2.543   4.557
  569TCM    cl1 3009   3.138   2.701   4.549
  569TCM    cl2 3010   3.168   2.439   4.421
  569TCM     h1 3011   3.331   2.559   4.550
  569TCM    cl3 3012   3.184   2.463   4.712
  570TCM     c1 3013   2.505   4.110   0.718
  570TCM    cl1 3014   2.404   3.962   0.729
  570TCM    cl2 3015   2.450   4.227   0.843
  570TCM     h1 3016   2.610   4.084   0.735
  570TCM    cl3 3017   2.485   4.184   0.556
  571TCM     c1 3018   3.428   1.354   0.303
  571TCM    cl1 3019   3.601   1.386   0.337
  571TCM    cl2 3020   3.386   1.419   0.141
  571TCM     h1 3021   3.410   1.246   0.305
  571TCM    cl3 3022   3.327   1.434   0.427
  572TCM     c1 3023   2.408   1.664   3.704
  572TCM    cl1 3024   2.566   1.691   3.784
  572TCM    cl2 3025   2.283   1.630   3.828
  572TCM     h1 3026   2.380   1.753   3.647
  572TCM    cl3 3027   2.421   1.523   3.594
  573TCM     c1 3028   1.219   0.935   2.511
  573TCM    cl1 3029   1.319   0.865   2.379
  573TCM    cl2 3030   1.208   1.113   2.488
  573TCM     h1 3031   1.119   0.892   2.507
  573TCM    cl3 3032   1.294   0.898   2.669
  574TCM     c1 3033   2.679   4.193   0.047
  574TCM    cl1 3034   2.636   4.092   0.188
  574TCM    cl2 3035   2.547   4.183   4.926
  574TCM     h1 3036   2.692   4.297   0.078
  574TCM    cl3 3037   2.832   4.133   4.975
  575TCM     c1 3038   2.305   4.407   1.368
  575TCM    cl1 3039   2.407   4.387   1.514
  575TCM    cl2 3040   2.389   4.512   1.250
  575TCM     h1 3041   2.286   4.309   1.324
  575TCM    cl3 3042   2.149   4.484   1.415
  576TCM     c1 3043   0.831   2.594   4.962
  576TCM    cl1 3044   0.714   2.465   4.923
  576TCM    cl2 3045   0.980   2.522   0.031
  576TCM     h1 3046   0.856   2.649   4.871
  576TCM    cl3 3047   0.761   2.707   0.082
  577TCM     c1 3048   1.887   1.102   1.530
  577TCM    cl1 3049   2.004   1.183   1.420
  577TCM    cl2 3050   1.844   1.213   1.664
  577TCM     h1 3051   1.797   1.074   1.474
  577TCM    cl3 3052   1.963   0.954   1.598
  578TCM     c1 3053   0.128   3.525   3.672
  578TCM    cl1 3054   4.972   3.608   3.704
  578TCM    cl2 3055   0.207   3.602   3.531
  578TCM     h1 3056   0.193   3.534   3.760
  578TCM    cl3 3057   0.097   3.352   3.635
  579TCM     c1 3058   0.241   0.348   3.613
  579TCM    cl1 3059   0.213   0.470   3.485
  579TCM    cl2 3060   0.365   0.231   3.557
  579TCM     h1 3061   0.276   0.398   3.704
  579TCM    cl3 3062   0.088   0.261   3.646
  580TCM     c1 3063   4.037   4.931   3.036
  580TCM    cl1 3064   4.182   4.975   3.132
  580TCM    cl2 3065   4.061   4.768   2.965
  580TCM     h1 3066   3.949   4.930   3.100
  580TCM    cl3 3067   4.015   0.051   2.904
  581TCM     c1 3068   3.230   3.983   1.367
  581TCM    cl1 3069   3.361   4.098   1.406
  581TCM    cl2 3070   3.294   3.815   1.375
  581TCM     h1 3071   3.148   3.994   1.438
  581TCM    cl3 3072   3.169   4.016   1.201
  582TCM     c1 3073   4.556   4.287   3.599
  582TCM    cl1 3074   4.502   4.367   3.750
  582TCM    cl2 3075   4.676   4.160   3.638
  582TCM     h1 3076   4.470   4.242   3.548
  582TCM    cl3 3077   4.632   4.409   3.491
  583TCM     c1 3078   1.122   3.708   0.336
  583TCM    cl1 3079   1.259   3.624   0.256
  583TCM    cl2 3080   0.966   3.643   0.275
  583TCM     h1 3081   1.128   3.694   0.444
  583TCM    cl3 3082   1.131   3.883   0.297
  584TCM     c1 3083   0.282   2.308   0.171
  584TCM    cl1 3084   0.198   2.150   0.182
  584TCM    cl2 3085   0.400   2.303   0.036
  584TCM     h1 3086   0.209   2.387   0.151
  584TCM    cl3 3087   0.366   2.342   0.326
  585TCM     c1 3088   1.120   0.127   2.544
  585TCM    cl1 3089   0.973   0.158   2.642
  585TCM    cl2 3090   1.119   0.236   2.401
  585TCM     h1 3091   1.210   0.146   2.604
  585TCM    cl3 3092   1.121   4.956   2.489
  586TCM     c1 3093   0.862   1.192   4.182
  586TCM    cl1 3094   0.866   1.372   4.183
  586TCM    cl2 3095   0.858   1.132   4.013
  586TCM     h1 3096   0.951   1.154   4.231
  586TCM    cl3 3097   0.717   1.135   4.271
  587TCM     c1 3098   3.760   2.839   3.927
  587TCM    cl1 3099   3.850   2.793   3.779
  587TCM    cl2 3100   3.873   2.846   4.066
  587TCM     h1 3101   3.713   2.936   3.913
  587TCM    cl3 3102   3.633   2.715   3.959
  588TCM     c1 3103   2.121   3.445   4.999
  588TCM    cl1 3104   2.156   3.393   4.830
  588TCM    cl2 3105   2.017   3.323   0.079
  588TCM     h1 3106   2.215   3.455   0.054
  588TCM    cl3 3107   2.036   3.603   4.996
  589TCM     c1 3108   1.722   2.193   0.713
  589TCM    cl1 3109   1.868   2.106   0.772
  589TCM    cl2 3110   1.642   2.094   0.586
  589TCM     h1 3111   1.653   2.208   0.796
  589TCM    cl3 3112   1.770   2.352   0.646
  590TCM     c1 3113   0.573   3.660   0.404
  590TCM    cl1 3114   0.575   3.597   0.237
  590TCM    cl2 3115   0.678   3.559   0.508
  590TCM     h1 3116   0.610   3.763   0.405
  590TCM    cl3 3117   0.405   3.657   0.468
  591TCM     c1 3118   3.024   1.498   3.307
  591TCM    cl1 3119   2.989   1.667   3.356
  591TCM    cl2 3120   3.097   1.496   3.143
  591TCM     h1 3121   3.094   1.453   3.378
  591TCM    cl3 3122   2.872   1.404   3.306
  592TCM     c1 3123   2.702   4.593   0.199
  592TCM    cl1 3124   2.632   4.758   0.193
  592TCM    cl2 3125   2.767   4.551   0.037
  592TCM     h1 3126   2.783   4.590   0.273
  592TCM    cl3 3127   2.574   4.476   0.245
  593TCM     c1 3128   3.501   3.469   3.094
  593TCM    cl1 3129   3.602   3.375   3.209
  593TCM    cl2 3130   3.606   3.582   3.002
  593TCM     h1 3131   3.450   3.401   3.026
  593TCM    cl3 3132   3.379   3.565   3.185
  594TCM     c1 3133   3.018   3.895   0.774
  594TCM    cl1 3134   2.889   4.017   0.798
  594TCM    cl2 3135   2.966   3.777   0.650
  594TCM     h1 3136   3.110   3.945   0.741
  594TCM    cl3 3137   3.049   3.808   0.928
  595TCM     c1 3138   4.430   4.380   1.055
  595TCM    cl1 3139   4.500   4.528   0.981
  595TCM    cl2 3140   4.560   4.260   1.082
  595TCM     h1 3141   4.383   4.405   1.150
  595TCM    cl3 3142   4.307   4.311   0.944
  596TCM     c1 3143   4.437   2.830   0.072
  596TCM    cl1 3144   4.504   2.902   0.222
  596TCM    cl2 3145   4.571   2.763   4.974
  596TCM     h1 3146   4.366   2.750   0.098
  596TCM    cl3 3147   4.352   2.957   4.979
  597TCM     c1 3148   2.682   0.926   2.033
  597TCM    cl1 3149   2.569   0.807   2.106
  597TCM    cl2 3150   2.641   0.947   1.860
  597TCM     h1 3151   2.672   1.022   2.085
  597TCM    cl3 3152   2.850   0.866   2.048
  598TCM     c1 3153   3.310   4.412   2.833
  598TCM    cl1 3154   3.172   4.513   2.780
  598TCM    cl2 3155   3.344   4.443   3.007
  598TCM     h1 3156   3.287   4.306   2.818
  598TCM    cl3 3157   3.456   4.455   2.738
  599TCM     c1 3158   3.611   3.467   3.634
  599TCM    cl1 3159   3.652   3.569   3.776
  599TCM    cl2 3160   3.761   3.426   3.544
  599TCM     h1 3161   3.563   3.376   3.668
  599TCM    cl3 3162   3.501   3.558   3.526
  600TCM     c1 3163   3.999   0.188   4.976
  600TCM    cl1 3164   4.137   0.290   0.028
  600TCM    cl2 3165   4.048   0.087   4.836
  600TCM     h1 3166   3.968   0.124   0.059
  600TCM    cl3 3167   3.862   0.294   4.928
  601TCM     c1 3168   3.213   2.965   3.178
  601TCM    cl1 3169   3.295   2.881   3.314
  601TCM    cl2 3170   3.291   3.125   3.152
  601TCM     h1 3171   3.221   2.905   3.088
  601TCM    cl3 3172   3.040   2.990   3.220
  602TCM     c1 3173   0.563   2.562   1.772
  602TCM    cl1 3174   0.693   2.572   1.649
  602TCM    cl2 3175   0.413   2.499   1.696
  602TCM     h1 3176   0.594   2.495   1.852
  602TCM    cl3 3177   0.531   2.725   1.839
  603TCM     c1 3178   0.128   4.378   3.020
  603TCM    cl1 3179   0.232   4.460   2.899
  603TCM    cl2 3180   0.219   4.242   3.093
  603TCM     h1 3181   0.098   4.448   3.098
  603TCM    cl3 3182   4.981   4.313   2.940
  604TCM     c1 3183   2.216   3.430   1.454
  604TCM    cl1 3184   2.229   3.451   1.276
  604TCM    cl2 3185   2.360   3.506   1.531
  604TCM     h1 3186   2.125   3.478   1.490
  604TCM    cl3 3187   2.214   3.255   1.494
  605TCM     c1 3188   0.345   1.345   2.346
  605TCM    cl1 3189   0.378   1.463   2.215
  605TCM    cl2 3190   0.476   1.221   2.348
  605TCM     h1 3191   0.341   1.396   2.442
  605TCM    cl3 3192   0.188   1.264   2.314
  606TCM     c1 3193   3.921   3.242   3.794
  606TCM    cl1 3194   3.752   3.193   3.830
  606TCM    cl2 3195   4.032   3.109   3.837
  606TCM     h1 3196   3.931   3.264   3.688
  606TCM    cl3 3197   3.962   3.389   3.890
  607TCM     c1 3198   1.671   3.374   3.588
  607TCM    cl1 3199   1.702   3.332   3.416
  607TCM    cl2 3200   1.675   3.225   3.687
  607TCM     h1 3201   1.748   3.444   3.623
  607TCM    cl3 3202   1.509   3.451   3.604
  608TCM     c1 3203   2.506   3.139   2.506
  608TCM    cl1 3204   2.449   3.218   2.657
  608TCM    cl2 3205   2.636   3.021   2.546
  608TCM     h1 3206   2.423   3.088   2.458
  608TCM    cl3 3207   2.571   3.264   2.395
  609TCM     c1 3208   1.645   2.688   0.100
  609TCM    cl1 3209   1.677   2.518   0.148
  609TCM    cl2 3210   1.557   2.691   4.944
  609TCM     h1 3211   1.585   2.738   0.177
  609TCM    cl3 3212   1.801   2.775   0.081
  610TCM     c1 3213   4.714   0.690   2.771
  610TCM    cl1 3214   4.709   0.514   2.808
  610TCM    cl2 3215   4.657   0.718   2.603
  610TCM     h1 3216   4.649   0.744   2.841
  610TCM    cl3 3217   4.883   0.749   2.788
  611TCM     c1 3218   0.037   2.169   1.130
  611TCM    cl1 3219   0.028   2.347   1.116
  611TCM    cl2 3220   4.945   2.116   1.275
  611TCM     h1 3221   4.993   2.123   1.041
  611TCM    cl3 3222   0.208   2.120   1.146
  612TCM     c1 3223   3.195   3.760   0.369
  612TCM    cl1 3224   3.247   3.591   0.340
  612TCM    cl2 3225   3.212   3.856   0.219
  612TCM     h1 3226   3.091   3.761   0.402
  612TCM    cl3 3227   3.298   3.834   0.496
  613TCM     c1 3228   2.749   4.000   3.530
  613TCM    cl1 3229   2.778   4.093   3.680
  613TCM    cl2 3230   2.897   4.001   3.429
  613TCM     h1 3231   2.722   3.897   3.555
  613TCM    cl3 3232   2.615   4.075   3.436
  614TCM     c1 3233   2.228   4.501   1.797
  614TCM    cl1 3234   2.385   4.475   1.880
  614TCM    cl2 3235   2.131   4.622   1.888
  614TCM     h1 3236   2.246   4.539   1.696
  614TCM    cl3 3237   2.138   4.346   1.788
  615TCM     c1 3238   1.461   1.760   0.607
  615TCM    cl1 3239   1.376   1.777   0.764
  615TCM    cl2 3240   1.340   1.760   0.475
  615TCM     h1 3241   1.531   1.843   0.594
  615TCM    cl3 3242   1.551   1.605   0.606
  616TCM     c1 3243   0.372   2.804   4.323
  616TCM    cl1 3244   0.511   2.817   4.210
  616TCM    cl2 3245   0.300   2.640   4.312
  616TCM     h1 3246   0.406   2.821   4.426
  616TCM    cl3 3247   0.248   2.926   4.280
  617TCM     c1 3248   0.467   1.513   4.519
  617TCM    cl1 3249   0.579   1.607   4.415
  617TCM    cl2 3250   0.519   1.524   4.690
  617TCM     h1 3251   0.366   1.553   4.509
  617TCM    cl3 3252   0.469   1.341   4.467
  618TCM     c1 3253   4.972   2.630   0.472
  618TCM    cl1 3254   4.821   2.668   0.563
  618TCM    cl2 3255   0.034   2.470   0.524
  618TCM     h1 3256   4.951   2.629   0.365
  618TCM    cl3 3257   0.095   2.755   0.509
  619TCM     c1 3258   2.185   4.209   4.618
  619TCM    cl1 3259   2.305   4.090   4.560
  619TCM    cl2 3260   2.249   4.295   4.761
  619TCM     h1 3261   2.164   4.281   4.538
  619TCM    cl3 3262   2.034   4.123   4.662
  620TCM     c1 3263   2.852   3.230   3.026
  620TCM    cl1 3264   2.708   3.331   2.990
  620TCM    cl2 3265   2.992   3.336   3.063
  620TCM     h1 3266   2.831   3.165   3.112
  620TCM    cl3 3267   2.892   3.128   2.884
  621TCM     c1 3268   2.991   4.168   0.297
  621TCM    cl1 3269   3.036   4.099   0.457
  621TCM    cl2 3270   3.139   4.210   0.205
  621TCM     h1 3271   2.933   4.095   0.241
  621TCM    cl3 3272   2.892   4.316   0.322
  622TCM     c1 3273   3.358   4.424   0.483
  622TCM    cl1 3274   3.433   4.482   0.330
  622TCM    cl2 3275   3.374   4.246   0.493
  622TCM     h1 3276   3.409   4.470   0.568
  622TCM    cl3 3277   3.184   4.470   0.486
  623TCM     c1 3278   2.556   3.623   0.812
  623TCM    cl1 3279   2.673   3.740   0.881
  623TCM    cl2 3280   2.534   3.486   0.925
  623TCM     h1 3281   2.460   3.673   0.795
  623TCM    cl3 3282   2.621   3.562   0.656
  624TCM     c1 3283   4.040   3.835   3.532
  624TCM    cl1 3284   4.156   3.748   3.427
  624TCM    cl2 3285   4.126   3.962   3.624
  624TCM     h1 3286   3.961   3.880   3.471
  624TCM    cl3 3287   3.968   3.717   3.646
  625TCM     c1 3288   0.102   4.684   4.165
  625TCM    cl1 3289   4.930   4.642   4.133
  625TCM    cl2 3290   0.109   4.836   4.261
  625TCM     h1 3291   0.149   4.604   4.221
  625TCM    cl3 3292   0.187   4.707   4.009
  626TCM     c1 3293   4.078   0.122   3.469
  626TCM    cl1 3294   4.061   0.037   3.626
  626TCM    cl2 3295   4.096   0.298   3.499
  626TCM     h1 3296   4.166   0.084   3.416
  626TCM    cl3 3297   3.931   0.093   3.369
  627TCM     c1 3298   2.282   2.637   3.298
  627TCM    cl1 3299   2.342   2.694   3.139
  627TCM    cl2 3300   2.401   2.677   3.426
  627TCM     h1 3301   2.186   2.685   3.321
  627TCM    cl3 3302   2.259   2.459   3.292
  628TCM     c1 3303   0.003   4.531   2.527
  628TCM    cl1 3304   0.041   4.670   2.420
  628TCM    cl2 3305   4.964   4.593   2.691
  628TCM     h1 3306   4.919   4.475   2.487
  628TCM    cl3 3307   0.147   4.424   2.537
  629TCM     c1 3308   2.296   0.733   1.860
  629TCM    cl1 3309   2.222   0.611   1.750
  629TCM    cl2 3310   2.211   0.730   2.018
  629TCM     h1 3311   2.402   0.709   1.875
  629TCM    cl3 3312   2.281   0.895   1.786
  630TCM     c1 3313   0.357   2.287   2.786
  630TCM    cl1 3314   0.282   2.448   2.815
  630TCM    cl2 3315   0.255   2.193   2.673
  630TCM     h1 3316   0.457   2.300   2.743
  630TCM    cl3 3317   0.370   2.198   2.942
  631TCM     c1 3318   1.098   3.960   0.816
  631TCM    cl1 3319   1.053   3.869   0.668
  631TCM    cl2 3320   1.265   3.918   0.865
  631TCM     h1 3321   1.092   4.068   0.795
  631TCM    cl3 3322   0.984   3.919   0.948
  632TCM     c1 3323   2.492   3.221   0.520
  632TCM    cl1 3324   2.564   3.317   0.386
  632TCM    cl2 3325   2.358   3.314   0.595
  632TCM     h1 3326   2.453   3.127   0.481
  632TCM    cl3 3327   2.617   3.189   0.644
  633TCM     c1 3328   0.250   0.646   0.466
  633TCM    cl1 3329   0.416   0.580   0.483
  633TCM    cl2 3330   0.138   0.514   0.418
  633TCM     h1 3331   0.217   0.688   0.562
  633TCM    cl3 3332   0.249   0.774   0.341
  634TCM     c1 3333   0.061   2.322   3.100
  634TCM    cl1 3334   0.011   2.467   3.192
  634TCM    cl2 3335   4.975   2.317   2.943
  634TCM     h1 3336   0.169   2.326   3.082
  634TCM    cl3 3337   0.021   2.174   3.193
  635TCM     c1 3338   2.539   0.974   3.296
  635TCM    cl1 3339   2.652   0.837   3.270
  635TCM    cl2 3340   2.633   1.124   3.323
  635TCM     h1 3341   2.474   0.985   3.209
  635TCM    cl3 3342   2.439   0.940   3.441
  636TCM     c1 3343   0.309   0.984   2.051
  636TCM    cl1 3344   0.354   1.149   1.997
  636TCM    cl2 3345   0.353   0.867   1.922
  636TCM     h1 3346   0.363   0.960   2.143
  636TCM    cl3 3347   0.132   0.976   2.080
  637TCM     c1 3348   3.888   0.475   4.523
  637TCM    cl1 3349   3.930   0.301   4.542
  637TCM    cl2 3350   3.945   0.565   4.667
  637TCM     h1 3351   3.936   0.514   4.433
  637TCM    cl3 3352   3.710   0.491   4.508
  638TCM     c1 3353   0.045   1.033   4.903
  638TCM    cl1 3354   0.061   0.898   4.785
  638TCM    cl2 3355   0.143   0.997   0.049
  638TCM     h1 3356   0.081   1.126   4.857
  638TCM    cl3 3357   4.873   1.052   4.949
  639TCM     c1 3358   2.823   0.412   1.271
  639TCM    cl1 3359   2.732   0.555   1.328
  639TCM    cl2 3360   2.796   0.392   1.095
  639TCM     h1 3361   2.929   0.426   1.290
  639TCM    cl3 3362   2.766   0.264   1.356
  640TCM     c1 3363   2.169   1.288   3.739
  640TCM    cl1 3364   2.104   1.299   3.906
  640TCM    cl2 3365   2.064   1.382   3.627
  640TCM     h1 3366   2.270   1.329   3.737
  640TCM    cl3 3367   2.171   1.117   3.687
   5.00000   5.00000   5.00000
