FOO
 3367
    1MOP     C1    1   2.658   1.724   0.237
    1MOP     O2    2   2.703   1.805   0.318
    1MOP     C3    3   2.559   1.625   0.286
    1MOP     C4    4   2.519   1.517   0.205
    1MOP     C5    5   2.430   1.420   0.253
    1MOP     C6    6   2.376   1.429   0.382
    1MOP     C7    7   2.286   1.326   0.436
    1MOP     C8    8   2.318   1.188   0.436
    1MOP     C9    9   2.225   1.097   0.490
    1MOP    C10   10   2.103   1.137   0.544
    1MOP    O11   11   2.024   1.038   0.599
    1MOP    C12   12   1.908   1.077   0.674
    1MOP    C13   13   2.071   1.274   0.540
    1MOP    C14   14   2.162   1.366   0.487
    1MOP    C15   15   2.447   1.133   0.388
    1MOP    C16   16   2.568   1.186   0.432
    1MOP    C17   17   2.689   1.134   0.387
    1MOP    C18   18   2.690   1.026   0.298
    1MOP    C19   19   2.570   0.969   0.253
    1MOP    C20   20   2.449   1.025   0.299
    1MOP    C21   21   2.577   0.851   0.156
    1MOP    N22   22   2.451   0.810   0.093
    1MOP    C23   23   2.659   0.735   0.214
    1MOP    C24   24   2.413   1.539   0.462
    1MOP    C25   25   2.503   1.635   0.415
    1MOP    H26   26   2.560   1.505   0.105
    1MOP    H27   27   2.402   1.337   0.189
    1MOP    H28   28   2.250   0.991   0.493
    1MOP    H29   29   1.872   0.985   0.720
    1MOP    H30   30   1.837   1.118   0.601
    1MOP    H31   31   1.940   1.151   0.748
    1MOP    H32   32   1.977   1.311   0.578
    1MOP    H33   33   2.134   1.471   0.485
    1MOP    H34   34   2.570   1.270   0.502
    1MOP    H35   35   2.783   1.177   0.422
    1MOP    H36   36   2.786   0.988   0.265
    1MOP    H37   37   2.354   0.986   0.264
    1MOP    H38   38   2.637   0.888   0.072
    1MOP    H39   39   2.439   0.837  -0.005
    1MOP    H40   40   2.636   0.648   0.151
    1MOP    H41   41   2.628   0.723   0.318
    1MOP    H42   42   2.764   0.764   0.206
    1MOP    H43   43   2.373   1.548   0.562
    1MOP    H44   44   2.531   1.717   0.480
    2MOP    C45   45   2.338   0.748   0.143
    2MOP    O46   46   2.247   0.741   0.061
    2MOP    C47   47   2.311   0.705   0.281
    2MOP    C48   48   2.392   0.611   0.348
    2MOP    C49   49   2.364   0.574   0.479
    2MOP    C50   50   2.253   0.625   0.546
    2MOP    C51   51   2.227   0.586   0.685
    2MOP    C52   52   2.312   0.628   0.790
    2MOP    C53   53   2.288   0.581   0.920
    2MOP    C54   54   2.181   0.497   0.950
    2MOP    O55   55   2.166   0.461   1.082
    2MOP    C56   56   2.064   0.366   1.116
    2MOP    C57   57   2.096   0.457   0.844
    2MOP    C58   58   2.120   0.501   0.714
    2MOP    C59   59   2.422   0.723   0.770
    2MOP    C60   60   2.396   0.852   0.721
    2MOP    C61   61   2.499   0.944   0.705
    2MOP    C62   62   2.630   0.908   0.738
    2MOP    C63   63   2.660   0.780   0.789
    2MOP    C64   64   2.554   0.688   0.802
    2MOP    C65   65   2.803   0.738   0.818
    2MOP    N66   66   2.821   0.631   0.917
    2MOP    C67   67   2.903   0.851   0.847
    2MOP    C68   68   2.168   0.714   0.479
    2MOP    C69   69   2.197   0.753   0.348
    2MOP    H70   70   2.475   0.565   0.297
    2MOP    H71   71   2.429   0.503   0.530
    2MOP    H72   72   2.352   0.614   1.001
    2MOP    H73   73   2.075   0.351   1.224
    2MOP    H74   74   2.085   0.275   1.060
    2MOP    H75   75   1.968   0.412   1.090
    2MOP    H76   76   2.012   0.391   0.862
    2MOP    H77   77   2.055   0.468   0.633
    2MOP    H78   78   2.294   0.880   0.696
    2MOP    H79   79   2.478   1.043   0.667
    2MOP    H80   80   2.707   0.982   0.723
    2MOP    H81   81   2.572   0.587   0.838
    2MOP    H82   82   2.837   0.694   0.724
    2MOP    H83   83   2.891   0.560   0.893
    2MOP    H84   84   2.861   0.911   0.928
    2MOP    H85   85   2.913   0.907   0.754
    2MOP    H86   86   2.996   0.802   0.875
    2MOP    H87   87   2.080   0.754   0.529
    2MOP    H88   88   2.131   0.824   0.298
    3MOP    C89   89   2.766   0.605   1.041
    3MOP    O90   90   2.816   0.505   1.089
    3MOP    C91   91   2.658   0.673   1.116
    3MOP    C92   92   2.633   0.811   1.112
    3MOP    C93   93   2.535   0.869   1.194
    3MOP    C94   94   2.459   0.790   1.282
    3MOP    C95   95   2.362   0.849   1.375
    3MOP    C96   96   2.262   0.941   1.336
    3MOP    C97   97   2.176   0.995   1.433
    3MOP    C98   98   2.185   0.958   1.568
    3MOP    O99   99   2.103   1.005   1.668
    3MOP   C100  100   1.981   1.071   1.628
    3MOP   C101  101   2.283   0.868   1.605
    3MOP   C102  102   2.371   0.813   1.511
    3MOP   C103  103   2.240   0.981   1.197
    3MOP   C104  104   2.203   0.886   1.101
    3MOP   C105  105   2.176   0.925   0.970
    3MOP   C106  106   2.187   1.060   0.933
    3MOP   C107  107   2.224   1.157   1.028
    3MOP   C108  108   2.250   1.115   1.159
    3MOP   C109  109   2.242   1.304   0.992
    3MOP   N110  110   2.185   1.398   1.088
    3MOP   C111  111   2.202   1.346   0.851
    3MOP   C112  112   2.481   0.652   1.283
    3MOP   C113  113   2.579   0.595   1.202
    3MOP   H114  114   2.690   0.877   1.047
    3MOP   H115  115   2.519   0.976   1.191
    3MOP   H116  116   2.101   1.065   1.398
    3MOP   H117  117   1.927   1.089   1.721
    3MOP   H118  118   1.928   1.003   1.561
    3MOP   H119  119   2.011   1.165   1.580
    3MOP   H120  120   2.291   0.839   1.709
    3MOP   H121  121   2.447   0.743   1.544
    3MOP   H122  122   2.195   0.781   1.129
    3MOP   H123  123   2.147   0.851   0.896
    3MOP   H124  124   2.167   1.086   0.830
    3MOP   H125  125   2.280   1.188   1.234
    3MOP   H126  126   2.351   1.319   0.998
    3MOP   H127  127   2.240   1.482   1.108
    3MOP   H128  128   2.096   1.327   0.840
    3MOP   H129  129   2.264   1.287   0.782
    3MOP   H130  130   2.226   1.453   0.843
    3MOP   H131  131   2.421   0.588   1.348
    3MOP   H132  132   2.593   0.487   1.206
    4MOP   C133  133   2.071   1.394   1.166
    4MOP   O134  134   2.063   1.494   1.236
    4MOP   C135  135   1.964   1.292   1.177
    4MOP   C136  136   1.909   1.223   1.068
    4MOP   C137  137   1.797   1.140   1.084
    4MOP   C138  138   1.738   1.123   1.210
    4MOP   C139  139   1.612   1.047   1.229
    4MOP   C140  140   1.582   0.921   1.171
    4MOP   C141  141   1.460   0.860   1.200
    4MOP   C142  142   1.364   0.918   1.283
    4MOP   O143  143   1.250   0.845   1.306
    4MOP   C144  144   1.138   0.910   1.370
    4MOP   C145  145   1.391   1.045   1.336
    4MOP   C146  146   1.513   1.108   1.309
    4MOP   C147  147   1.671   0.850   1.078
    4MOP   C148  148   1.801   0.810   1.114
    4MOP   C149  149   1.880   0.741   1.022
    4MOP   C150  150   1.833   0.716   0.893
    4MOP   C151  151   1.704   0.756   0.854
    4MOP   C152  152   1.624   0.821   0.949
    4MOP   C153  153   1.653   0.730   0.713
    4MOP   N154  154   1.638   0.856   0.640
    4MOP   C155  155   1.531   0.638   0.709
    4MOP   C156  156   1.797   1.187   1.319
    4MOP   C157  157   1.907   1.270   1.303
    4MOP   H158  158   1.950   1.237   0.968
    4MOP   H159  159   1.754   1.092   0.996
    4MOP   H160  160   1.438   0.762   1.158
    4MOP   H161  161   1.058   0.836   1.368
    4MOP   H162  162   1.114   0.998   1.309
    4MOP   H163  163   1.170   0.934   1.472
    4MOP   H164  164   1.319   1.097   1.398
    4MOP   H165  165   1.529   1.208   1.349
    4MOP   H166  166   1.838   0.831   1.214
    4MOP   H167  167   1.980   0.708   1.051
    4MOP   H168  168   1.898   0.664   0.823
    4MOP   H169  169   1.523   0.852   0.924
    4MOP   H170  170   1.732   0.675   0.660
    4MOP   H171  171   1.718   0.888   0.586
    4MOP   H172  172   1.454   0.682   0.773
    4MOP   H173  173   1.566   0.541   0.746
    4MOP   H174  174   1.500   0.634   0.604
    4MOP   H175  175   1.755   1.174   1.419
    4MOP   H176  176   1.947   1.321   1.390
    5CAP   C177  177   2.797   1.808   0.064
    5CAP   O178  178   2.690   1.720   0.105
    5CAP   H179  179   2.765   1.910   0.087
    5CAP   H180  180   2.807   1.791  -0.044
    5CAP   H181  181   2.886   1.777   0.120
    6CAP   C182  182   1.572   1.299   0.547
    6CAP   C183  183   1.494   1.188   0.621
    6CAP   C184  184   1.490   1.225   0.771
    6CAP   C185  185   1.352   1.180   0.561
    6CAP   O186  186   1.572   1.069   0.596
    6CAP   C187  187   1.539   0.951   0.652
    6CAP   O188  188   1.433   0.924   0.707
    6CAP   H189  189   1.518   1.392   0.565
    6CAP   H190  190   1.672   1.300   0.590
    6CAP   H191  191   1.571   1.270   0.441
    6CAP   H192  192   1.594   1.221   0.806
    6CAP   H193  193   1.427   1.151   0.821
    6CAP   H194  194   1.447   1.325   0.778
    6CAP   H195  195   1.365   1.144   0.459
    6CAP   H196  196   1.294   1.112   0.623
    6CAP   H197  197   1.311   1.282   0.565
    7TCM     c1  198   4.283   0.421   2.773
    7TCM    cl1  199   4.408   0.372   2.654
    7TCM    cl2  200   4.225   0.587   2.735
    7TCM     h1  201   4.199   0.351   2.769
    7TCM    cl3  202   4.354   0.421   2.937
    8TCM     c1  203   1.722   2.460   4.463
    8TCM    cl1  204   1.583   2.346   4.471
    8TCM    cl2  205   1.719   2.566   4.607
    8TCM     h1  206   1.815   2.403   4.460
    8TCM    cl3  207   1.708   2.560   4.315
    9TCM     c1  208   1.653   2.055   1.072
    9TCM    cl1  209   1.562   1.972   0.942
    9TCM    cl2  210   1.584   2.219   1.097
    9TCM     h1  211   1.645   1.998   1.165
    9TCM    cl3  212   1.825   2.070   1.023
   10TCM     c1  213   2.713   0.571   3.741
   10TCM    cl1  214   2.792   0.463   3.622
   10TCM    cl2  215   2.832   0.619   3.866
   10TCM     h1  216   2.676   0.661   3.690
   10TCM    cl3  217   2.576   0.486   3.820
   11TCM     c1  218   2.037   1.448   2.815
   11TCM    cl1  219   1.972   1.535   2.672
   11TCM    cl2  220   1.944   1.497   2.960
   11TCM     h1  221   2.028   1.340   2.800
   11TCM    cl3  222   2.210   1.493   2.838
   12TCM     c1  223   4.936   1.421   0.212
   12TCM    cl1  224   4.962   1.279   0.106
   12TCM    cl2  225   5.093   1.478   0.276
   12TCM     h1  226   4.888   1.501   0.154
   12TCM    cl3  227   4.830   1.376   0.350
   13TCM     c1  228   2.819   0.849   2.580
   13TCM    cl1  229   2.709   0.776   2.701
   13TCM    cl2  230   2.812   0.757   2.426
   13TCM     h1  231   2.791   0.953   2.562
   13TCM    cl3  232   2.986   0.842   2.644
   14TCM     c1  233   3.428   4.039   4.279
   14TCM    cl1  234   3.297   4.053   4.157
   14TCM    cl2  235   3.409   4.169   4.402
   14TCM     h1  236   3.421   3.942   4.328
   14TCM    cl3  237   3.587   4.055   4.198
   15TCM     c1  238   0.418   3.937   3.344
   15TCM    cl1  239   0.241   3.916   3.319
   15TCM    cl2  240   0.492   3.777   3.375
   15TCM     h1  241   0.462   3.982   3.255
   15TCM    cl3  242   0.446   4.045   3.485
   16TCM     c1  243   3.814   1.264   2.643
   16TCM    cl1  244   3.988   1.274   2.687
   16TCM    cl2  245   3.794   1.149   2.507
   16TCM     h1  246   3.756   1.229   2.729
   16TCM    cl3  247   3.756   1.426   2.593
   17TCM     c1  248   0.014   3.146   4.287
   17TCM    cl1  249  -0.099   3.006   4.293
   17TCM    cl2  250   0.183   3.086   4.293
   17TCM     h1  251  -0.002   3.202   4.195
   17TCM    cl3  252  -0.016   3.253   4.428
   18TCM     c1  253   0.513   2.464   1.272
   18TCM    cl1  254   0.407   2.538   1.397
   18TCM    cl2  255   0.412   2.400   1.139
   18TCM     h1  256   0.581   2.540   1.233
   18TCM    cl3  257   0.608   2.331   1.345
   19TCM     c1  258   1.345   1.703   2.132
   19TCM    cl1  259   1.175   1.755   2.106
   19TCM    cl2  260   1.370   1.543   2.056
   19TCM     h1  261   1.412   1.776   2.087
   19TCM    cl3  262   1.378   1.692   2.308
   20TCM     c1  263   4.356   4.422   0.501
   20TCM    cl1  264   4.463   4.279   0.486
   20TCM    cl2  265   4.240   4.397   0.636
   20TCM     h1  266   4.416   4.511   0.520
   20TCM    cl3  267   4.264   4.444   0.348
   21TCM     c1  268   2.583   0.122   3.971
   21TCM    cl1  269   2.682  -0.007   4.046
   21TCM    cl2  270   2.485   0.203   4.098
   21TCM     h1  271   2.648   0.196   3.923
   21TCM    cl3  272   2.473   0.049   3.849
   22TCM     c1  273   2.752   1.548   2.762
   22TCM    cl1  274   2.887   1.444   2.706
   22TCM    cl2  275   2.602   1.505   2.674
   22TCM     h1  276   2.737   1.534   2.870
   22TCM    cl3  277   2.793   1.719   2.729
   23TCM     c1  278   0.736   2.970   4.837
   23TCM    cl1  279   0.909   3.005   4.803
   23TCM    cl2  280   0.674   2.854   4.715
   23TCM     h1  281   0.727   2.927   4.937
   23TCM    cl3  282   0.641   3.121   4.827
   24TCM     c1  283   4.428   3.518   2.220
   24TCM    cl1  284   4.437   3.687   2.159
   24TCM    cl2  285   4.258   3.461   2.213
   24TCM     h1  286   4.491   3.454   2.159
   24TCM    cl3  287   4.485   3.513   2.391
   25TCM     c1  288   0.143   3.774   4.490
   25TCM    cl1  289   0.017   3.762   4.363
   25TCM    cl2  290   0.160   3.945   4.541
   25TCM     h1  291   0.115   3.712   4.576
   25TCM    cl3  292   0.300   3.716   4.424
   26TCM     c1  293   2.322   1.219   3.218
   26TCM    cl1  294   2.448   1.251   3.095
   26TCM    cl2  295   2.322   1.044   3.258
   26TCM     h1  296   2.342   1.277   3.308
   26TCM    cl3  297   2.161   1.265   3.152
   27TCM     c1  298   1.089   1.896   2.508
   27TCM    cl1  299   1.203   1.819   2.623
   27TCM    cl2  300   0.991   1.769   2.428
   27TCM     h1  301   1.024   1.964   2.562
   27TCM    cl3  302   1.181   1.989   2.385
   28TCM     c1  303   3.112   4.449   4.790
   28TCM    cl1  304   3.211   4.599   4.789
   28TCM    cl2  305   3.189   4.325   4.685
   28TCM     h1  306   3.104   4.411   4.892
   28TCM    cl3  307   2.948   4.487   4.728
   29TCM     c1  308   2.732   2.235   2.100
   29TCM    cl1  309   2.565   2.191   2.053
   29TCM    cl2  310   2.728   2.389   2.193
   29TCM     h1  311   2.775   2.156   2.162
   29TCM    cl3  312   2.832   2.257   1.953
   30TCM     c1  313   2.436   1.886   4.966
   30TCM    cl1  314   2.545   2.008   4.891
   30TCM    cl2  315   2.434   1.738   4.864
   30TCM     h1  316   2.472   1.861   5.066
   30TCM    cl3  317   2.270   1.954   4.977
   31TCM     c1  318   4.977   4.985   0.869
   31TCM    cl1  319   5.008   4.848   0.757
   31TCM    cl2  320   4.878   4.928   1.007
   31TCM     h1  321   5.072   5.025   0.906
   31TCM    cl3  322   4.888   5.114   0.782
   32TCM     c1  323   3.150   0.856   1.165
   32TCM    cl1  324   2.997   0.948   1.188
   32TCM    cl2  325   3.235   0.919   1.020
   32TCM     h1  326   3.213   0.867   1.253
   32TCM    cl3  327   3.112   0.683   1.138
   33TCM     c1  328   3.692   3.414   1.742
   33TCM    cl1  329   3.594   3.370   1.598
   33TCM    cl2  330   3.596   3.521   1.850
   33TCM     h1  331   3.720   3.324   1.796
   33TCM    cl3  332   3.840   3.501   1.689
   34TCM     c1  333   1.002   0.948   3.508
   34TCM    cl1  334   0.864   1.031   3.430
   34TCM    cl2  335   1.019   1.004   3.677
   34TCM     h1  336   0.986   0.840   3.506
   34TCM    cl3  337   1.153   0.986   3.418
   35TCM     c1  338   0.795   0.342   3.887
   35TCM    cl1  339   0.788   0.316   4.064
   35TCM    cl2  340   0.772   0.185   3.803
   35TCM     h1  341   0.717   0.412   3.857
   35TCM    cl3  342   0.956   0.410   3.844
   36TCM     c1  343   2.916   3.658   3.234
   36TCM    cl1  344   3.027   3.543   3.316
   36TCM    cl2  345   3.013   3.795   3.169
   36TCM     h1  346   2.864   3.608   3.153
   36TCM    cl3  347   2.798   3.723   3.353
   37TCM     c1  348   0.254   1.138   2.447
   37TCM    cl1  349   0.219   1.183   2.616
   37TCM    cl2  350   0.181   0.979   2.412
   37TCM     h1  351   0.212   1.213   2.379
   37TCM    cl3  352   0.432   1.130   2.422
   38TCM     c1  353   4.958   2.056   2.014
   38TCM    cl1  354   5.073   2.019   2.147
   38TCM    cl2  355   4.952   2.234   1.989
   38TCM     h1  356   4.991   2.007   1.922
   38TCM    cl3  357   4.795   1.996   2.060
   39TCM     c1  358   1.351   3.475   2.172
   39TCM    cl1  359   1.405   3.392   2.322
   39TCM    cl2  360   1.281   3.355   2.060
   39TCM     h1  361   1.276   3.551   2.197
   39TCM    cl3  362   1.491   3.555   2.093
   40TCM     c1  363   3.608   1.494   2.139
   40TCM    cl1  364   3.482   1.581   2.045
   40TCM    cl2  365   3.542   1.448   2.299
   40TCM     h1  366   3.638   1.404   2.084
   40TCM    cl3  367   3.750   1.600   2.162
   41TCM     c1  368   0.844   1.879   2.053
   41TCM    cl1  369   0.875   2.004   2.178
   41TCM    cl2  370   0.747   1.952   1.921
   41TCM     h1  371   0.938   1.842   2.013
   41TCM    cl3  372   0.751   1.745   2.128
   42TCM     c1  373   2.268   3.797   1.673
   42TCM    cl1  374   2.434   3.731   1.676
   42TCM    cl2  375   2.156   3.666   1.623
   42TCM     h1  376   2.241   3.832   1.773
   42TCM    cl3  377   2.257   3.931   1.556
   43TCM     c1  378   0.954   4.429   0.720
   43TCM    cl1  379   0.900   4.292   0.617
   43TCM    cl2  380   1.081   4.371   0.832
   43TCM     h1  381   0.994   4.508   0.657
   43TCM    cl3  382   0.814   4.492   0.814
   44TCM     c1  383   0.041   1.234   4.603
   44TCM    cl1  384  -0.120   1.292   4.657
   44TCM    cl2  385   0.167   1.352   4.653
   44TCM     h1  386   0.062   1.137   4.649
   44TCM    cl3  387   0.043   1.219   4.424
   45TCM     c1  388   1.248   3.745   4.704
   45TCM    cl1  389   1.376   3.852   4.638
   45TCM    cl2  390   1.295   3.690   4.868
   45TCM     h1  391   1.154   3.799   4.709
   45TCM    cl3  392   1.229   3.601   4.597
   46TCM     c1  393   0.064   0.537   4.604
   46TCM    cl1  394   0.127   0.631   4.743
   46TCM    cl2  395   0.200   0.452   4.523
   46TCM     h1  396  -0.009   0.464   4.639
   46TCM    cl3  397  -0.015   0.649   4.488
   47TCM     c1  398   0.881   4.102   2.052
   47TCM    cl1  399   0.804   4.006   2.184
   47TCM    cl2  400   0.754   4.173   1.947
   47TCM     h1  401   0.941   4.182   2.096
   47TCM    cl3  402   0.986   3.993   1.956
   48TCM     c1  403   3.265   3.964   4.705
   48TCM    cl1  404   3.371   3.863   4.600
   48TCM    cl2  405   3.353   4.003   4.857
   48TCM     h1  406   3.239   4.056   4.653
   48TCM    cl3  407   3.116   3.872   4.745
   49TCM     c1  408   1.709   1.548   1.229
   49TCM    cl1  409   1.610   1.458   1.110
   49TCM    cl2  410   1.649   1.511   1.395
   49TCM     h1  411   1.814   1.518   1.221
   49TCM    cl3  412   1.693   1.724   1.198
   50TCM     c1  413   3.200   0.681   2.302
   50TCM    cl1  414   3.083   0.627   2.176
   50TCM    cl2  415   3.178   0.583   2.450
   50TCM     h1  416   3.302   0.670   2.264
   50TCM    cl3  417   3.169   0.853   2.341
   51TCM     c1  418   0.131   0.464   1.782
   51TCM    cl1  419   0.035   0.553   1.906
   51TCM    cl2  420   0.291   0.543   1.765
   51TCM     h1  421   0.144   0.361   1.814
   51TCM    cl3  422   0.045   0.467   1.625
   52TCM     c1  423   3.515   2.475   1.035
   52TCM    cl1  424   3.451   2.317   1.092
   52TCM    cl2  425   3.543   2.468   0.858
   52TCM     h1  426   3.443   2.554   1.058
   52TCM    cl3  427   3.671   2.509   1.118
   53TCM     c1  428   4.032   0.042   0.590
   53TCM    cl1  429   4.028  -0.088   0.467
   53TCM    cl2  430   3.913   0.169   0.545
   53TCM     h1  431   4.006   0.000   0.688
   53TCM    cl3  432   4.196   0.113   0.595
   54TCM     c1  433   4.871   1.698   3.228
   54TCM    cl1  434   4.716   1.786   3.207
   54TCM    cl2  435   4.862   1.541   3.141
   54TCM     h1  436   4.953   1.758   3.187
   54TCM    cl3  437   4.900   1.667   3.402
   55TCM     c1  438   1.938   3.288   2.361
   55TCM    cl1  439   2.068   3.365   2.264
   55TCM    cl2  440   1.789   3.387   2.351
   55TCM     h1  441   1.918   3.188   2.321
   55TCM    cl3  442   1.989   3.275   2.532
   56TCM     c1  443   0.497   0.145   4.536
   56TCM    cl1  444   0.421   0.113   4.696
   56TCM    cl2  445   0.491  -0.003   4.435
   56TCM     h1  446   0.443   0.226   4.486
   56TCM    cl3  447   0.668   0.193   4.561
   57TCM     c1  448   4.438   0.442   4.471
   57TCM    cl1  449   4.398   0.616   4.451
   57TCM    cl2  450   4.297   0.357   4.542
   57TCM     h1  451   4.463   0.398   4.374
   57TCM    cl3  452   4.578   0.426   4.582
   58TCM     c1  453   3.458   4.384   1.644
   58TCM    cl1  454   3.371   4.446   1.788
   58TCM    cl2  455   3.572   4.510   1.586
   58TCM     h1  456   3.513   4.294   1.671
   58TCM    cl3  457   3.340   4.346   1.514
   59TCM     c1  458   4.711   4.607   4.769
   59TCM    cl1  459   4.532   4.611   4.752
   59TCM    cl2  460   4.762   4.441   4.814
   59TCM     h1  461   4.758   4.635   4.675
   59TCM    cl3  462   4.760   4.721   4.898
   60TCM     c1  463   3.929   4.206   1.585
   60TCM    cl1  464   3.755   4.199   1.543
   60TCM    cl2  465   3.957   4.121   1.740
   60TCM     h1  466   3.988   4.158   1.506
   60TCM    cl3  467   3.978   4.378   1.600
   61TCM     c1  468   3.698   3.975   3.245
   61TCM    cl1  469   3.701   3.935   3.420
   61TCM    cl2  470   3.813   4.109   3.213
   61TCM     h1  471   3.726   3.887   3.187
   61TCM    cl3  472   3.533   4.027   3.200
   62TCM     c1  473   0.651   0.687   3.340
   62TCM    cl1  474   0.561   0.841   3.320
   62TCM    cl2  475   0.666   0.649   3.515
   62TCM     h1  476   0.597   0.606   3.290
   62TCM    cl3  477   0.815   0.703   3.270
   63TCM     c1  478   3.083   2.711   2.966
   63TCM    cl1  479   3.128   2.852   3.069
   63TCM    cl2  480   2.911   2.727   2.919
   63TCM     h1  481   3.146   2.710   2.877
   63TCM    cl3  482   3.108   2.560   3.060
   64TCM     c1  483   3.687   2.249   2.525
   64TCM    cl1  484   3.549   2.153   2.461
   64TCM    cl2  485   3.661   2.279   2.700
   64TCM     h1  486   3.780   2.193   2.511
   64TCM    cl3  487   3.696   2.405   2.437
   65TCM     c1  488   4.872   0.653   2.420
   65TCM    cl1  489   4.902   0.506   2.518
   65TCM    cl2  490   4.993   0.664   2.288
   65TCM     h1  491   4.771   0.647   2.377
   65TCM    cl3  492   4.884   0.800   2.523
   66TCM     c1  493   0.158   0.385   2.938
   66TCM    cl1  494   0.185   0.243   3.045
   66TCM    cl2  495   0.105   0.328   2.776
   66TCM     h1  496   0.081   0.450   2.981
   66TCM    cl3  497   0.312   0.477   2.922
   67TCM     c1  498   0.139   3.544   0.990
   67TCM    cl1  499   0.071   3.493   0.831
   67TCM    cl2  500   0.010   3.620   1.088
   67TCM     h1  501   0.178   3.456   1.042
   67TCM    cl3  502   0.272   3.662   0.962
   68TCM     c1  503   1.411   3.500   0.647
   68TCM    cl1  504   1.443   3.556   0.815
   68TCM    cl2  505   1.562   3.514   0.551
   68TCM     h1  506   1.379   3.396   0.649
   68TCM    cl3  507   1.282   3.601   0.573
   69TCM     c1  508   2.744   4.510   4.037
   69TCM    cl1  509   2.586   4.594   4.037
   69TCM    cl2  510   2.799   4.484   3.868
   69TCM     h1  511   2.817   4.572   4.090
   69TCM    cl3  512   2.729   4.352   4.120
   70TCM     c1  513   4.533   1.589   0.310
   70TCM    cl1  514   4.388   1.486   0.335
   70TCM    cl2  515   4.487   1.761   0.327
   70TCM     h1  516   4.609   1.564   0.384
   70TCM    cl3  517   4.598   1.561   0.144
   71TCM     c1  518   2.927   4.698   4.416
   71TCM    cl1  519   2.835   4.545   4.395
   71TCM    cl2  520   2.908   4.797   4.268
   71TCM     h1  521   2.888   4.752   4.503
   71TCM    cl3  522   3.100   4.660   4.441
   72TCM     c1  523   3.686   4.079   2.038
   72TCM    cl1  524   3.625   4.187   1.909
   72TCM    cl2  525   3.569   4.079   2.175
   72TCM     h1  526   3.696   3.977   2.000
   72TCM    cl3  527   3.845   4.138   2.095
   73TCM     c1  528   1.045   0.340   3.362
   73TCM    cl1  529   0.915   0.352   3.484
   73TCM    cl2  530   0.974   0.358   3.198
   73TCM     h1  531   1.119   0.419   3.378
   73TCM    cl3  532   1.125   0.179   3.374
   74TCM     c1  533   0.695   1.235   2.668
   74TCM    cl1  534   0.684   1.370   2.550
   74TCM    cl2  535   0.549   1.233   2.771
   74TCM     h1  536   0.703   1.140   2.614
   74TCM    cl3  537   0.841   1.257   2.770
   75TCM     c1  538   1.112   0.770   1.920
   75TCM    cl1  539   1.066   0.603   1.966
   75TCM    cl2  540   1.103   0.786   1.741
   75TCM     h1  541   1.044   0.841   1.966
   75TCM    cl3  542   1.280   0.802   1.975
   76TCM     c1  543   2.817   0.979   3.910
   76TCM    cl1  544   2.745   1.096   4.027
   76TCM    cl2  545   2.960   1.054   3.832
   76TCM     h1  546   2.848   0.889   3.964
   76TCM    cl3  547   2.695   0.938   3.786
   77TCM     c1  548   4.540   0.014   0.596
   77TCM    cl1  549   4.591   0.165   0.514
   77TCM    cl2  550   4.521   0.044   0.772
   77TCM     h1  551   4.444  -0.020   0.554
   77TCM    cl3  552   4.664  -0.114   0.571
   78TCM     c1  553   0.486   4.258   0.239
   78TCM    cl1  554   0.312   4.297   0.213
   78TCM    cl2  555   0.559   4.205   0.083
   78TCM     h1  556   0.538   4.346   0.275
   78TCM    cl3  557   0.502   4.125   0.359
   79TCM     c1  558   2.398   3.366   2.049
   79TCM    cl1  559   2.433   3.505   2.158
   79TCM    cl2  560   2.509   3.231   2.088
   79TCM     h1  561   2.294   3.334   2.063
   79TCM    cl3  562   2.423   3.417   1.879
   80TCM     c1  563   0.527   2.845   1.017
   80TCM    cl1  564   0.668   2.742   1.059
   80TCM    cl2  565   0.545   3.006   1.094
   80TCM     h1  566   0.521   2.856   0.908
   80TCM    cl3  567   0.377   2.768   1.079
   81TCM     c1  568   3.053   3.744   0.979
   81TCM    cl1  569   3.021   3.709   1.152
   81TCM    cl2  570   3.111   3.913   0.963
   81TCM     h1  571   3.129   3.676   0.941
   81TCM    cl3  572   2.901   3.724   0.885
   82TCM     c1  573   3.114   2.942   4.833
   82TCM    cl1  574   3.251   2.851   4.761
   82TCM    cl2  575   3.050   2.849   4.973
   82TCM     h1  576   3.148   3.040   4.867
   82TCM    cl3  577   2.985   2.962   4.710
   83TCM     c1  578   1.062   1.201   2.011
   83TCM    cl1  579   1.202   1.246   1.908
   83TCM    cl2  580   1.116   1.083   2.135
   83TCM     h1  581   1.022   1.290   2.059
   83TCM    cl3  582   0.936   1.124   1.909
   84TCM     c1  583   2.094   2.485   4.752
   84TCM    cl1  584   2.070   2.655   4.699
   84TCM    cl2  585   2.265   2.460   4.798
   84TCM     h1  586   2.029   2.463   4.837
   84TCM    cl3  587   2.053   2.376   4.615
   85TCM     c1  588   2.159   4.077   3.850
   85TCM    cl1  589   2.278   4.009   3.734
   85TCM    cl2  590   2.230   4.074   4.015
   85TCM     h1  591   2.135   4.180   3.822
   85TCM    cl3  592   2.010   3.977   3.848
   86TCM     c1  593   0.891   0.265   4.900
   86TCM    cl1  594   0.998   0.178   4.785
   86TCM    cl2  595   0.985   0.311   5.046
   86TCM     h1  596   0.852   0.355   4.852
   86TCM    cl3  597   0.755   0.158   4.947
   87TCM     c1  598   1.147   0.745   3.057
   87TCM    cl1  599   1.059   0.901   3.073
   87TCM    cl2  600   1.050   0.633   2.956
   87TCM     h1  601   1.244   0.762   3.009
   87TCM    cl3  602   1.171   0.674   3.220
   88TCM     c1  603   4.635   3.118   3.058
   88TCM    cl1  604   4.575   2.949   3.075
   88TCM    cl2  605   4.770   3.121   2.940
   88TCM     h1  606   4.554   3.183   3.023
   88TCM    cl3  607   4.694   3.174   3.217
   89TCM     c1  608   3.016   4.808   0.013
   89TCM    cl1  609   2.970   4.918   0.147
   89TCM    cl2  610   2.944   4.867  -0.141
   89TCM     h1  611   3.125   4.805   0.003
   89TCM    cl3  612   2.952   4.644   0.048
   90TCM     c1  613   1.793   0.196   3.628
   90TCM    cl1  614   1.698   0.316   3.535
   90TCM    cl2  615   1.703   0.153   3.777
   90TCM     h1  616   1.810   0.107   3.567
   90TCM    cl3  617   1.950   0.270   3.674
   91TCM     c1  618   0.810   0.809   3.996
   91TCM    cl1  619   0.872   0.683   4.108
   91TCM    cl2  620   0.649   0.865   4.051
   91TCM     h1  621   0.880   0.893   3.994
   91TCM    cl3  622   0.796   0.739   3.832
   92TCM     c1  623   2.315   0.018   2.214
   92TCM    cl1  624   2.195   0.149   2.189
   92TCM    cl2  625   2.290  -0.108   2.089
   92TCM     h1  626   2.416   0.059   2.205
   92TCM    cl3  627   2.294  -0.053   2.377
   93TCM     c1  628   1.053   1.388   2.448
   93TCM    cl1  629   1.058   1.210   2.469
   93TCM    cl2  630   1.118   1.430   2.286
   93TCM     h1  631   0.950   1.424   2.456
   93TCM    cl3  632   1.154   1.466   2.574
   94TCM     c1  633   1.632   1.875   0.091
   94TCM    cl1  634   1.714   1.783   0.222
   94TCM    cl2  635   1.494   1.966   0.161
   94TCM     h1  636   1.703   1.945   0.046
   94TCM    cl3  637   1.571   1.761  -0.033
   95TCM     c1  638   4.326   3.113   2.274
   95TCM    cl1  639   4.349   3.173   2.441
   95TCM    cl2  640   4.305   2.935   2.276
   95TCM     h1  641   4.237   3.160   2.230
   95TCM    cl3  642   4.470   3.155   2.175
   96TCM     c1  643   2.898   0.061   1.179
   96TCM    cl1  644   2.772  -0.063   1.210
   96TCM    cl2  645   3.007   0.002   1.050
   96TCM     h1  646   2.851   0.155   1.148
   96TCM    cl3  647   2.992   0.088   1.329
   97TCM     c1  648   4.453   2.308   2.706
   97TCM    cl1  649   4.614   2.311   2.785
   97TCM    cl2  650   4.338   2.215   2.808
   97TCM     h1  651   4.416   2.410   2.693
   97TCM    cl3  652   4.467   2.228   2.546
   98TCM     c1  653   4.024   0.665   3.703
   98TCM    cl1  654   4.143   0.621   3.829
   98TCM    cl2  655   4.094   0.623   3.543
   98TCM     h1  656   3.931   0.609   3.718
   98TCM    cl3  657   3.991   0.841   3.710
   99TCM     c1  658   3.954   0.907   3.164
   99TCM    cl1  659   3.799   0.964   3.095
   99TCM    cl2  660   3.925   0.847   3.331
   99TCM     h1  661   3.994   0.826   3.103
   99TCM    cl3  662   4.071   1.042   3.169
  100TCM     c1  663   2.090   0.410   3.162
  100TCM    cl1  664   2.021   0.543   3.062
  100TCM    cl2  665   2.134   0.272   3.056
  100TCM     h1  666   2.180   0.446   3.213
  100TCM    cl3  667   1.969   0.356   3.283
  101TCM     c1  668   0.203   4.395   3.453
  101TCM    cl1  669   0.261   4.433   3.619
  101TCM    cl2  670   0.130   4.231   3.452
  101TCM     h1  671   0.128   4.469   3.422
  101TCM    cl3  672   0.342   4.399   3.340
  102TCM     c1  673   4.977   1.843   4.612
  102TCM    cl1  674   4.967   1.668   4.574
  102TCM    cl2  675   4.957   1.938   4.462
  102TCM     h1  676   4.898   1.869   4.683
  102TCM    cl3  677   5.137   1.879   4.683
  103TCM     c1  678   1.015   4.897   0.177
  103TCM    cl1  679   0.944   5.022   0.283
  103TCM    cl2  680   1.145   4.970   0.077
  103TCM     h1  681   1.057   4.817   0.238
  103TCM    cl3  682   0.888   4.830   0.070
  104TCM     c1  683   0.767   2.192   0.983
  104TCM    cl1  684   0.598   2.131   0.986
  104TCM    cl2  685   0.862   2.108   1.110
  104TCM     h1  686   0.811   2.172   0.885
  104TCM    cl3  687   0.768   2.368   1.016
  105TCM     c1  688   4.722   1.671   2.339
  105TCM    cl1  689   4.864   1.781   2.352
  105TCM    cl2  690   4.693   1.594   2.498
  105TCM     h1  691   4.634   1.728   2.308
  105TCM    cl3  692   4.757   1.544   2.217
  106TCM     c1  693   2.861   1.284   2.381
  106TCM    cl1  694   2.715   1.216   2.459
  106TCM    cl2  695   2.820   1.340   2.215
  106TCM     h1  696   2.898   1.368   2.439
  106TCM    cl3  697   2.987   1.157   2.371
  107TCM     c1  698   3.029   0.480   2.800
  107TCM    cl1  699   3.080   0.332   2.887
  107TCM    cl2  700   2.975   0.603   2.919
  107TCM     h1  701   3.113   0.519   2.742
  107TCM    cl3  702   2.894   0.440   2.689
  108TCM     c1  703   2.301   4.663   1.089
  108TCM    cl1  704   2.452   4.667   1.186
  108TCM    cl2  705   2.339   4.614   0.921
  108TCM     h1  706   2.232   4.590   1.132
  108TCM    cl3  707   2.226   4.826   1.091
  109TCM     c1  708   0.149   3.562   4.004
  109TCM    cl1  709   0.032   3.581   3.869
  109TCM    cl2  710   0.289   3.466   3.946
  109TCM     h1  711   0.183   3.660   4.038
  109TCM    cl3  712   0.070   3.475   4.139
  110TCM     c1  713   2.478   0.226   1.868
  110TCM    cl1  714   2.468   0.334   2.011
  110TCM    cl2  715   2.313   0.189   1.808
  110TCM     h1  716   2.536   0.274   1.789
  110TCM    cl3  717   2.559   0.074   1.917
  111TCM     c1  718   2.518   4.758   3.570
  111TCM    cl1  719   2.353   4.746   3.639
  111TCM    cl2  720   2.636   4.751   3.704
  111TCM     h1  721   2.535   4.675   3.501
  111TCM    cl3  722   2.534   4.914   3.483
  112TCM     c1  723   3.227   3.504   4.779
  112TCM    cl1  724   3.184   3.541   4.608
  112TCM    cl2  725   3.389   3.572   4.817
  112TCM     h1  726   3.152   3.547   4.845
  112TCM    cl3  727   3.232   3.326   4.800
  113TCM     c1  728   1.280   0.052   4.527
  113TCM    cl1  729   1.307   0.229   4.535
  113TCM    cl2  730   1.116   0.020   4.461
  113TCM     h1  731   1.356   0.006   4.462
  113TCM    cl3  732   1.293  -0.017   4.692
  114TCM     c1  733   3.319   3.876   1.735
  114TCM    cl1  734   3.141   3.901   1.746
  114TCM    cl2  735   3.383   3.834   1.897
  114TCM     h1  736   3.340   3.795   1.665
  114TCM    cl3  737   3.397   4.027   1.678
  115TCM     c1  738   0.066   2.572   1.959
  115TCM    cl1  739   0.105   2.733   2.028
  115TCM    cl2  740   0.211   2.504   1.879
  115TCM     h1  741   0.033   2.505   2.039
  115TCM    cl3  742  -0.066   2.589   1.838
  116TCM     c1  743   1.985   0.767   3.551
  116TCM    cl1  744   2.068   0.794   3.394
  116TCM    cl2  745   1.923   0.599   3.557
  116TCM     h1  746   2.055   0.783   3.633
  116TCM    cl3  747   1.845   0.878   3.568
  117TCM     c1  748   1.461   4.697   3.466
  117TCM    cl1  749   1.283   4.701   3.490
  117TCM    cl2  750   1.506   4.811   3.334
  117TCM     h1  751   1.511   4.726   3.559
  117TCM    cl3  752   1.512   4.531   3.420
  118TCM     c1  753   1.631   3.218   3.184
  118TCM    cl1  754   1.529   3.133   3.063
  118TCM    cl2  755   1.803   3.200   3.138
  118TCM     h1  756   1.604   3.324   3.187
  118TCM    cl3  757   1.604   3.145   3.346
  119TCM     c1  758   4.712   2.396   2.339
  119TCM    cl1  759   4.752   2.497   2.196
  119TCM    cl2  760   4.709   2.499   2.486
  119TCM     h1  761   4.614   2.351   2.324
  119TCM    cl3  762   4.835   2.267   2.357
  120TCM     c1  763   2.394   1.287   1.844
  120TCM    cl1  764   2.501   1.282   1.988
  120TCM    cl2  765   2.226   1.248   1.893
  120TCM     h1  766   2.397   1.387   1.800
  120TCM    cl3  767   2.452   1.167   1.724
  121TCM     c1  768   1.334   0.159   3.716
  121TCM    cl1  769   1.163   0.119   3.754
  121TCM    cl2  770   1.340   0.316   3.629
  121TCM     h1  771   1.391   0.167   3.809
  121TCM    cl3  772   1.405   0.031   3.612
  122TCM     c1  773   4.211   3.826   2.507
  122TCM    cl1  774   4.381   3.834   2.564
  122TCM    cl2  775   4.156   3.656   2.507
  122TCM     h1  776   4.148   3.885   2.574
  122TCM    cl3  777   4.200   3.893   2.341
  123TCM     c1  778   4.302   1.299   4.007
  123TCM    cl1  779   4.442   1.187   4.001
  123TCM    cl2  780   4.219   1.283   4.165
  123TCM     h1  781   4.338   1.402   3.995
  123TCM    cl3  782   4.188   1.260   3.874
  124TCM     c1  783   3.632   1.774   2.474
  124TCM    cl1  784   3.559   1.817   2.633
  124TCM    cl2  785   3.781   1.870   2.450
  124TCM     h1  786   3.656   1.668   2.472
  124TCM    cl3  787   3.514   1.812   2.344
  125TCM     c1  788   4.694   4.200   3.370
  125TCM    cl1  789   4.792   4.066   3.437
  125TCM    cl2  790   4.634   4.153   3.207
  125TCM     h1  791   4.609   4.220   3.436
  125TCM    cl3  792   4.794   4.348   3.356
  126TCM     c1  793   0.335   1.965   0.442
  126TCM    cl1  794   0.373   2.019   0.609
  126TCM    cl2  795   0.275   2.105   0.347
  126TCM     h1  796   0.424   1.924   0.395
  126TCM    cl3  797   0.206   1.841   0.448
  127TCM     c1  798   3.307   1.680   3.302
  127TCM    cl1  799   3.144   1.755   3.303
  127TCM    cl2  800   3.327   1.583   3.152
  127TCM     h1  801   3.384   1.758   3.306
  127TCM    cl3  802   3.324   1.572   3.444
  128TCM     c1  803   1.465   2.519   2.652
  128TCM    cl1  804   1.445   2.685   2.588
  128TCM    cl2  805   1.304   2.450   2.692
  128TCM     h1  806   1.514   2.456   2.577
  128TCM    cl3  807   1.566   2.525   2.801
  129TCM     c1  808   0.424   2.680   0.041
  129TCM    cl1  809   0.490   2.846   0.059
  129TCM    cl2  810   0.448   2.591   0.195
  129TCM     h1  811   0.317   2.685   0.018
  129TCM    cl3  812   0.511   2.595  -0.091
  130TCM     c1  813   0.585   4.598   4.974
  130TCM    cl1  814   0.565   4.598   5.152
  130TCM    cl2  815   0.453   4.502   4.899
  130TCM     h1  816   0.580   4.701   4.937
  130TCM    cl3  817   0.743   4.526   4.931
  131TCM     c1  818   4.707   4.560   0.208
  131TCM    cl1  819   4.856   4.466   0.177
  131TCM    cl2  820   4.670   4.558   0.383
  131TCM     h1  821   4.721   4.663   0.175
  131TCM    cl3  822   4.569   4.486   0.120
  132TCM     c1  823   0.530   1.593   0.478
  132TCM    cl1  824   0.581   1.713   0.601
  132TCM    cl2  825   0.518   1.675   0.319
  132TCM     h1  826   0.603   1.513   0.472
  132TCM    cl3  827   0.370   1.527   0.524
  133TCM     c1  828   2.304   0.267   3.530
  133TCM    cl1  829   2.247   0.435   3.501
  133TCM    cl2  830   2.481   0.269   3.552
  133TCM     h1  831   2.256   0.226   3.619
  133TCM    cl3  832   2.262   0.165   3.388
  134TCM     c1  833   0.530   1.314   3.132
  134TCM    cl1  834   0.542   1.254   3.301
  134TCM    cl2  835   0.680   1.402   3.089
  134TCM     h1  836   0.516   1.229   3.065
  134TCM    cl3  837   0.390   1.425   3.119
  135TCM     c1  838   0.188   4.198   4.862
  135TCM    cl1  839   0.266   4.248   4.708
  135TCM    cl2  840   0.274   4.054   4.927
  135TCM     h1  841   0.193   4.280   4.934
  135TCM    cl3  842   0.017   4.155   4.832
  136TCM     c1  843   4.029   1.155   2.198
  136TCM    cl1  844   4.133   1.179   2.342
  136TCM    cl2  845   3.904   1.284   2.193
  136TCM     h1  846   4.090   1.160   2.108
  136TCM    cl3  847   3.948   0.994   2.207
  137TCM     c1  848   1.445   0.682   1.528
  137TCM    cl1  849   1.427   0.609   1.691
  137TCM    cl2  850   1.437   0.553   1.404
  137TCM     h1  851   1.364   0.754   1.512
  137TCM    cl3  852   1.603   0.766   1.519
  138TCM     c1  853   2.174   1.707   3.162
  138TCM    cl1  854   2.273   1.856   3.143
  138TCM    cl2  855   2.011   1.754   3.220
  138TCM     h1  856   2.165   1.656   3.066
  138TCM    cl3  857   2.252   1.598   3.281
  139TCM     c1  858   2.616   3.926   3.861
  139TCM    cl1  859   2.737   4.011   3.963
  139TCM    cl2  860   2.503   3.835   3.967
  139TCM     h1  861   2.561   3.999   3.802
  139TCM    cl3  862   2.702   3.812   3.751
  140TCM     c1  863   0.876   1.356   3.703
  140TCM    cl1  864   0.847   1.379   3.527
  140TCM    cl2  865   0.743   1.433   3.795
  140TCM     h1  866   0.880   1.249   3.725
  140TCM    cl3  867   1.032   1.431   3.749
  141TCM     c1  868   0.611   4.647   1.646
  141TCM    cl1  869   0.468   4.745   1.599
  141TCM    cl2  870   0.567   4.538   1.781
  141TCM     h1  871   0.645   4.588   1.561
  141TCM    cl3  872   0.743   4.758   1.699
  142TCM     c1  873   3.612   4.358   2.466
  142TCM    cl1  874   3.775   4.323   2.400
  142TCM    cl2  875   3.536   4.205   2.520
  142TCM     h1  876   3.621   4.427   2.550
  142TCM    cl3  877   3.513   4.433   2.337
  143TCM     c1  878   0.453   2.487   3.490
  143TCM    cl1  879   0.462   2.619   3.369
  143TCM    cl2  880   0.561   2.352   3.441
  143TCM     h1  881   0.483   2.525   3.588
  143TCM    cl3  882   0.284   2.427   3.497
  144TCM     c1  883   1.746   3.617   1.553
  144TCM    cl1  884   1.834   3.756   1.483
  144TCM    cl2  885   1.688   3.659   1.717
  144TCM     h1  886   1.660   3.591   1.490
  144TCM    cl3  887   1.856   3.476   1.563
  145TCM     c1  888   1.609   1.456   2.558
  145TCM    cl1  889   1.524   1.590   2.642
  145TCM    cl2  890   1.493   1.369   2.452
  145TCM     h1  891   1.691   1.496   2.498
  145TCM    cl3  892   1.674   1.342   2.680
  146TCM     c1  893   3.920   0.010   3.890
  146TCM    cl1  894   3.930  -0.135   3.995
  146TCM    cl2  895   4.066   0.111   3.917
  146TCM     h1  896   3.914  -0.020   3.785
  146TCM    cl3  897   3.774   0.105   3.934
  147TCM     c1  898   0.160   4.620   4.606
  147TCM    cl1  899   0.296   4.736   4.612
  147TCM    cl2  900   0.018   4.698   4.527
  147TCM     h1  901   0.189   4.532   4.548
  147TCM    cl3  902   0.114   4.571   4.772
  148TCM     c1  903   0.992   1.738   0.509
  148TCM    cl1  904   0.911   1.895   0.539
  148TCM    cl2  905   0.891   1.636   0.401
  148TCM     h1  906   1.089   1.755   0.462
  148TCM    cl3  907   1.016   1.653   0.666
  149TCM     c1  908   2.706   2.833   0.059
  149TCM    cl1  909   2.699   2.962  -0.065
  149TCM    cl2  910   2.549   2.746   0.063
  149TCM     h1  911   2.786   2.763   0.034
  149TCM    cl3  912   2.739   2.907   0.219
  150TCM     c1  913   3.542   1.283   3.062
  150TCM    cl1  914   3.441   1.182   2.954
  150TCM    cl2  915   3.706   1.302   2.991
  150TCM     h1  916   3.496   1.381   3.074
  150TCM    cl3  917   3.555   1.203   3.222
  151TCM     c1  918   3.310   0.294   2.050
  151TCM    cl1  919   3.399   0.442   2.098
  151TCM    cl2  920   3.412   0.192   1.943
  151TCM     h1  921   3.282   0.238   2.139
  151TCM    cl3  922   3.162   0.342   1.960
  152TCM     c1  923   3.635   2.260   1.500
  152TCM    cl1  924   3.549   2.415   1.469
  152TCM    cl2  925   3.760   2.286   1.627
  152TCM     h1  926   3.564   2.185   1.534
  152TCM    cl3  927   3.714   2.204   1.349
  153TCM     c1  928   2.863   4.251   2.543
  153TCM    cl1  929   2.801   4.339   2.687
  153TCM    cl2  930   2.995   4.142   2.596
  153TCM     h1  931   2.782   4.192   2.498
  153TCM    cl3  932   2.927   4.368   2.424
  154TCM     c1  933   4.200   0.982   2.793
  154TCM    cl1  934   4.038   0.911   2.819
  154TCM    cl2  935   4.249   0.957   2.622
  154TCM     h1  936   4.197   1.089   2.815
  154TCM    cl3  937   4.318   0.902   2.902
  155TCM     c1  938   1.175   2.072   4.882
  155TCM    cl1  939   1.113   2.228   4.821
  155TCM    cl2  940   1.157   2.067   5.061
  155TCM     h1  941   1.119   1.990   4.838
  155TCM    cl3  942   1.348   2.057   4.839
  156TCM     c1  943   2.502   4.712   4.500
  156TCM    cl1  944   2.624   4.746   4.628
  156TCM    cl2  945   2.488   4.535   4.478
  156TCM     h1  946   2.405   4.753   4.530
  156TCM    cl3  947   2.554   4.787   4.346
  157TCM     c1  948   2.373   0.053   4.860
  157TCM    cl1  949   2.385   0.083   5.036
  157TCM    cl2  950   2.535   0.065   4.784
  157TCM     h1  951   2.331  -0.047   4.842
  157TCM    cl3  952   2.266   0.177   4.786
  158TCM     c1  953   2.092   0.997   2.812
  158TCM    cl1  954   1.934   1.077   2.785
  158TCM    cl2  955   2.101   0.935   2.980
  158TCM     h1  956   2.104   0.914   2.742
  158TCM    cl3  957   2.223   1.117   2.785
  159TCM     c1  958   1.930   2.270   0.250
  159TCM    cl1  959   1.881   2.416   0.343
  159TCM    cl2  960   2.021   2.320   0.103
  159TCM     h1  961   1.993   2.207   0.312
  159TCM    cl3  962   1.783   2.180   0.201
  160TCM     c1  963   2.179   1.536   1.527
  160TCM    cl1  964   2.164   1.572   1.702
  160TCM    cl2  965   2.225   1.364   1.507
  160TCM     h1  966   2.085   1.556   1.476
  160TCM    cl3  967   2.308   1.640   1.456
  161TCM     c1  968   2.530   2.706   0.495
  161TCM    cl1  969   2.579   2.574   0.384
  161TCM    cl2  970   2.439   2.832   0.406
  161TCM     h1  971   2.467   2.665   0.575
  161TCM    cl3  972   2.676   2.780   0.568
  162TCM     c1  973   2.572   1.723   2.028
  162TCM    cl1  974   2.534   1.809   2.182
  162TCM    cl2  975   2.637   1.841   1.909
  162TCM     h1  976   2.647   1.646   2.047
  162TCM    cl3  977   2.423   1.648   1.963
  163TCM     c1  978   4.471   4.530   2.546
  163TCM    cl1  979   4.449   4.555   2.722
  163TCM    cl2  980   4.614   4.624   2.490
  163TCM     h1  981   4.488   4.424   2.525
  163TCM    cl3  982   4.324   4.586   2.459
  164TCM     c1  983   3.146   0.413   4.670
  164TCM    cl1  984   3.161   0.545   4.790
  164TCM    cl2  985   3.180   0.476   4.506
  164TCM     h1  986   3.217   0.333   4.694
  164TCM    cl3  987   2.979   0.347   4.676
  165TCM     c1  988   3.603   4.061   3.773
  165TCM    cl1  989   3.745   3.953   3.787
  165TCM    cl2  990   3.638   4.213   3.863
  165TCM     h1  991   3.584   4.084   3.668
  165TCM    cl3  992   3.460   3.980   3.844
  166TCM     c1  993   1.912   1.187   2.360
  166TCM    cl1  994   1.789   1.084   2.441
  166TCM    cl2  995   2.033   1.242   2.481
  166TCM     h1  996   1.962   1.129   2.282
  166TCM    cl3  997   1.833   1.330   2.288
  167TCM     c1  998   2.728   0.348   4.944
  167TCM    cl1  999   2.767   0.191   5.021
  167TCM    cl2 1000   2.848   0.471   4.998
  167TCM     h1 1001   2.733   0.338   4.835
  167TCM    cl3 1002   2.563   0.400   4.993
  168TCM     c1 1003   2.436   2.744   2.205
  168TCM    cl1 1004   2.447   2.853   2.346
  168TCM    cl2 1005   2.506   2.826   2.061
  168TCM     h1 1006   2.492   2.652   2.225
  168TCM    cl3 1007   2.264   2.704   2.173
  169TCM     c1 1008   0.825   0.020   1.447
  169TCM    cl1 1009   0.833   0.199   1.458
  169TCM    cl2 1010   0.962  -0.038   1.347
  169TCM     h1 1011   0.832  -0.023   1.547
  169TCM    cl3 1012   0.671  -0.030   1.370
  170TCM     c1 1013   3.589   2.272   4.527
  170TCM    cl1 1014   3.458   2.235   4.644
  170TCM    cl2 1015   3.640   2.120   4.446
  170TCM     h1 1016   3.552   2.343   4.452
  170TCM    cl3 1017   3.729   2.343   4.614
  171TCM     c1 1018   2.005   0.067   0.053
  171TCM    cl1 1019   2.048  -0.070  -0.053
  171TCM    cl2 1020   1.896   0.009   0.183
  171TCM     h1 1021   2.095   0.111   0.096
  171TCM    cl3 1022   1.919   0.191  -0.045
  172TCM     c1 1023   3.095   3.793   0.474
  172TCM    cl1 1024   3.051   3.658   0.366
  172TCM    cl2 1025   3.163   3.728   0.627
  172TCM     h1 1026   3.169   3.857   0.425
  172TCM    cl3 1027   2.947   3.888   0.510
  173TCM     c1 1028   4.639   1.275   0.640
  173TCM    cl1 1029   4.603   1.201   0.800
  173TCM    cl2 1030   4.596   1.449   0.644
  173TCM     h1 1031   4.746   1.264   0.618
  173TCM    cl3 1032   4.543   1.193   0.513
  174TCM     c1 1033   4.059   1.565   1.973
  174TCM    cl1 1034   4.063   1.568   1.794
  174TCM    cl2 1035   4.094   1.729   2.037
  174TCM     h1 1036   3.959   1.534   2.006
  174TCM    cl3 1037   4.181   1.449   2.034
  175TCM     c1 1038   3.838   1.499   4.959
  175TCM    cl1 1039   3.812   1.365   4.842
  175TCM    cl2 1040   3.730   1.476   5.100
  175TCM     h1 1041   3.942   1.499   4.992
  175TCM    cl3 1042   3.800   1.655   4.880
  176TCM     c1 1043   3.621   3.175   0.161
  176TCM    cl1 1044   3.579   3.309   0.050
  176TCM    cl2 1045   3.556   3.210   0.325
  176TCM     h1 1046   3.578   3.082   0.124
  176TCM    cl3 1047   3.799   3.160   0.170
  177TCM     c1 1048   1.251   0.667   3.723
  177TCM    cl1 1049   1.175   0.732   3.872
  177TCM    cl2 1050   1.355   0.793   3.650
  177TCM     h1 1051   1.311   0.579   3.747
  177TCM    cl3 1052   1.124   0.623   3.604
  178TCM     c1 1053   3.512   0.199   1.305
  178TCM    cl1 1054   3.349   0.154   1.244
  178TCM    cl2 1055   3.530   0.378   1.303
  178TCM     h1 1056   3.523   0.163   1.407
  178TCM    cl3 1057   3.636   0.125   1.200
  179TCM     c1 1058   1.206   0.352   4.102
  179TCM    cl1 1059   1.316   0.407   3.972
  179TCM    cl2 1060   1.216   0.465   4.241
  179TCM     h1 1061   1.103   0.349   4.065
  179TCM    cl3 1062   1.255   0.187   4.153
  180TCM     c1 1063   3.206   0.336   3.240
  180TCM    cl1 1064   3.232   0.503   3.182
  180TCM    cl2 1065   3.106   0.339   3.389
  180TCM     h1 1066   3.155   0.278   3.163
  180TCM    cl3 1067   3.365   0.261   3.278
  181TCM     c1 1068   1.949   0.936   4.153
  181TCM    cl1 1069   2.083   0.831   4.099
  181TCM    cl2 1070   1.918   1.060   4.027
  181TCM     h1 1071   1.859   0.876   4.167
  181TCM    cl3 1072   1.993   1.016   4.307
  182TCM     c1 1073   3.336   0.737   0.206
  182TCM    cl1 1074   3.413   0.640   0.336
  182TCM    cl2 1075   3.174   0.668   0.170
  182TCM     h1 1076   3.325   0.840   0.240
  182TCM    cl3 1077   3.437   0.731   0.058
  183TCM     c1 1078   1.544   1.947   2.577
  183TCM    cl1 1079   1.451   2.086   2.642
  183TCM    cl2 1080   1.694   1.924   2.673
  183TCM     h1 1081   1.482   1.856   2.583
  183TCM    cl3 1082   1.588   1.978   2.407
  184TCM     c1 1083   4.857   4.187   4.486
  184TCM    cl1 1084   4.923   4.121   4.333
  184TCM    cl2 1085   4.683   4.224   4.465
  184TCM     h1 1086   4.870   4.114   4.567
  184TCM    cl3 1087   4.944   4.338   4.528
  185TCM     c1 1088   0.734   0.838   2.904
  185TCM    cl1 1089   0.674   0.978   3.001
  185TCM    cl2 1090   0.720   0.877   2.729
  185TCM     h1 1091   0.838   0.819   2.929
  185TCM    cl3 1092   0.635   0.693   2.940
  186TCM     c1 1093   4.314   1.005   3.647
  186TCM    cl1 1094   4.377   0.897   3.777
  186TCM    cl2 1095   4.298   0.911   3.495
  186TCM     h1 1096   4.217   1.045   3.677
  186TCM    cl3 1097   4.430   1.139   3.621
  187TCM     c1 1098   0.082   4.624   0.413
  187TCM    cl1 1099   0.036   4.504   0.538
  187TCM    cl2 1100   0.241   4.696   0.453
  187TCM     h1 1101   0.087   4.575   0.315
  187TCM    cl3 1102  -0.042   4.754   0.409
  188TCM     c1 1103   0.625   3.250   0.175
  188TCM    cl1 1104   0.658   3.358   0.314
  188TCM    cl2 1105   0.457   3.187   0.186
  188TCM     h1 1106   0.637   3.305   0.081
  188TCM    cl3 1107   0.739   3.112   0.178
  189TCM     c1 1108   1.365   2.546   4.735
  189TCM    cl1 1109   1.259   2.480   4.607
  189TCM    cl2 1110   1.450   2.411   4.816
  189TCM     h1 1111   1.438   2.614   4.691
  189TCM    cl3 1112   1.264   2.633   4.855
  190TCM     c1 1113   0.662   3.211   0.664
  190TCM    cl1 1114   0.656   3.330   0.798
  190TCM    cl2 1115   0.607   3.051   0.725
  190TCM     h1 1116   0.597   3.243   0.583
  190TCM    cl3 1117   0.830   3.196   0.603
  191TCM     c1 1118   4.224   1.528   2.443
  191TCM    cl1 1119   4.337   1.615   2.334
  191TCM    cl2 1120   4.054   1.569   2.399
  191TCM     h1 1121   4.239   1.420   2.432
  191TCM    cl3 1122   4.256   1.575   2.613
  192TCM     c1 1123   1.880   0.582   4.434
  192TCM    cl1 1124   1.879   0.404   4.410
  192TCM    cl2 1125   1.771   0.659   4.314
  192TCM     h1 1126   1.846   0.606   4.535
  192TCM    cl3 1127   2.047   0.644   4.412
  193TCM     c1 1128   0.473   0.199   2.588
  193TCM    cl1 1129   0.483   0.107   2.742
  193TCM    cl2 1130   0.512   0.371   2.619
  193TCM     h1 1131   0.545   0.158   2.516
  193TCM    cl3 1132   0.308   0.185   2.522
  194TCM     c1 1133   1.803   4.847   4.580
  194TCM    cl1 1134   1.854   4.730   4.453
  194TCM    cl2 1135   1.803   4.764   4.739
  194TCM     h1 1136   1.873   4.931   4.582
  194TCM    cl3 1137   1.638   4.906   4.543
  195TCM     c1 1138   4.038   4.407   1.242
  195TCM    cl1 1139   4.042   4.492   1.084
  195TCM    cl2 1140   4.205   4.371   1.295
  195TCM     h1 1141   3.988   4.470   1.316
  195TCM    cl3 1142   3.948   4.253   1.225
  196TCM     c1 1143   1.029   2.436   0.471
  196TCM    cl1 1144   1.175   2.467   0.570
  196TCM    cl2 1145   1.037   2.270   0.403
  196TCM     h1 1146   0.940   2.446   0.534
  196TCM    cl3 1147   1.023   2.555   0.338
  197TCM     c1 1148   1.165   0.876   4.400
  197TCM    cl1 1149   1.054   0.739   4.429
  197TCM    cl2 1150   1.135   0.944   4.236
  197TCM     h1 1151   1.148   0.954   4.475
  197TCM    cl3 1152   1.335   0.820   4.409
  198TCM     c1 1153   1.746   1.618   0.744
  198TCM    cl1 1154   1.833   1.759   0.811
  198TCM    cl2 1155   1.815   1.467   0.813
  198TCM     h1 1156   1.640   1.625   0.770
  198TCM    cl3 1157   1.766   1.614   0.566
  199TCM     c1 1158   0.849   4.556   1.173
  199TCM    cl1 1159   0.796   4.384   1.165
  199TCM    cl2 1160   1.028   4.564   1.156
  199TCM     h1 1161   0.802   4.612   1.092
  199TCM    cl3 1162   0.802   4.625   1.331
  200TCM     c1 1163   0.062   2.585   2.565
  200TCM    cl1 1164   0.096   2.409   2.575
  200TCM    cl2 1165   0.022   2.629   2.396
  200TCM     h1 1166  -0.021   2.610   2.630
  200TCM    cl3 1167   0.208   2.677   2.614
  201TCM     c1 1168   0.687   2.230   0.258
  201TCM    cl1 1169   0.554   2.235   0.138
  201TCM    cl2 1170   0.651   2.105   0.381
  201TCM     h1 1171   0.781   2.206   0.208
  201TCM    cl3 1172   0.700   2.390   0.337
  202TCM     c1 1173   3.462   4.481   3.380
  202TCM    cl1 1174   3.611   4.566   3.325
  202TCM    cl2 1175   3.406   4.370   3.250
  202TCM     h1 1176   3.484   4.424   3.470
  202TCM    cl3 1177   3.334   4.602   3.415
  203TCM     c1 1178   2.329   0.937   2.364
  203TCM    cl1 1179   2.479   0.927   2.461
  203TCM    cl2 1180   2.317   1.101   2.291
  203TCM     h1 1181   2.331   0.861   2.284
  203TCM    cl3 1182   2.187   0.908   2.470
  204TCM     c1 1183   0.608   4.489   4.374
  204TCM    cl1 1184   0.501   4.461   4.515
  204TCM    cl2 1185   0.525   4.598   4.258
  204TCM     h1 1186   0.701   4.536   4.408
  204TCM    cl3 1187   0.645   4.332   4.295
  205TCM     c1 1188   1.960   4.789   3.607
  205TCM    cl1 1189   1.995   4.696   3.756
  205TCM    cl2 1190   2.053   4.942   3.609
  205TCM     h1 1191   1.988   4.730   3.519
  205TCM    cl3 1192   1.784   4.826   3.602
  206TCM     c1 1193   0.897   0.248   1.095
  206TCM    cl1 1194   0.721   0.213   1.098
  206TCM    cl2 1195   0.927   0.413   1.157
  206TCM     h1 1196   0.950   0.175   1.156
  206TCM    cl3 1197   0.956   0.237   0.925
  207TCM     c1 1198   2.501   3.376   0.927
  207TCM    cl1 1199   2.666   3.406   0.991
  207TCM    cl2 1200   2.509   3.362   0.749
  207TCM     h1 1201   2.462   3.283   0.969
  207TCM    cl3 1202   2.393   3.512   0.972
  208TCM     c1 1203   0.947   3.611   0.733
  208TCM    cl1 1204   0.858   3.576   0.581
  208TCM    cl2 1205   1.022   3.461   0.796
  208TCM     h1 1206   1.025   3.685   0.713
  208TCM    cl3 1207   0.832   3.676   0.855
  209TCM     c1 1208   3.753   2.115   2.152
  209TCM    cl1 1209   3.899   2.163   2.245
  209TCM    cl2 1210   3.775   1.948   2.092
  209TCM     h1 1211   3.665   2.120   2.216
  209TCM    cl3 1212   3.732   2.226   2.012
  210TCM     c1 1213   2.646   2.459   0.899
  210TCM    cl1 1214   2.535   2.465   0.758
  210TCM    cl2 1215   2.737   2.613   0.909
  210TCM     h1 1216   2.587   2.445   0.990
  210TCM    cl3 1217   2.760   2.322   0.880
  211TCM     c1 1218   2.506   3.336   3.977
  211TCM    cl1 1219   2.563   3.482   3.890
  211TCM    cl2 1220   2.486   3.201   3.860
  211TCM     h1 1221   2.580   3.308   4.053
  211TCM    cl3 1222   2.349   3.371   4.056
  212TCM     c1 1223   1.385   2.737   4.273
  212TCM    cl1 1224   1.440   2.781   4.438
  212TCM    cl2 1225   1.244   2.838   4.227
  212TCM     h1 1226   1.466   2.754   4.202
  212TCM    cl3 1227   1.336   2.565   4.270
  213TCM     c1 1228   1.742   2.829   3.235
  213TCM    cl1 1229   1.719   2.659   3.288
  213TCM    cl2 1230   1.759   2.833   3.056
  213TCM     h1 1231   1.656   2.888   3.265
  213TCM    cl3 1232   1.891   2.895   3.311
  214TCM     c1 1233   3.675   4.642   3.799
  214TCM    cl1 1234   3.547   4.545   3.720
  214TCM    cl2 1235   3.600   4.760   3.912
  214TCM     h1 1236   3.742   4.576   3.855
  214TCM    cl3 1237   3.768   4.731   3.674
  215TCM     c1 1238   0.248   3.332   0.546
  215TCM    cl1 1239   0.386   3.446   0.563
  215TCM    cl2 1240   0.310   3.166   0.518
  215TCM     h1 1241   0.188   3.334   0.636
  215TCM    cl3 1242   0.147   3.382   0.406
  216TCM     c1 1243   1.430   2.336   0.182
  216TCM    cl1 1244   1.425   2.283   0.353
  216TCM    cl2 1245   1.550   2.467   0.164
  216TCM     h1 1246   1.457   2.252   0.118
  216TCM    cl3 1247   1.268   2.397   0.133
  217TCM     c1 1248   0.272   2.037   2.836
  217TCM    cl1 1249   0.326   1.898   2.736
  217TCM    cl2 1250   0.342   2.189   2.771
  217TCM     h1 1251   0.163   2.043   2.835
  217TCM    cl3 1252   0.329   2.013   3.005
  218TCM     c1 1253   3.559   0.307   4.671
  218TCM    cl1 1254   3.558   0.375   4.505
  218TCM    cl2 1255   3.439   0.173   4.680
  218TCM     h1 1256   3.658   0.269   4.695
  218TCM    cl3 1257   3.513   0.435   4.789
  219TCM     c1 1258   1.744   2.527   1.974
  219TCM    cl1 1259   1.809   2.688   1.929
  219TCM    cl2 1260   1.801   2.405   1.856
  219TCM     h1 1261   1.778   2.500   2.074
  219TCM    cl3 1262   1.564   2.533   1.970
  220TCM     c1 1263   3.781   0.522   4.021
  220TCM    cl1 1264   3.933   0.427   4.027
  220TCM    cl2 1265   3.695   0.485   3.868
  220TCM     h1 1266   3.718   0.498   4.106
  220TCM    cl3 1267   3.821   0.697   4.023
  221TCM     c1 1268   0.277   3.809   1.311
  221TCM    cl1 1269   0.408   3.899   1.395
  221TCM    cl2 1270   0.119   3.850   1.385
  221TCM     h1 1271   0.276   3.837   1.205
  221TCM    cl3 1272   0.307   3.633   1.327
  222TCM     c1 1273   0.016   1.611   0.635
  222TCM    cl1 1274  -0.021   1.443   0.686
  222TCM    cl2 1275   0.106   1.695   0.765
  222TCM     h1 1276   0.077   1.608   0.544
  222TCM    cl3 1277  -0.137   1.699   0.603
  223TCM     c1 1278   3.485   2.566   2.841
  223TCM    cl1 1279   3.581   2.648   2.713
  223TCM    cl2 1280   3.331   2.507   2.771
  223TCM     h1 1281   3.542   2.482   2.880
  223TCM    cl3 1282   3.451   2.683   2.973
  224TCM     c1 1283   0.252   4.788   2.877
  224TCM    cl1 1284   0.184   4.637   2.808
  224TCM    cl2 1285   0.234   4.784   3.056
  224TCM     h1 1286   0.358   4.796   2.851
  224TCM    cl3 1287   0.163   4.929   2.812
  225TCM     c1 1288   0.192   4.755   2.453
  225TCM    cl1 1289   0.092   4.903   2.434
  225TCM    cl2 1290   0.352   4.799   2.522
  225TCM     h1 1291   0.141   4.685   2.520
  225TCM    cl3 1292   0.215   4.677   2.293
  226TCM     c1 1293   0.333   2.478   2.300
  226TCM    cl1 1294   0.206   2.372   2.230
  226TCM    cl2 1295   0.437   2.539   2.167
  226TCM     h1 1296   0.287   2.562   2.352
  226TCM    cl3 1297   0.433   2.383   2.415
  227TCM     c1 1298   0.321   4.044   2.941
  227TCM    cl1 1299   0.403   3.891   2.985
  227TCM    cl2 1300   0.373   4.096   2.777
  227TCM     h1 1301   0.212   4.030   2.942
  227TCM    cl3 1302   0.365   4.171   3.060
  228TCM     c1 1303   2.216   0.485   3.954
  228TCM    cl1 1304   2.079   0.470   4.069
  228TCM    cl2 1305   2.176   0.607   3.829
  228TCM     h1 1306   2.306   0.515   4.007
  228TCM    cl3 1307   2.242   0.327   3.874
  229TCM     c1 1308   1.855   1.766   2.203
  229TCM    cl1 1309   1.695   1.767   2.123
  229TCM    cl2 1310   1.840   1.689   2.364
  229TCM     h1 1311   1.926   1.710   2.142
  229TCM    cl3 1312   1.913   1.935   2.223
  230TCM     c1 1313   1.102   3.156   2.333
  230TCM    cl1 1314   1.111   3.232   2.495
  230TCM    cl2 1315   0.979   3.242   2.234
  230TCM     h1 1316   1.200   3.164   2.284
  230TCM    cl3 1317   1.056   2.984   2.349
  231TCM     c1 1318   4.641   3.813   2.943
  231TCM    cl1 1319   4.737   3.963   2.919
  231TCM    cl2 1320   4.647   3.714   2.794
  231TCM     h1 1321   4.683   3.756   3.027
  231TCM    cl3 1322   4.472   3.858   2.979
  232TCM     c1 1323   4.182   0.905   4.530
  232TCM    cl1 1324   4.337   0.959   4.603
  232TCM    cl2 1325   4.103   1.045   4.450
  232TCM     h1 1326   4.202   0.827   4.456
  232TCM    cl3 1327   4.074   0.842   4.658
  233TCM     c1 1328   0.197   2.832   4.640
  233TCM    cl1 1329   0.316   2.903   4.753
  233TCM    cl2 1330   0.063   2.949   4.618
  233TCM     h1 1331   0.244   2.812   4.544
  233TCM    cl3 1332   0.133   2.680   4.710
  234TCM     c1 1333   0.755   1.899   4.987
  234TCM    cl1 1334   0.579   1.881   5.018
  234TCM    cl2 1335   0.842   1.907   5.144
  234TCM     h1 1336   0.791   1.814   4.930
  234TCM    cl3 1337   0.785   2.050   4.895
  235TCM     c1 1338   1.839   1.876   1.718
  235TCM    cl1 1339   1.675   1.905   1.783
  235TCM    cl2 1340   1.835   1.743   1.598
  235TCM     h1 1341   1.876   1.968   1.670
  235TCM    cl3 1342   1.949   1.831   1.853
  236TCM     c1 1343   2.430   4.411   3.769
  236TCM    cl1 1344   2.258   4.434   3.812
  236TCM    cl2 1345   2.444   4.380   3.593
  236TCM     h1 1346   2.487   4.501   3.796
  236TCM    cl3 1347   2.495   4.270   3.859
  237TCM     c1 1348   3.167   0.411   1.566
  237TCM    cl1 1349   3.036   0.299   1.616
  237TCM    cl2 1350   3.163   0.432   1.388
  237TCM     h1 1351   3.153   0.508   1.615
  237TCM    cl3 1352   3.326   0.342   1.614
  238TCM     c1 1353   2.164   4.672   4.726
  238TCM    cl1 1354   2.157   4.531   4.615
  238TCM    cl2 1355   2.166   4.823   4.630
  238TCM     h1 1356   2.076   4.670   4.792
  238TCM    cl3 1357   2.313   4.663   4.825
  239TCM     c1 1358   2.611   1.745   3.160
  239TCM    cl1 1359   2.733   1.672   3.270
  239TCM    cl2 1360   2.543   1.616   3.055
  239TCM     h1 1361   2.531   1.790   3.219
  239TCM    cl3 1362   2.689   1.869   3.059
  240TCM     c1 1363   0.540   1.736   4.604
  240TCM    cl1 1364   0.401   1.630   4.646
  240TCM    cl2 1365   0.682   1.686   4.700
  240TCM     h1 1366   0.562   1.728   4.497
  240TCM    cl3 1367   0.497   1.906   4.644
  241TCM     c1 1368   2.907   0.967   2.994
  241TCM    cl1 1369   3.085   0.977   3.019
  241TCM    cl2 1370   2.856   1.087   2.870
  241TCM     h1 1371   2.881   0.867   2.960
  241TCM    cl3 1372   2.823   1.002   3.148
  242TCM     c1 1373   3.573   0.701   1.450
  242TCM    cl1 1374   3.681   0.844   1.459
  242TCM    cl2 1375   3.402   0.754   1.442
  242TCM     h1 1376   3.597   0.643   1.360
  242TCM    cl3 1377   3.597   0.598   1.595
  243TCM     c1 1378   2.025   2.633   3.526
  243TCM    cl1 1379   1.919   2.495   3.569
  243TCM    cl2 1380   2.195   2.576   3.513
  243TCM     h1 1381   1.994   2.674   3.430
  243TCM    cl3 1382   2.014   2.759   3.653
  244TCM     c1 1383   0.658   3.812   3.782
  244TCM    cl1 1384   0.776   3.798   3.917
  244TCM    cl2 1385   0.587   3.651   3.748
  244TCM     h1 1386   0.579   3.882   3.809
  244TCM    cl3 1387   0.743   3.872   3.636
  245TCM     c1 1388   0.222   4.296   4.203
  245TCM    cl1 1389   0.308   4.203   4.331
  245TCM    cl2 1390   0.337   4.343   4.074
  245TCM     h1 1391   0.142   4.236   4.162
  245TCM    cl3 1392   0.155   4.446   4.276
  246TCM     c1 1393   3.440   1.856   0.824
  246TCM    cl1 1394   3.434   2.021   0.753
  246TCM    cl2 1395   3.427   1.867   1.002
  246TCM     h1 1396   3.357   1.796   0.784
  246TCM    cl3 1397   3.595   1.778   0.780
  247TCM     c1 1398   3.179   4.335   3.798
  247TCM    cl1 1399   3.059   4.210   3.844
  247TCM    cl2 1400   3.249   4.296   3.638
  247TCM     h1 1401   3.131   4.433   3.795
  247TCM    cl3 1402   3.311   4.338   3.921
  248TCM     c1 1403   1.824   4.888   3.173
  248TCM    cl1 1404   1.849   4.725   3.244
  248TCM    cl2 1405   1.935   4.909   3.034
  248TCM     h1 1406   1.721   4.897   3.139
  248TCM    cl3 1407   1.858   5.012   3.297
  249TCM     c1 1408   2.572   0.362   2.519
  249TCM    cl1 1409   2.513   0.305   2.679
  249TCM    cl2 1410   2.519   0.532   2.494
  249TCM     h1 1411   2.681   0.357   2.516
  249TCM    cl3 1412   2.502   0.260   2.389
  250TCM     c1 1413   2.979   2.010   4.049
  250TCM    cl1 1414   3.029   2.014   4.222
  250TCM    cl2 1415   3.116   1.954   3.949
  250TCM     h1 1416   2.894   1.942   4.037
  250TCM    cl3 1417   2.932   2.176   3.998
  251TCM     c1 1418   2.867   2.381   0.246
  251TCM    cl1 1419   2.852   2.508   0.120
  251TCM    cl2 1420   3.040   2.354   0.283
  251TCM     h1 1421   2.815   2.414   0.337
  251TCM    cl3 1422   2.793   2.229   0.187
  252TCM     c1 1423   1.411   0.476   4.769
  252TCM    cl1 1424   1.311   0.595   4.680
  252TCM    cl2 1425   1.311   0.394   4.893
  252TCM     h1 1426   1.450   0.402   4.698
  252TCM    cl3 1427   1.548   0.560   4.849
  253TCM     c1 1428   0.886   1.586   1.763
  253TCM    cl1 1429   0.709   1.612   1.783
  253TCM    cl2 1430   0.955   1.528   1.918
  253TCM     h1 1431   0.903   1.512   1.685
  253TCM    cl3 1432   0.964   1.741   1.717
  254TCM     c1 1433   4.827   2.984   0.325
  254TCM    cl1 1434   4.840   2.806   0.335
  254TCM    cl2 1435   4.933   3.058   0.449
  254TCM     h1 1436   4.857   3.018   0.226
  254TCM    cl3 1437   4.657   3.035   0.354
  255TCM     c1 1438   0.602   1.659   4.027
  255TCM    cl1 1439   0.605   1.717   4.196
  255TCM    cl2 1440   0.613   1.799   3.914
  255TCM     h1 1441   0.687   1.593   4.010
  255TCM    cl3 1442   0.449   1.571   3.996
  256TCM     c1 1443   1.837   2.122   0.648
  256TCM    cl1 1444   1.881   2.010   0.515
  256TCM    cl2 1445   1.683   2.204   0.609
  256TCM     h1 1446   1.826   2.066   0.741
  256TCM    cl3 1447   1.967   2.245   0.666
  257TCM     c1 1448   3.539   4.798   0.067
  257TCM    cl1 1449   3.391   4.899   0.049
  257TCM    cl2 1450   3.507   4.633   0.003
  257TCM     h1 1451   3.622   4.843   0.012
  257TCM    cl3 1452   3.582   4.785   0.241
  258TCM     c1 1453   3.195   3.865   3.496
  258TCM    cl1 1454   3.061   3.954   3.575
  258TCM    cl2 1455   3.218   3.708   3.578
  258TCM     h1 1456   3.171   3.849   3.391
  258TCM    cl3 1457   3.346   3.962   3.508
  259TCM     c1 1458   2.686   4.414   3.030
  259TCM    cl1 1459   2.585   4.534   2.944
  259TCM    cl2 1460   2.592   4.343   3.165
  259TCM     h1 1461   2.716   4.335   2.961
  259TCM    cl3 1462   2.832   4.494   3.097
  260TCM     c1 1463   3.286   1.110   2.594
  260TCM    cl1 1464   3.161   1.201   2.684
  260TCM    cl2 1465   3.316   0.954   2.677
  260TCM     h1 1466   3.252   1.091   2.492
  260TCM    cl3 1467   3.438   1.206   2.591
  261TCM     c1 1468   4.480   1.964   4.819
  261TCM    cl1 1469   4.481   1.841   4.950
  261TCM    cl2 1470   4.329   1.947   4.724
  261TCM     h1 1471   4.485   2.064   4.863
  261TCM    cl3 1472   4.621   1.938   4.712
  262TCM     c1 1473   2.768   2.053   0.519
  262TCM    cl1 1474   2.943   2.084   0.545
  262TCM    cl2 1475   2.679   2.209   0.532
  262TCM     h1 1476   2.753   2.010   0.420
  262TCM    cl3 1477   2.708   1.941   0.645
  263TCM     c1 1478   4.685   4.652   0.850
  263TCM    cl1 1479   4.793   4.555   0.955
  263TCM    cl2 1480   4.559   4.732   0.951
  263TCM     h1 1481   4.743   4.728   0.798
  263TCM    cl3 1482   4.604   4.545   0.731
  264TCM     c1 1483   4.369   0.610   3.293
  264TCM    cl1 1484   4.318   0.439   3.312
  264TCM    cl2 1485   4.249   0.697   3.193
  264TCM     h1 1486   4.376   0.657   3.392
  264TCM    cl3 1487   4.529   0.616   3.212
  265TCM     c1 1488   3.220   2.044   0.328
  265TCM    cl1 1489   3.356   2.109   0.230
  265TCM    cl2 1490   3.278   1.907   0.428
  265TCM     h1 1491   3.182   2.123   0.394
  265TCM    cl3 1492   3.089   1.989   0.219
  266TCM     c1 1493   1.844   0.205   2.857
  266TCM    cl1 1494   1.761   0.251   3.009
  266TCM    cl2 1495   1.888   0.353   2.766
  266TCM     h1 1496   1.934   0.148   2.880
  266TCM    cl3 1497   1.734   0.104   2.757
  267TCM     c1 1498   1.150   4.559   4.950
  267TCM    cl1 1499   1.281   4.678   4.922
  267TCM    cl2 1500   1.124   4.542   5.126
  267TCM     h1 1501   1.058   4.592   4.901
  267TCM    cl3 1502   1.200   4.401   4.881
  268TCM     c1 1503   4.993   0.143   4.375
  268TCM    cl1 1504   4.902   0.004   4.308
  268TCM    cl2 1505   5.127   0.083   4.477
  268TCM     h1 1506   5.034   0.202   4.292
  268TCM    cl3 1507   4.884   0.247   4.472
  269TCM     c1 1508   4.323   4.743   0.153
  269TCM    cl1 1509   4.149   4.787   0.151
  269TCM    cl2 1510   4.393   4.785   0.313
  269TCM     h1 1511   4.333   4.636   0.135
  269TCM    cl3 1512   4.409   4.835   0.025
  270TCM     c1 1513   0.301   2.345   3.856
  270TCM    cl1 1514   0.371   2.510   3.856
  270TCM    cl2 1515   0.257   2.299   4.024
  270TCM     h1 1516   0.212   2.342   3.792
  270TCM    cl3 1517   0.424   2.230   3.792
  271TCM     c1 1518   3.805   1.220   1.739
  271TCM    cl1 1519   3.896   1.283   1.599
  271TCM    cl2 1520   3.723   1.356   1.823
  271TCM     h1 1521   3.730   1.148   1.705
  271TCM    cl3 1522   3.918   1.142   1.854
  272TCM     c1 1523   1.422   4.815   0.289
  272TCM    cl1 1524   1.565   4.902   0.354
  272TCM    cl2 1525   1.286   4.828   0.406
  272TCM     h1 1526   1.393   4.861   0.194
  272TCM    cl3 1527   1.463   4.642   0.263
  273TCM     c1 1528   3.305   0.851   3.885
  273TCM    cl1 1529   3.288   0.870   3.708
  273TCM    cl2 1530   3.450   0.753   3.921
  273TCM     h1 1531   3.315   0.950   3.932
  273TCM    cl3 1532   3.160   0.768   3.951
  274TCM     c1 1533   4.408   3.462   3.214
  274TCM    cl1 1534   4.560   3.505   3.129
  274TCM    cl2 1535   4.338   3.315   3.139
  274TCM     h1 1536   4.429   3.443   3.320
  274TCM    cl3 1537   4.291   3.597   3.200
  275TCM     c1 1538   1.237   0.781   0.501
  275TCM    cl1 1539   1.344   0.847   0.373
  275TCM    cl2 1540   1.198   0.610   0.462
  275TCM     h1 1541   1.286   0.786   0.598
  275TCM    cl3 1542   1.086   0.879   0.506
  276TCM     c1 1543   1.208   1.852   1.168
  276TCM    cl1 1544   1.338   1.731   1.145
  276TCM    cl2 1545   1.107   1.859   1.020
  276TCM     h1 1546   1.146   1.824   1.253
  276TCM    cl3 1547   1.281   2.013   1.197
  277TCM     c1 1548   3.280   2.913   2.529
  277TCM    cl1 1549   3.392   3.049   2.498
  277TCM    cl2 1550   3.263   2.889   2.706
  277TCM     h1 1551   3.182   2.935   2.486
  277TCM    cl3 1552   3.346   2.764   2.455
  278TCM     c1 1553   3.066   3.435   2.690
  278TCM    cl1 1554   3.081   3.540   2.835
  278TCM    cl2 1555   2.893   3.398   2.661
  278TCM     h1 1556   3.108   3.486   2.603
  278TCM    cl3 1557   3.156   3.281   2.718
  279TCM     c1 1558   1.167   1.137   0.204
  279TCM    cl1 1559   1.126   1.285   0.296
  279TCM    cl2 1560   1.338   1.148   0.149
  279TCM     h1 1561   1.155   1.049   0.268
  279TCM    cl3 1562   1.059   1.123   0.061
  280TCM     c1 1563   2.795   0.239   0.744
  280TCM    cl1 1564   2.727   0.228   0.910
  280TCM    cl2 1565   2.971   0.209   0.747
  280TCM     h1 1566   2.746   0.165   0.680
  280TCM    cl3 1567   2.764   0.404   0.679
  281TCM     c1 1568   1.906   3.537   0.810
  281TCM    cl1 1569   1.813   3.690   0.790
  281TCM    cl2 1570   1.793   3.400   0.837
  281TCM     h1 1571   1.965   3.519   0.720
  281TCM    cl3 1572   2.015   3.553   0.952
  282TCM     c1 1573   2.764   3.665   1.815
  282TCM    cl1 1574   2.790   3.801   1.701
  282TCM    cl2 1575   2.675   3.723   1.960
  282TCM     h1 1576   2.707   3.586   1.766
  282TCM    cl3 1577   2.924   3.600   1.867
  283TCM     c1 1578   4.320   0.358   4.025
  283TCM    cl1 1579   4.421   0.227   3.955
  283TCM    cl2 1580   4.422   0.503   4.049
  283TCM     h1 1581   4.237   0.381   3.956
  283TCM    cl3 1582   4.254   0.305   4.183
  284TCM     c1 1583   4.750   2.781   4.551
  284TCM    cl1 1584   4.834   2.652   4.459
  284TCM    cl2 1585   4.776   2.757   4.727
  284TCM     h1 1586   4.791   2.879   4.522
  284TCM    cl3 1587   4.575   2.776   4.515
  285TCM     c1 1588   0.677   4.529   2.139
  285TCM    cl1 1589   0.811   4.618   2.059
  285TCM    cl2 1590   0.586   4.641   2.246
  285TCM     h1 1591   0.609   4.489   2.063
  285TCM    cl3 1592   0.746   4.396   2.237
  286TCM     c1 1593   0.152   0.343   4.984
  286TCM    cl1 1594   0.032   0.313   5.114
  286TCM    cl2 1595   0.090   0.276   4.830
  286TCM     h1 1596   0.169   0.451   4.974
  286TCM    cl3 1597   0.306   0.261   5.025
  287TCM     c1 1598   4.561   0.422   3.669
  287TCM    cl1 1599   4.635   0.380   3.511
  287TCM    cl2 1600   4.457   0.566   3.649
  287TCM     h1 1601   4.501   0.337   3.704
  287TCM    cl3 1602   4.691   0.457   3.788
  288TCM     c1 1603   3.478   0.135   4.136
  288TCM    cl1 1604   3.376   0.099   4.279
  288TCM    cl2 1605   3.504   0.312   4.125
  288TCM     h1 1606   3.574   0.084   4.146
  288TCM    cl3 1607   3.396   0.079   3.986
  289TCM     c1 1608   1.413   1.697   1.598
  289TCM    cl1 1609   1.451   1.834   1.488
  289TCM    cl2 1610   1.301   1.584   1.516
  289TCM     h1 1611   1.506   1.645   1.624
  289TCM    cl3 1612   1.336   1.760   1.747
  290TCM     c1 1613   0.465   0.221   1.688
  290TCM    cl1 1614   0.311   0.141   1.736
  290TCM    cl2 1615   0.464   0.248   1.510
  290TCM     h1 1616   0.474   0.317   1.739
  290TCM    cl3 1617   0.603   0.116   1.732
  291TCM     c1 1618   3.253   1.554   2.725
  291TCM    cl1 1619   3.259   1.535   2.546
  291TCM    cl2 1620   3.206   1.722   2.764
  291TCM     h1 1621   3.180   1.484   2.766
  291TCM    cl3 1622   3.415   1.519   2.794
  292TCM     c1 1623   3.477   0.217   0.488
  292TCM    cl1 1624   3.598   0.331   0.421
  292TCM    cl2 1625   3.430   0.099   0.361
  292TCM     h1 1626   3.519   0.164   0.573
  292TCM    cl3 1627   3.332   0.309   0.540
  293TCM     c1 1628   0.603   1.328   2.144
  293TCM    cl1 1629   0.597   1.318   1.965
  293TCM    cl2 1630   0.506   1.469   2.200
  293TCM     h1 1631   0.561   1.236   2.187
  293TCM    cl3 1632   0.773   1.347   2.197
  294TCM     c1 1633   2.691   3.769   1.323
  294TCM    cl1 1634   2.648   3.748   1.150
  294TCM    cl2 1635   2.653   3.617   1.411
  294TCM     h1 1636   2.797   3.791   1.332
  294TCM    cl3 1637   2.595   3.904   1.390
  295TCM     c1 1638   2.223   2.595   4.280
  295TCM    cl1 1639   2.213   2.416   4.263
  295TCM    cl2 1640   2.328   2.636   4.419
  295TCM     h1 1641   2.264   2.638   4.188
  295TCM    cl3 1642   2.058   2.660   4.309
  296TCM     c1 1643   0.483   2.369   0.705
  296TCM    cl1 1644   0.652   2.312   0.678
  296TCM    cl2 1645   0.399   2.382   0.547
  296TCM     h1 1646   0.431   2.297   0.769
  296TCM    cl3 1647   0.487   2.529   0.785
  297TCM     c1 1648   2.620   0.267   1.427
  297TCM    cl1 1649   2.682   0.136   1.533
  297TCM    cl2 1650   2.497   0.361   1.517
  297TCM     h1 1651   2.703   0.333   1.398
  297TCM    cl3 1652   2.546   0.198   1.280
  298TCM     c1 1653   2.415   3.570   4.966
  298TCM    cl1 1654   2.496   3.516   4.815
  298TCM    cl2 1655   2.329   3.432   5.041
  298TCM     h1 1656   2.490   3.608   5.036
  298TCM    cl3 1657   2.298   3.701   4.927
  299TCM     c1 1658   0.245   3.280   4.687
  299TCM    cl1 1659   0.296   3.257   4.857
  299TCM    cl2 1660   0.378   3.233   4.577
  299TCM     h1 1661   0.157   3.218   4.667
  299TCM    cl3 1662   0.203   3.452   4.661
  300TCM     c1 1663   3.817   1.832   1.678
  300TCM    cl1 1664   3.739   1.728   1.802
  300TCM    cl2 1665   3.909   1.962   1.759
  300TCM     h1 1666   3.884   1.772   1.616
  300TCM    cl3 1667   3.689   1.905   1.576
  301TCM     c1 1668   2.151   2.883   2.574
  301TCM    cl1 1669   2.083   2.944   2.420
  301TCM    cl2 1670   2.183   2.707   2.558
  301TCM     h1 1671   2.244   2.935   2.596
  301TCM    cl3 1672   2.033   2.911   2.706
  302TCM     c1 1673   4.581   2.710   0.628
  302TCM    cl1 1674   4.492   2.739   0.475
  302TCM    cl2 1675   4.667   2.859   0.678
  302TCM     h1 1676   4.510   2.681   0.706
  302TCM    cl3 1677   4.699   2.578   0.603
  303TCM     c1 1678   0.375   4.360   1.415
  303TCM    cl1 1679   0.501   4.281   1.515
  303TCM    cl2 1680   0.300   4.238   1.306
  303TCM     h1 1681   0.298   4.403   1.479
  303TCM    cl3 1682   0.451   4.490   1.317
  304TCM     c1 1683   2.932   1.639   3.573
  304TCM    cl1 1684   2.955   1.489   3.476
  304TCM    cl2 1685   3.060   1.651   3.697
  304TCM     h1 1686   2.937   1.726   3.507
  304TCM    cl3 1687   2.771   1.634   3.653
  305TCM     c1 1688   1.032   3.707   2.248
  305TCM    cl1 1689   1.013   3.624   2.090
  305TCM    cl2 1690   1.174   3.817   2.240
  305TCM     h1 1691   0.942   3.765   2.270
  305TCM    cl3 1692   1.060   3.585   2.376
  306TCM     c1 1693   2.959   4.019   2.115
  306TCM    cl1 1694   2.863   4.031   1.965
  306TCM    cl2 1695   3.059   3.870   2.111
  306TCM     h1 1696   3.024   4.106   2.124
  306TCM    cl3 1697   2.849   4.012   2.257
  307TCM     c1 1698   1.410   2.823   2.111
  307TCM    cl1 1699   1.574   2.855   2.175
  307TCM    cl2 1700   1.322   2.979   2.094
  307TCM     h1 1701   1.417   2.775   2.013
  307TCM    cl3 1702   1.322   2.716   2.224
  308TCM     c1 1703   4.659   0.095   0.081
  308TCM    cl1 1704   4.767   0.104  -0.062
  308TCM    cl2 1705   4.666   0.250   0.170
  308TCM     h1 1706   4.556   0.076   0.047
  308TCM    cl3 1707   4.713  -0.039   0.188
  309TCM     c1 1708   4.045   4.527   2.699
  309TCM    cl1 1709   4.112   4.657   2.802
  309TCM    cl2 1710   3.885   4.579   2.635
  309TCM     h1 1711   4.113   4.507   2.616
  309TCM    cl3 1712   4.024   4.377   2.797
  310TCM     c1 1713   1.402   0.128   3.147
  310TCM    cl1 1714   1.349   0.282   3.070
  310TCM    cl2 1715   1.518   0.166   3.278
  310TCM     h1 1716   1.315   0.077   3.189
  310TCM    cl3 1717   1.482   0.023   3.026
  311TCM     c1 1718   3.504   0.020   3.520
  311TCM    cl1 1719   3.661   0.073   3.588
  311TCM    cl2 1720   3.420  -0.086   3.638
  311TCM     h1 1721   3.441   0.107   3.499
  311TCM    cl3 1722   3.533  -0.071   3.368
  312TCM     c1 1723   3.447   1.923   4.904
  312TCM    cl1 1724   3.501   1.850   4.749
  312TCM    cl2 1725   3.488   1.812   5.040
  312TCM     h1 1726   3.497   2.019   4.919
  312TCM    cl3 1727   3.270   1.948   4.898
  313TCM     c1 1728   4.452   4.154   2.751
  313TCM    cl1 1729   4.610   4.223   2.700
  313TCM    cl2 1730   4.327   4.196   2.630
  313TCM     h1 1731   4.460   4.045   2.760
  313TCM    cl3 1732   4.405   4.223   2.910
  314TCM     c1 1733   4.755   3.005   2.336
  314TCM    cl1 1734   4.931   2.971   2.342
  314TCM    cl2 1735   4.711   3.115   2.471
  314TCM     h1 1736   4.731   3.053   2.241
  314TCM    cl3 1737   4.663   2.852   2.351
  315TCM     c1 1738   1.205   2.195   0.887
  315TCM    cl1 1739   1.155   2.318   1.007
  315TCM    cl2 1740   1.352   2.252   0.801
  315TCM     h1 1741   1.228   2.101   0.939
  315TCM    cl3 1742   1.072   2.168   0.770
  316TCM     c1 1743   1.019   1.856   4.032
  316TCM    cl1 1744   0.966   1.684   4.032
  316TCM    cl2 1745   1.155   1.876   4.148
  316TCM     h1 1746   1.052   1.884   3.932
  316TCM    cl3 1747   0.883   1.960   4.083
  317TCM     c1 1748   4.097   3.572   1.316
  317TCM    cl1 1749   4.124   3.707   1.201
  317TCM    cl2 1750   3.922   3.529   1.318
  317TCM     h1 1751   4.155   3.485   1.284
  317TCM    cl3 1752   4.149   3.621   1.480
  318TCM     c1 1753   0.474   4.969   2.042
  318TCM    cl1 1754   0.652   4.954   2.059
  318TCM    cl2 1755   0.400   4.991   2.204
  318TCM     h1 1756   0.451   5.056   1.980
  318TCM    cl3 1757   0.409   4.821   1.966
  319TCM     c1 1758   1.104   2.224   1.884
  319TCM    cl1 1759   1.254   2.294   1.815
  319TCM    cl2 1760   1.093   2.269   2.057
  319TCM     h1 1761   1.017   2.264   1.830
  319TCM    cl3 1762   1.109   2.046   1.868
  320TCM     c1 1763   0.622   2.193   4.213
  320TCM    cl1 1764   0.566   2.274   4.363
  320TCM    cl2 1765   0.636   2.313   4.081
  320TCM     h1 1766   0.720   2.147   4.231
  320TCM    cl3 1767   0.504   2.066   4.167
  321TCM     c1 1768   1.128   0.682   0.039
  321TCM    cl1 1769   1.026   0.647  -0.105
  321TCM    cl2 1770   1.026   0.756   0.166
  321TCM     h1 1771   1.172   0.589   0.076
  321TCM    cl3 1772   1.258   0.797  -0.007
  322TCM     c1 1773   3.399   2.837   0.722
  322TCM    cl1 1774   3.350   2.794   0.889
  322TCM    cl2 1775   3.302   2.976   0.663
  322TCM     h1 1776   3.505   2.864   0.721
  322TCM    cl3 1777   3.373   2.695   0.615
  323TCM     c1 1778   3.449   4.804   2.899
  323TCM    cl1 1779   3.503   4.945   2.995
  323TCM    cl2 1780   3.290   4.840   2.824
  323TCM     h1 1781   3.522   4.782   2.821
  323TCM    cl3 1782   3.432   4.662   3.008
  324TCM     c1 1783   4.758   3.141   4.799
  324TCM    cl1 1784   4.697   3.127   4.631
  324TCM    cl2 1785   4.639   3.233   4.898
  324TCM     h1 1786   4.771   3.042   4.842
  324TCM    cl3 1787   4.914   3.229   4.799
  325TCM     c1 1788   4.426   2.853   2.644
  325TCM    cl1 1789   4.484   2.996   2.736
  325TCM    cl2 1790   4.247   2.857   2.635
  325TCM     h1 1791   4.468   2.855   2.543
  325TCM    cl3 1792   4.478   2.703   2.728
  326TCM     c1 1793   2.017   4.388   3.440
  326TCM    cl1 1794   2.067   4.250   3.543
  326TCM    cl2 1795   2.144   4.514   3.445
  326TCM     h1 1796   2.003   4.353   3.337
  326TCM    cl3 1797   1.863   4.456   3.502
  327TCM     c1 1798   3.223   2.302   0.802
  327TCM    cl1 1799   3.173   2.460   0.870
  327TCM    cl2 1800   3.224   2.311   0.623
  327TCM     h1 1801   3.324   2.277   0.837
  327TCM    cl3 1802   3.108   2.176   0.856
  328TCM     c1 1803   2.158   1.837   2.700
  328TCM    cl1 1804   2.044   1.855   2.838
  328TCM    cl2 1805   2.314   1.915   2.741
  328TCM     h1 1806   2.175   1.731   2.679
  328TCM    cl3 1807   2.087   1.915   2.554
  329TCM     c1 1808   2.883   2.691   3.323
  329TCM    cl1 1809   2.817   2.847   3.264
  329TCM    cl2 1810   2.803   2.555   3.238
  329TCM     h1 1811   2.990   2.687   3.304
  329TCM    cl3 1812   2.852   2.678   3.500
  330TCM     c1 1813   4.966   1.780   1.575
  330TCM    cl1 1814   4.861   1.765   1.430
  330TCM    cl2 1815   5.023   1.617   1.624
  330TCM     h1 1816   5.052   1.843   1.551
  330TCM    cl3 1817   4.872   1.854   1.708
  331TCM     c1 1818   1.529   1.119   3.587
  331TCM    cl1 1819   1.383   1.170   3.679
  331TCM    cl2 1820   1.677   1.181   3.669
  331TCM     h1 1821   1.534   1.010   3.582
  331TCM    cl3 1822   1.521   1.187   3.421
  332TCM     c1 1823   3.262   4.289   2.122
  332TCM    cl1 1824   3.226   4.211   2.279
  332TCM    cl2 1825   3.136   4.411   2.086
  332TCM     h1 1826   3.360   4.336   2.125
  332TCM    cl3 1827   3.262   4.164   1.993
  333TCM     c1 1828   1.966   3.620   0.350
  333TCM    cl1 1829   2.138   3.614   0.300
  333TCM    cl2 1830   1.939   3.765   0.453
  333TCM     h1 1831   1.902   3.626   0.261
  333TCM    cl3 1832   1.926   3.472   0.444
  334TCM     c1 1833   4.645   1.887   2.720
  334TCM    cl1 1834   4.762   1.995   2.637
  334TCM    cl2 1835   4.493   1.879   2.625
  334TCM     h1 1836   4.687   1.787   2.729
  334TCM    cl3 1837   4.610   1.952   2.883
  335TCM     c1 1838   2.230   3.791   1.151
  335TCM    cl1 1839   2.308   3.696   1.281
  335TCM    cl2 1840   2.318   3.946   1.132
  335TCM     h1 1841   2.232   3.735   1.057
  335TCM    cl3 1842   2.060   3.825   1.198
  336TCM     c1 1843   0.833   4.868   4.638
  336TCM    cl1 1844   0.970   4.787   4.722
  336TCM    cl2 1845   0.686   4.856   4.740
  336TCM     h1 1846   0.858   4.973   4.620
  336TCM    cl3 1847   0.802   4.785   4.482
  337TCM     c1 1848   3.388   3.376   3.508
  337TCM    cl1 1849   3.272   3.296   3.619
  337TCM    cl2 1850   3.346   3.336   3.338
  337TCM     h1 1851   3.384   3.485   3.522
  337TCM    cl3 1852   3.554   3.317   3.543
  338TCM     c1 1853   3.369   3.930   1.235
  338TCM    cl1 1854   3.435   3.790   1.145
  338TCM    cl2 1855   3.504   4.033   1.294
  338TCM     h1 1856   3.304   3.989   1.169
  338TCM    cl3 1857   3.275   3.872   1.375
  339TCM     c1 1858   2.623   1.229   3.536
  339TCM    cl1 1859   2.693   1.292   3.689
  339TCM    cl2 1860   2.600   1.364   3.420
  339TCM     h1 1861   2.691   1.155   3.493
  339TCM    cl3 1862   2.465   1.153   3.571
  340TCM     c1 1863   2.030   3.420   4.613
  340TCM    cl1 1864   1.892   3.308   4.629
  340TCM    cl2 1865   2.162   3.367   4.722
  340TCM     h1 1866   2.066   3.420   4.510
  340TCM    cl3 1867   1.978   3.585   4.660
  341TCM     c1 1868   4.116   3.857   3.008
  341TCM    cl1 1869   4.148   3.934   2.849
  341TCM    cl2 1870   3.942   3.813   3.018
  341TCM     h1 1871   4.177   3.767   3.018
  341TCM    cl3 1872   4.157   3.973   3.139
  342TCM     c1 1873   2.375   0.477   4.579
  342TCM    cl1 1874   2.536   0.422   4.634
  342TCM    cl2 1875   2.374   0.482   4.400
  342TCM     h1 1876   2.298   0.408   4.615
  342TCM    cl3 1877   2.344   0.641   4.644
  343TCM     c1 1878   2.883   1.328   0.007
  343TCM    cl1 1879   2.794   1.176  -0.027
  343TCM    cl2 1880   2.857   1.376   0.178
  343TCM     h1 1881   2.990   1.312  -0.011
  343TCM    cl3 1882   2.823   1.458  -0.100
  344TCM     c1 1883   0.404   0.645   3.872
  344TCM    cl1 1884   0.252   0.688   3.956
  344TCM    cl2 1885   0.367   0.551   3.724
  344TCM     h1 1886   0.459   0.736   3.845
  344TCM    cl3 1887   0.506   0.544   3.981
  345TCM     c1 1888   3.235   0.813   1.881
  345TCM    cl1 1889   3.242   0.951   1.766
  345TCM    cl2 1890   3.341   0.847   2.021
  345TCM     h1 1891   3.133   0.799   1.915
  345TCM    cl3 1892   3.292   0.664   1.799
  346TCM     c1 1893   2.918   4.961   2.565
  346TCM    cl1 1894   3.044   5.057   2.649
  346TCM    cl2 1895   2.979   4.913   2.403
  346TCM     h1 1896   2.896   4.871   2.623
  346TCM    cl3 1897   2.770   5.060   2.546
  347TCM     c1 1898   2.595   4.338   2.140
  347TCM    cl1 1899   2.576   4.390   2.311
  347TCM    cl2 1900   2.536   4.169   2.122
  347TCM     h1 1901   2.537   4.403   2.075
  347TCM    cl3 1902   2.768   4.345   2.094
  348TCM     c1 1903   0.725   0.895   2.256
  348TCM    cl1 1904   0.871   0.828   2.178
  348TCM    cl2 1905   0.622   0.972   2.131
  348TCM     h1 1906   0.670   0.815   2.306
  348TCM    cl3 1907   0.774   1.019   2.377
  349TCM     c1 1908   2.248   4.392   3.071
  349TCM    cl1 1909   2.097   4.488   3.080
  349TCM    cl2 1910   2.272   4.331   2.904
  349TCM     h1 1911   2.334   4.454   3.099
  349TCM    cl3 1912   2.236   4.253   3.184
  350TCM     c1 1913   3.948   1.950   4.672
  350TCM    cl1 1914   4.015   2.085   4.574
  350TCM    cl2 1915   3.861   1.835   4.565
  350TCM     h1 1916   4.029   1.898   4.724
  350TCM    cl3 1917   3.833   2.017   4.793
  351TCM     c1 1918   4.776   0.566   0.027
  351TCM    cl1 1919   4.623   0.658   0.035
  351TCM    cl2 1920   4.915   0.680   0.036
  351TCM     h1 1921   4.781   0.496   0.111
  351TCM    cl3 1922   4.784   0.476  -0.128
  352TCM     c1 1923   3.374   3.574   0.183
  352TCM    cl1 1924   3.238   3.464   0.143
  352TCM    cl2 1925   3.410   3.562   0.359
  352TCM     h1 1926   3.463   3.545   0.126
  352TCM    cl3 1927   3.330   3.742   0.142
  353TCM     c1 1928   1.898   2.222   2.525
  353TCM    cl1 1929   1.940   2.294   2.366
  353TCM    cl2 1930   1.738   2.283   2.578
  353TCM     h1 1931   1.895   2.113   2.516
  353TCM    cl3 1932   2.022   2.270   2.646
  354TCM     c1 1933   1.961   4.100   1.433
  354TCM    cl1 1934   1.791   4.108   1.376
  354TCM    cl2 1935   1.980   4.197   1.583
  354TCM     h1 1936   1.988   3.996   1.453
  354TCM    cl3 1937   2.069   4.167   1.306
  355TCM     c1 1938   4.083   3.741   1.832
  355TCM    cl1 1939   4.160   3.584   1.871
  355TCM    cl2 1940   4.206   3.853   1.765
  355TCM     h1 1941   4.004   3.725   1.758
  355TCM    cl3 1942   4.012   3.811   1.981
  356TCM     c1 1943   2.386   4.629   0.520
  356TCM    cl1 1944   2.257   4.510   0.554
  356TCM    cl2 1945   2.544   4.562   0.575
  356TCM     h1 1946   2.390   4.648   0.413
  356TCM    cl3 1947   2.352   4.783   0.605
  357TCM     c1 1948   2.484   2.325   4.546
  357TCM    cl1 1949   2.373   2.187   4.574
  357TCM    cl2 1950   2.554   2.313   4.382
  357TCM     h1 1951   2.429   2.419   4.556
  357TCM    cl3 1952   2.615   2.321   4.669
  358TCM     c1 1953   1.585   3.127   2.506
  358TCM    cl1 1954   1.723   3.020   2.468
  358TCM    cl2 1955   1.586   3.164   2.682
  358TCM     h1 1956   1.593   3.219   2.449
  358TCM    cl3 1957   1.432   3.043   2.463
  359TCM     c1 1958   0.600   4.083   4.743
  359TCM    cl1 1959   0.698   3.962   4.833
  359TCM    cl2 1960   0.540   4.008   4.591
  359TCM     h1 1961   0.516   4.116   4.804
  359TCM    cl3 1962   0.704   4.224   4.703
  360TCM     c1 1963   0.203   2.259   1.584
  360TCM    cl1 1964   0.093   2.394   1.541
  360TCM    cl2 1965   0.276   2.192   1.435
  360TCM     h1 1966   0.281   2.295   1.650
  360TCM    cl3 1967   0.109   2.130   1.667
  361TCM     c1 1968   4.247   0.816   4.109
  361TCM    cl1 1969   4.134   0.943   4.053
  361TCM    cl2 1970   4.154   0.694   4.202
  361TCM     h1 1971   4.295   0.769   4.023
  361TCM    cl3 1972   4.373   0.889   4.215
  362TCM     c1 1973   3.559   1.155   0.149
  362TCM    cl1 1974   3.708   1.055   0.163
  362TCM    cl2 1975   3.432   1.087   0.256
  362TCM     h1 1976   3.581   1.257   0.179
  362TCM    cl3 1977   3.503   1.152  -0.022
  363TCM     c1 1978   2.013   1.494   3.572
  363TCM    cl1 1979   2.035   1.672   3.577
  363TCM    cl2 1980   1.932   1.446   3.420
  363TCM     h1 1981   2.111   1.445   3.579
  363TCM    cl3 1982   1.912   1.445   3.712
  364TCM     c1 1983   0.201   1.703   1.970
  364TCM    cl1 1984   0.026   1.681   2.004
  364TCM    cl2 1985   0.220   1.829   1.844
  364TCM     h1 1986   0.253   1.734   2.061
  364TCM    cl3 1987   0.271   1.549   1.910
  365TCM     c1 1988   1.596   0.654   3.377
  365TCM    cl1 1989   1.458   0.539   3.372
  365TCM    cl2 1990   1.536   0.820   3.343
  365TCM     h1 1991   1.642   0.651   3.476
  365TCM    cl3 1992   1.717   0.608   3.253
  366TCM     c1 1993   2.135   4.195   0.957
  366TCM    cl1 1994   2.254   4.182   0.823
  366TCM    cl2 1995   1.999   4.082   0.929
  366TCM     h1 1996   2.184   4.170   1.052
  366TCM    cl3 1997   2.073   4.363   0.966
  367TCM     c1 1998   3.189   1.710   4.385
  367TCM    cl1 1999   3.086   1.588   4.468
  367TCM    cl2 2000   3.192   1.675   4.209
  367TCM     h1 2001   3.149   1.810   4.402
  367TCM    cl3 2002   3.356   1.699   4.451
  368TCM     c1 2003   2.121   3.735   4.216
  368TCM    cl1 2004   2.046   3.593   4.296
  368TCM    cl2 2005   2.009   3.875   4.224
  368TCM     h1 2006   2.214   3.761   4.268
  368TCM    cl3 2007   2.158   3.696   4.045
  369TCM     c1 2008   3.083   0.896   4.892
  369TCM    cl1 2009   3.038   0.975   4.737
  369TCM    cl2 2010   2.934   0.840   4.975
  369TCM     h1 2011   3.149   0.811   4.872
  369TCM    cl3 2012   3.166   1.015   4.997
  370TCM     c1 2013   2.928   2.605   2.422
  370TCM    cl1 2014   3.015   2.620   2.579
  370TCM    cl2 2015   3.013   2.702   2.297
  370TCM     h1 2016   2.925   2.500   2.392
  370TCM    cl3 2017   2.761   2.667   2.441
  371TCM     c1 2018   4.737   4.097   0.673
  371TCM    cl1 2019   4.816   4.036   0.524
  371TCM    cl2 2020   4.816   4.250   0.724
  371TCM     h1 2021   4.631   4.115   0.654
  371TCM    cl3 2022   4.754   3.976   0.805
  372TCM     c1 2023   1.861   2.891   4.502
  372TCM    cl1 2024   1.744   2.937   4.629
  372TCM    cl2 2025   2.017   2.976   4.528
  372TCM     h1 2026   1.878   2.783   4.506
  372TCM    cl3 2027   1.796   2.935   4.341
  373TCM     c1 2028   2.529   4.052   4.284
  373TCM    cl1 2029   2.550   4.189   4.398
  373TCM    cl2 2030   2.376   3.968   4.322
  373TCM     h1 2031   2.527   4.089   4.181
  373TCM    cl3 2032   2.667   3.939   4.306
  374TCM     c1 2033   4.448   0.013   2.787
  374TCM    cl1 2034   4.508  -0.104   2.909
  374TCM    cl2 2035   4.283   0.068   2.834
  374TCM     h1 2036   4.515   0.099   2.782
  374TCM    cl3 2037   4.439  -0.067   2.627
  375TCM     c1 2038   1.987   3.541   1.915
  375TCM    cl1 2039   2.041   3.372   1.886
  375TCM    cl2 2040   2.123   3.635   1.986
  375TCM     h1 2041   1.956   3.587   1.820
  375TCM    cl3 2042   1.849   3.541   2.029
  376TCM     c1 2043   3.404   0.592   0.943
  376TCM    cl1 2044   3.506   0.663   1.073
  376TCM    cl2 2045   3.371   0.420   0.980
  376TCM     h1 2046   3.310   0.647   0.937
  376TCM    cl3 2047   3.490   0.603   0.786
  377TCM     c1 2048   0.001   3.689   3.085
  377TCM    cl1 2049   0.051   3.800   2.953
  377TCM    cl2 2050  -0.097   3.556   3.015
  377TCM     h1 2051   0.090   3.648   3.134
  377TCM    cl3 2052  -0.097   3.779   3.205
  378TCM     c1 2053   2.721   2.709   4.639
  378TCM    cl1 2054   2.830   2.626   4.754
  378TCM    cl2 2055   2.553   2.709   4.704
  378TCM     h1 2056   2.754   2.812   4.625
  378TCM    cl3 2057   2.724   2.623   4.481
  379TCM     c1 2058   2.135   0.392   0.264
  379TCM    cl1 2059   2.189   0.393   0.093
  379TCM    cl2 2060   2.205   0.249   0.347
  379TCM     h1 2061   2.167   0.483   0.314
  379TCM    cl3 2062   1.956   0.381   0.271
  380TCM     c1 2063   2.893   0.305   2.215
  380TCM    cl1 2064   2.798   0.156   2.187
  380TCM    cl2 2065   2.996   0.286   2.361
  380TCM     h1 2066   2.957   0.324   2.128
  380TCM    cl3 2067   2.781   0.443   2.238
  381TCM     c1 2068   1.665   3.588   4.468
  381TCM    cl1 2069   1.533   3.561   4.348
  381TCM    cl2 2070   1.603   3.557   4.633
  381TCM     h1 2071   1.748   3.520   4.447
  381TCM    cl3 2072   1.721   3.758   4.455
  382TCM     c1 2073   0.722   2.772   0.417
  382TCM    cl1 2074   0.868   2.876   0.409
  382TCM    cl2 2075   0.574   2.874   0.417
  382TCM     h1 2076   0.720   2.705   0.331
  382TCM    cl3 2077   0.728   2.675   0.568
  383TCM     c1 2078   2.739   0.241   3.283
  383TCM    cl1 2079   2.819   0.352   3.167
  383TCM    cl2 2080   2.845   0.100   3.311
  383TCM     h1 2081   2.720   0.293   3.378
  383TCM    cl3 2082   2.583   0.185   3.213
  384TCM     c1 2083   2.100   3.176   0.967
  384TCM    cl1 2084   2.156   3.249   0.814
  384TCM    cl2 2085   2.242   3.122   1.063
  384TCM     h1 2086   2.042   3.249   1.025
  384TCM    cl3 2087   1.997   3.033   0.930
  385TCM     c1 2088   3.069   0.243   4.018
  385TCM    cl1 2089   2.906   0.289   3.959
  385TCM    cl2 2090   3.057   0.083   4.100
  385TCM     h1 2091   3.138   0.235   3.933
  385TCM    cl3 2092   3.129   0.367   4.133
  386TCM     c1 2093   4.948   0.440   4.049
  386TCM    cl1 2094   5.066   0.454   4.183
  386TCM    cl2 2095   4.832   0.308   4.088
  386TCM     h1 2096   4.895   0.534   4.037
  386TCM    cl3 2097   5.036   0.401   3.898
  387TCM     c1 2098   2.391   2.450   3.888
  387TCM    cl1 2099   2.485   2.524   4.022
  387TCM    cl2 2100   2.475   2.480   3.733
  387TCM     h1 2101   2.381   2.343   3.905
  387TCM    cl3 2102   2.228   2.525   3.884
  388TCM     c1 2103   0.244   1.680   4.964
  388TCM    cl1 2104   0.092   1.594   4.923
  388TCM    cl2 2105   0.369   1.560   5.011
  388TCM     h1 2106   0.279   1.737   4.877
  388TCM    cl3 2107   0.214   1.792   5.100
  389TCM     c1 2108   4.781   3.021   1.894
  389TCM    cl1 2109   4.743   2.872   1.987
  389TCM    cl2 2110   4.860   3.139   2.003
  389TCM     h1 2111   4.848   2.997   1.811
  389TCM    cl3 2112   4.629   3.092   1.830
  390TCM     c1 2113   2.829   3.409   0.580
  390TCM    cl1 2114   2.869   3.356   0.413
  390TCM    cl2 2115   2.765   3.576   0.576
  390TCM     h1 2116   2.753   3.342   0.623
  390TCM    cl3 2117   2.977   3.404   0.681
  391TCM     c1 2118   2.706   4.770   1.541
  391TCM    cl1 2119   2.647   4.794   1.709
  391TCM    cl2 2120   2.665   4.604   1.488
  391TCM     h1 2121   2.658   4.842   1.475
  391TCM    cl3 2122   2.884   4.794   1.538
  392TCM     c1 2123   2.694   3.873   4.721
  392TCM    cl1 2124   2.745   3.729   4.625
  392TCM    cl2 2125   2.682   3.828   4.894
  392TCM     h1 2126   2.768   3.953   4.709
  392TCM    cl3 2127   2.534   3.928   4.664
  393TCM     c1 2128   3.826   3.959   2.555
  393TCM    cl1 2129   3.956   4.080   2.581
  393TCM    cl2 2130   3.855   3.817   2.660
  393TCM     h1 2131   3.729   4.003   2.579
  393TCM    cl3 2132   3.828   3.906   2.384
  394TCM     c1 2133   2.309   1.450   2.357
  394TCM    cl1 2134   2.272   1.588   2.465
  394TCM    cl2 2135   2.480   1.462   2.303
  394TCM     h1 2136   2.295   1.356   2.411
  394TCM    cl3 2137   2.200   1.455   2.215
  395TCM     c1 2138   0.096   2.414   0.257
  395TCM    cl1 2139   0.022   2.277   0.167
  395TCM    cl2 2140  -0.001   2.447   0.404
  395TCM     h1 2141   0.199   2.387   0.286
  395TCM    cl3 2142   0.098   2.560   0.153
  396TCM     c1 2143   4.019   0.455   3.078
  396TCM    cl1 2144   3.951   0.445   3.244
  396TCM    cl2 2145   3.937   0.586   2.987
  396TCM     h1 2146   4.126   0.476   3.083
  396TCM    cl3 2147   3.993   0.298   2.993
  397TCM     c1 2148   4.851   2.296   4.852
  397TCM    cl1 2149   4.947   2.148   4.818
  397TCM    cl2 2150   4.691   2.246   4.915
  397TCM     h1 2151   4.903   2.358   4.926
  397TCM    cl3 2152   4.832   2.388   4.700
  398TCM     c1 2153   3.146   0.616   0.588
  398TCM    cl1 2154   3.112   0.548   0.750
  398TCM    cl2 2155   3.185   0.790   0.605
  398TCM     h1 2156   3.230   0.563   0.543
  398TCM    cl3 2157   3.001   0.598   0.483
  399TCM     c1 2158   2.625   4.335   4.773
  399TCM    cl1 2159   2.625   4.479   4.879
  399TCM    cl2 2160   2.456   4.288   4.737
  399TCM     h1 2161   2.678   4.357   4.680
  399TCM    cl3 2162   2.706   4.200   4.859
  400TCM     c1 2163   1.280   0.231   0.511
  400TCM    cl1 2164   1.427   0.162   0.588
  400TCM    cl2 2165   1.136   0.148   0.578
  400TCM     h1 2166   1.274   0.338   0.532
  400TCM    cl3 2167   1.288   0.205   0.333
  401TCM     c1 2168   1.429   3.211   4.376
  401TCM    cl1 2169   1.277   3.142   4.440
  401TCM    cl2 2170   1.489   3.112   4.239
  401TCM     h1 2171   1.411   3.313   4.341
  401TCM    cl3 2172   1.553   3.213   4.506
  402TCM     c1 2173   1.473   2.218   2.126
  402TCM    cl1 2174   1.406   2.277   2.281
  402TCM    cl2 2175   1.410   2.054   2.089
  402TCM     h1 2176   1.444   2.287   2.045
  402TCM    cl3 2177   1.652   2.212   2.136
  403TCM     c1 2178   1.377   1.635   0.299
  403TCM    cl1 2179   1.325   1.595   0.466
  403TCM    cl2 2180   1.232   1.676   0.201
  403TCM     h1 2181   1.445   1.720   0.300
  403TCM    cl3 2182   1.460   1.492   0.228
  404TCM     c1 2183   0.441   0.333   3.310
  404TCM    cl1 2184   0.519   0.305   3.469
  404TCM    cl2 2185   0.569   0.356   3.185
  404TCM     h1 2186   0.379   0.248   3.283
  404TCM    cl3 2187   0.340   0.481   3.318
  405TCM     c1 2188   2.635   3.802   0.309
  405TCM    cl1 2189   2.694   3.964   0.258
  405TCM    cl2 2190   2.722   3.675   0.217
  405TCM     h1 2191   2.651   3.788   0.416
  405TCM    cl3 2192   2.459   3.790   0.272
  406TCM     c1 2193   0.013   2.070   0.662
  406TCM    cl1 2194   0.088   2.230   0.694
  406TCM    cl2 2195  -0.072   2.075   0.505
  406TCM     h1 2196   0.091   1.994   0.659
  406TCM    cl3 2197  -0.103   2.031   0.793
  407TCM     c1 2198   3.175   4.719   4.027
  407TCM    cl1 2199   3.237   4.699   3.859
  407TCM    cl2 2200   3.311   4.749   4.139
  407TCM     h1 2201   3.105   4.803   4.030
  407TCM    cl3 2202   3.091   4.568   4.075
  408TCM     c1 2203   0.203   3.307   3.214
  408TCM    cl1 2204   0.085   3.250   3.090
  408TCM    cl2 2205   0.277   3.460   3.158
  408TCM     h1 2206   0.151   3.323   3.309
  408TCM    cl3 2207   0.330   3.183   3.235
  409TCM     c1 2208   2.776   0.538   1.884
  409TCM    cl1 2209   2.925   0.625   1.834
  409TCM    cl2 2210   2.808   0.361   1.880
  409TCM     h1 2211   2.748   0.568   1.985
  409TCM    cl3 2212   2.643   0.574   1.770
  410TCM     c1 2213   4.773   4.646   4.258
  410TCM    cl1 2214   4.684   4.747   4.139
  410TCM    cl2 2215   4.808   4.485   4.185
  410TCM     h1 2216   4.866   4.695   4.285
  410TCM    cl3 2217   4.672   4.623   4.404
  411TCM     c1 2218   3.733   0.823   1.903
  411TCM    cl1 2219   3.656   0.673   1.964
  411TCM    cl2 2220   3.616   0.915   1.803
  411TCM     h1 2221   3.765   0.885   1.988
  411TCM    cl3 2222   3.875   0.781   1.802
  412TCM     c1 2223   2.697   4.785   2.101
  412TCM    cl1 2224   2.630   4.853   2.253
  412TCM    cl2 2225   2.578   4.671   2.031
  412TCM     h1 2226   2.718   4.865   2.030
  412TCM    cl3 2227   2.849   4.697   2.137
  413TCM     c1 2228   2.079   2.759   0.684
  413TCM    cl1 2229   1.924   2.686   0.631
  413TCM    cl2 2230   2.117   2.902   0.582
  413TCM     h1 2231   2.071   2.790   0.789
  413TCM    cl3 2232   2.210   2.638   0.667
  414TCM     c1 2233   2.098   4.615   0.212
  414TCM    cl1 2234   1.987   4.677   0.339
  414TCM    cl2 2235   2.231   4.733   0.187
  414TCM     h1 2236   2.139   4.519   0.244
  414TCM    cl3 2237   2.007   4.592   0.059
  415TCM     c1 2238   3.523   1.097   2.263
  415TCM    cl1 2239   3.610   1.106   2.106
  415TCM    cl2 2240   3.530   0.929   2.327
  415TCM     h1 2241   3.571   1.165   2.335
  415TCM    cl3 2242   3.353   1.146   2.238
  416TCM     c1 2243   3.380   4.066   0.647
  416TCM    cl1 2244   3.417   3.970   0.500
  416TCM    cl2 2245   3.421   3.970   0.793
  416TCM     h1 2246   3.438   4.158   0.647
  416TCM    cl3 2247   3.205   4.106   0.649
  417TCM     c1 2248   1.821   4.002   1.873
  417TCM    cl1 2249   1.696   4.031   1.747
  417TCM    cl2 2250   1.957   3.910   1.801
  417TCM     h1 2251   1.857   4.098   1.911
  417TCM    cl3 2252   1.750   3.907   2.007
  418TCM     c1 2253   4.836   2.775   2.855
  418TCM    cl1 2254   4.995   2.832   2.915
  418TCM    cl2 2255   4.829   2.596   2.867
  418TCM     h1 2256   4.756   2.819   2.914
  418TCM    cl3 2257   4.818   2.824   2.683
  419TCM     c1 2258   1.483   1.050   2.155
  419TCM    cl1 2259   1.537   1.216   2.112
  419TCM    cl2 2260   1.424   1.047   2.325
  419TCM     h1 2261   1.403   1.020   2.088
  419TCM    cl3 2262   1.621   0.937   2.138
  420TCM     c1 2263   0.901   4.196   0.207
  420TCM    cl1 2264   0.930   4.202   0.030
  420TCM    cl2 2265   0.838   4.355   0.261
  420TCM     h1 2266   0.828   4.118   0.229
  420TCM    cl3 2267   1.056   4.161   0.291
  421TCM     c1 2268   3.024   2.620   0.568
  421TCM    cl1 2269   3.000   2.698   0.408
  421TCM    cl2 2270   2.898   2.495   0.593
  421TCM     h1 2271   3.123   2.574   0.572
  421TCM    cl3 2272   3.011   2.745   0.697
  422TCM     c1 2273   0.614   1.921   2.437
  422TCM    cl1 2274   0.723   1.978   2.568
  422TCM    cl2 2275   0.463   2.016   2.441
  422TCM     h1 2276   0.664   1.933   2.341
  422TCM    cl3 2277   0.577   1.747   2.463
  423TCM     c1 2278   2.670   0.890   4.722
  423TCM    cl1 2279   2.663   0.901   4.543
  423TCM    cl2 2280   2.678   0.718   4.772
  423TCM     h1 2281   2.758   0.943   4.758
  423TCM    cl3 2282   2.523   0.965   4.792
  424TCM     c1 2283   0.175   3.967   3.698
  424TCM    cl1 2284   0.220   4.113   3.792
  424TCM    cl2 2285   0.004   3.924   3.731
  424TCM     h1 2286   0.188   3.986   3.592
  424TCM    cl3 2287   0.281   3.831   3.749
  425TCM     c1 2288   4.973   4.144   1.060
  425TCM    cl1 2289   4.947   4.187   1.232
  425TCM    cl2 2290   5.060   3.988   1.049
  425TCM     h1 2291   4.876   4.136   1.009
  425TCM    cl3 2292   5.071   4.271   0.981
  426TCM     c1 2293   2.417   2.223   0.289
  426TCM    cl1 2294   2.264   2.225   0.383
  426TCM    cl2 2295   2.390   2.290   0.126
  426TCM     h1 2296   2.493   2.283   0.341
  426TCM    cl3 2297   2.474   2.053   0.275
  427TCM     c1 2298   3.271   2.292   2.290
  427TCM    cl1 2299   3.391   2.345   2.168
  427TCM    cl2 2300   3.106   2.297   2.219
  427TCM     h1 2301   3.294   2.191   2.323
  427TCM    cl3 2302   3.278   2.403   2.431
  428TCM     c1 2303   4.063   1.111   4.950
  428TCM    cl1 2304   4.044   1.221   5.092
  428TCM    cl2 2305   4.160   0.968   4.998
  428TCM     h1 2306   3.964   1.079   4.916
  428TCM    cl3 2307   4.147   1.199   4.819
  429TCM     c1 2308   0.935   1.861   4.448
  429TCM    cl1 2309   0.990   1.874   4.619
  429TCM    cl2 2310   0.782   1.951   4.428
  429TCM     h1 2311   1.011   1.904   4.383
  429TCM    cl3 2312   0.910   1.689   4.406
  430TCM     c1 2313   0.252   0.422   2.167
  430TCM    cl1 2314   0.348   0.327   2.049
  430TCM    cl2 2315   0.359   0.475   2.301
  430TCM     h1 2316   0.209   0.510   2.118
  430TCM    cl3 2317   0.120   0.319   2.232
  431TCM     c1 2318   3.807   0.305   0.866
  431TCM    cl1 2319   3.782   0.414   1.006
  431TCM    cl2 2320   3.649   0.240   0.810
  431TCM     h1 2321   3.854   0.360   0.784
  431TCM    cl3 2322   3.913   0.168   0.914
  432TCM     c1 2323   2.892   2.050   3.572
  432TCM    cl1 2324   3.067   2.013   3.574
  432TCM    cl2 2325   2.814   1.984   3.719
  432TCM     h1 2326   2.877   2.159   3.568
  432TCM    cl3 2327   2.819   1.973   3.428
  433TCM     c1 2328   3.298   2.828   3.578
  433TCM    cl1 2329   3.389   2.709   3.676
  433TCM    cl2 2330   3.222   2.744   3.439
  433TCM     h1 2331   3.220   2.875   3.639
  433TCM    cl3 2332   3.410   2.954   3.516
  434TCM     c1 2333   3.021   4.428   1.681
  434TCM    cl1 2334   2.892   4.506   1.778
  434TCM    cl2 2335   2.981   4.438   1.507
  434TCM     h1 2336   3.116   4.479   1.700
  434TCM    cl3 2337   3.034   4.255   1.728
  435TCM     c1 2338   0.371   1.166   4.095
  435TCM    cl1 2339   0.389   1.086   4.255
  435TCM    cl2 2340   0.304   1.049   3.977
  435TCM     h1 2341   0.303   1.251   4.105
  435TCM    cl3 2342   0.531   1.222   4.038
  436TCM     c1 2343   0.496   1.851   1.599
  436TCM    cl1 2344   0.488   2.014   1.673
  436TCM    cl2 2345   0.641   1.841   1.494
  436TCM     h1 2346   0.503   1.775   1.678
  436TCM    cl3 2347   0.348   1.823   1.501
  437TCM     c1 2348   0.028   2.588   1.024
  437TCM    cl1 2349   0.151   2.529   0.908
  437TCM    cl2 2350   0.017   2.767   1.016
  437TCM     h1 2351  -0.069   2.544   1.000
  437TCM    cl3 2352   0.074   2.540   1.191
  438TCM     c1 2353   0.973   3.440   4.813
  438TCM    cl1 2354   0.920   3.352   4.960
  438TCM    cl2 2355   0.927   3.613   4.827
  438TCM     h1 2356   1.081   3.432   4.802
  438TCM    cl3 2357   0.892   3.369   4.669
  439TCM     c1 2358   3.403   1.165   1.383
  439TCM    cl1 2359   3.241   1.099   1.423
  439TCM    cl2 2360   3.476   1.067   1.252
  439TCM     h1 2361   3.392   1.268   1.349
  439TCM    cl3 2362   3.508   1.160   1.529
  440TCM     c1 2363   3.290   1.484   4.757
  440TCM    cl1 2364   3.219   1.319   4.766
  440TCM    cl2 2365   3.445   1.489   4.847
  440TCM     h1 2366   3.307   1.511   4.653
  440TCM    cl3 2367   3.175   1.601   4.832
  441TCM     c1 2368   0.405   3.914   4.140
  441TCM    cl1 2369   0.229   3.930   4.109
  441TCM    cl2 2370   0.496   4.028   4.034
  441TCM     h1 2371   0.426   3.937   4.245
  441TCM    cl3 2372   0.457   3.747   4.101
  442TCM     c1 2373   3.237   3.058   0.281
  442TCM    cl1 2374   3.271   3.109   0.113
  442TCM    cl2 2375   3.307   2.895   0.307
  442TCM     h1 2376   3.282   3.129   0.351
  442TCM    cl3 2377   3.059   3.053   0.308
  443TCM     c1 2378   0.907   2.128   1.459
  443TCM    cl1 2379   0.843   2.141   1.627
  443TCM    cl2 2380   0.994   1.973   1.440
  443TCM     h1 2381   0.824   2.134   1.388
  443TCM    cl3 2382   1.021   2.264   1.430
  444TCM     c1 2383   4.152   0.167   0.203
  444TCM    cl1 2384   4.122   0.341   0.234
  444TCM    cl2 2385   4.323   0.129   0.240
  444TCM     h1 2386   4.086   0.107   0.266
  444TCM    cl3 2387   4.119   0.130   0.030
  445TCM     c1 2388   4.493   1.122   4.942
  445TCM    cl1 2389   4.525   1.224   4.798
  445TCM    cl2 2390   4.434   1.225   5.076
  445TCM     h1 2391   4.418   1.047   4.917
  445TCM    cl3 2392   4.645   1.041   4.991
  446TCM     c1 2393   3.037   0.704   3.427
  446TCM    cl1 2394   2.911   0.671   3.304
  446TCM    cl2 2395   2.963   0.783   3.570
  446TCM     h1 2396   3.084   0.610   3.458
  446TCM    cl3 2397   3.161   0.813   3.357
  447TCM     c1 2398   4.302   1.489   4.668
  447TCM    cl1 2399   4.451   1.590   4.669
  447TCM    cl2 2400   4.305   1.380   4.526
  447TCM     h1 2401   4.298   1.429   4.759
  447TCM    cl3 2402   4.158   1.595   4.659
  448TCM     c1 2403   0.067   2.047   3.479
  448TCM    cl1 2404  -0.103   2.041   3.422
  448TCM    cl2 2405   0.077   2.153   3.624
  448TCM     h1 2406   0.101   1.947   3.505
  448TCM    cl3 2407   0.169   2.114   3.348
  449TCM     c1 2408   4.841   4.726   3.685
  449TCM    cl1 2409   4.744   4.831   3.576
  449TCM    cl2 2410   4.949   4.622   3.586
  449TCM     h1 2411   4.901   4.789   3.751
  449TCM    cl3 2412   4.731   4.623   3.782
  450TCM     c1 2413   3.335   0.478   3.695
  450TCM    cl1 2414   3.158   0.481   3.724
  450TCM    cl2 2415   3.371   0.551   3.535
  450TCM     h1 2416   3.386   0.535   3.773
  450TCM    cl3 2417   3.394   0.309   3.698
  451TCM     c1 2418   3.693   3.857   1.574
  451TCM    cl1 2419   3.851   3.844   1.490
  451TCM    cl2 2420   3.719   3.848   1.751
  451TCM     h1 2421   3.647   3.953   1.549
  451TCM    cl3 2422   3.584   3.725   1.521
  452TCM     c1 2423   0.500   4.913   1.034
  452TCM    cl1 2424   0.556   4.748   1.074
  452TCM    cl2 2425   0.320   4.917   1.032
  452TCM     h1 2426   0.537   4.984   1.108
  452TCM    cl3 2427   0.562   4.959   0.872
  453TCM     c1 2428   2.260   3.622   3.697
  453TCM    cl1 2429   2.397   3.664   3.589
  453TCM    cl2 2430   2.242   3.443   3.704
  453TCM     h1 2431   2.279   3.661   3.797
  453TCM    cl3 2432   2.109   3.693   3.631
  454TCM     c1 2433   4.576   3.788   1.169
  454TCM    cl1 2434   4.507   3.741   1.328
  454TCM    cl2 2435   4.718   3.894   1.193
  454TCM     h1 2436   4.607   3.698   1.115
  454TCM    cl3 2437   4.451   3.876   1.074
  455TCM     c1 2438   2.952   4.144   4.382
  455TCM    cl1 2439   2.874   4.184   4.539
  455TCM    cl2 2440   3.042   3.990   4.401
  455TCM     h1 2441   2.875   4.133   4.305
  455TCM    cl3 2442   3.065   4.275   4.336
  456TCM     c1 2443   1.846   2.105   4.768
  456TCM    cl1 2444   1.785   2.262   4.830
  456TCM    cl2 2445   1.708   2.014   4.697
  456TCM     h1 2446   1.921   2.123   4.691
  456TCM    cl3 2447   1.918   2.011   4.902
  457TCM     c1 2448   1.571   3.185   1.918
  457TCM    cl1 2449   1.649   3.311   1.817
  457TCM    cl2 2450   1.623   3.205   2.089
  457TCM     h1 2451   1.463   3.195   1.912
  457TCM    cl3 2452   1.620   3.023   1.859
  458TCM     c1 2453   1.759   0.396   1.388
  458TCM    cl1 2454   1.863   0.269   1.460
  458TCM    cl2 2455   1.692   0.336   1.233
  458TCM     h1 2456   1.678   0.420   1.457
  458TCM    cl3 2457   1.857   0.543   1.357
  459TCM     c1 2458   3.912   4.293   3.551
  459TCM    cl1 2459   3.938   4.385   3.703
  459TCM    cl2 2460   3.735   4.281   3.520
  459TCM     h1 2461   3.960   4.344   3.468
  459TCM    cl3 2462   3.981   4.128   3.568
  460TCM     c1 2463   0.531   1.078   3.628
  460TCM    cl1 2464   0.438   1.227   3.667
  460TCM    cl2 2465   0.427   0.934   3.648
  460TCM     h1 2466   0.567   1.083   3.524
  460TCM    cl3 2467   0.671   1.065   3.739
  461TCM     c1 2468   1.360   4.378   0.504
  461TCM    cl1 2469   1.445   4.459   0.640
  461TCM    cl2 2470   1.207   4.465   0.471
  461TCM     h1 2471   1.424   4.379   0.415
  461TCM    cl3 2472   1.323   4.209   0.550
  462TCM     c1 2473   3.178   0.321   0.087
  462TCM    cl1 2474   3.104   0.274   0.244
  462TCM    cl2 2475   3.153   0.191  -0.033
  462TCM     h1 2476   3.131   0.413   0.052
  462TCM    cl3 2477   3.354   0.349   0.110
  463TCM     c1 2478   3.497   0.746   3.240
  463TCM    cl1 2479   3.449   0.843   3.097
  463TCM    cl2 2480   3.549   0.856   3.372
  463TCM     h1 2481   3.411   0.687   3.274
  463TCM    cl3 2482   3.632   0.637   3.195
  464TCM     c1 2483   4.898   4.323   3.885
  464TCM    cl1 2484   4.887   4.277   3.713
  464TCM    cl2 2485   5.035   4.436   3.907
  464TCM     h1 2486   4.805   4.371   3.917
  464TCM    cl3 2487   4.926   4.176   3.985
  465TCM     c1 2488   4.179   1.686   0.102
  465TCM    cl1 2489   4.113   1.809  -0.010
  465TCM    cl2 2490   4.226   1.540   0.009
  465TCM     h1 2491   4.267   1.726   0.154
  465TCM    cl3 2492   4.053   1.641   0.222
  466TCM     c1 2493   0.384   0.718   2.642
  466TCM    cl1 2494   0.473   0.762   2.493
  466TCM    cl2 2495   0.226   0.645   2.599
  466TCM     h1 2496   0.443   0.646   2.700
  466TCM    cl3 2497   0.357   0.865   2.741
  467TCM     c1 2498   0.416   2.114   2.107
  467TCM    cl1 2499   0.442   1.937   2.098
  467TCM    cl2 2500   0.341   2.173   1.955
  467TCM     h1 2501   0.350   2.137   2.192
  467TCM    cl3 2502   0.574   2.196   2.130
  468TCM     c1 2503   3.475   1.984   1.880
  468TCM    cl1 2504   3.449   2.137   1.791
  468TCM    cl2 2505   3.391   1.851   1.794
  468TCM     h1 2506   3.582   1.962   1.885
  468TCM    cl3 2507   3.408   1.999   2.046
  469TCM     c1 2508   2.450   0.923   4.165
  469TCM    cl1 2509   2.455   0.800   4.034
  469TCM    cl2 2510   2.380   0.849   4.312
  469TCM     h1 2511   2.551   0.958   4.186
  469TCM    cl3 2512   2.349   1.062   4.113
  470TCM     c1 2513   4.387   2.396   4.720
  470TCM    cl1 2514   4.492   2.526   4.784
  470TCM    cl2 2515   4.320   2.301   4.857
  470TCM     h1 2516   4.305   2.440   4.662
  470TCM    cl3 2517   4.483   2.287   4.614
  471TCM     c1 2518   3.681   0.761   2.785
  471TCM    cl1 2519   3.523   0.675   2.776
  471TCM    cl2 2520   3.657   0.938   2.765
  471TCM     h1 2521   3.727   0.742   2.882
  471TCM    cl3 2522   3.788   0.701   2.654
  472TCM     c1 2523   3.007   2.052   3.129
  472TCM    cl1 2524   3.034   1.999   2.960
  472TCM    cl2 2525   2.889   2.187   3.132
  472TCM     h1 2526   2.967   1.968   3.187
  472TCM    cl3 2527   3.162   2.107   3.201
  473TCM     c1 2528   3.493   1.591   1.506
  473TCM    cl1 2529   3.665   1.545   1.486
  473TCM    cl2 2530   3.424   1.504   1.647
  473TCM     h1 2531   3.485   1.699   1.523
  473TCM    cl3 2532   3.402   1.547   1.358
  474TCM     c1 2533   0.199   3.302   1.467
  474TCM    cl1 2534   0.053   3.372   1.390
  474TCM    cl2 2535   0.307   3.236   1.341
  474TCM     h1 2536   0.251   3.379   1.524
  474TCM    cl3 2537   0.149   3.170   1.579
  475TCM     c1 2538   2.441   3.561   4.450
  475TCM    cl1 2539   2.317   3.665   4.528
  475TCM    cl2 2540   2.476   3.624   4.285
  475TCM     h1 2541   2.532   3.561   4.510
  475TCM    cl3 2542   2.378   3.393   4.436
  476TCM     c1 2543   1.778   1.417   1.854
  476TCM    cl1 2544   1.907   1.482   1.961
  476TCM    cl2 2545   1.846   1.382   1.692
  476TCM     h1 2546   1.737   1.325   1.898
  476TCM    cl3 2547   1.648   1.539   1.837
  477TCM     c1 2548   4.644   2.514   0.222
  477TCM    cl1 2549   4.752   2.551   0.083
  477TCM    cl2 2550   4.676   2.348   0.281
  477TCM     h1 2551   4.662   2.586   0.302
  477TCM    cl3 2552   4.473   2.525   0.167
  478TCM     c1 2553   2.909   4.593   3.439
  478TCM    cl1 2554   2.844   4.754   3.394
  478TCM    cl2 2555   2.770   4.484   3.472
  478TCM     h1 2556   2.968   4.553   3.356
  478TCM    cl3 2557   3.010   4.608   3.586
  479TCM     c1 2558   0.103   3.705   0.006
  479TCM    cl1 2559   0.056   3.532   0.010
  479TCM    cl2 2560   0.010   3.797   0.129
  479TCM     h1 2561   0.210   3.715   0.026
  479TCM    cl3 2562   0.067   3.772  -0.156
  480TCM     c1 2563   1.395   2.707   3.053
  480TCM    cl1 2564   1.388   2.823   3.190
  480TCM    cl2 2565   1.267   2.745   2.935
  480TCM     h1 2566   1.493   2.713   3.005
  480TCM    cl3 2567   1.371   2.540   3.117
  481TCM     c1 2568   2.518   2.910   0.863
  481TCM    cl1 2569   2.431   3.007   0.740
  481TCM    cl2 2570   2.405   2.794   0.938
  481TCM     h1 2571   2.600   2.856   0.816
  481TCM    cl3 2572   2.585   3.020   0.989
  482TCM     c1 2573   4.811   3.471   3.518
  482TCM    cl1 2574   4.894   3.441   3.362
  482TCM    cl2 2575   4.641   3.415   3.506
  482TCM     h1 2576   4.862   3.417   3.598
  482TCM    cl3 2577   4.813   3.647   3.553
  483TCM     c1 2578   2.343   4.807   3.192
  483TCM    cl1 2579   2.425   4.658   3.250
  483TCM    cl2 2580   2.194   4.832   3.288
  483TCM     h1 2581   2.410   4.893   3.204
  483TCM    cl3 2582   2.301   4.787   3.019
  484TCM     c1 2583   0.148   2.653   4.124
  484TCM    cl1 2584   0.161   2.794   4.014
  484TCM    cl2 2585  -0.006   2.566   4.091
  484TCM     h1 2586   0.232   2.585   4.107
  484TCM    cl3 2587   0.150   2.709   4.294
  485TCM     c1 2588   2.509   2.225   3.457
  485TCM    cl1 2589   2.497   2.132   3.610
  485TCM    cl2 2590   2.503   2.112   3.317
  485TCM     h1 2591   2.426   2.296   3.450
  485TCM    cl3 2592   2.665   2.315   3.456
  486TCM     c1 2593   1.751   0.538   3.865
  486TCM    cl1 2594   1.707   0.444   4.011
  486TCM    cl2 2595   1.817   0.698   3.913
  486TCM     h1 2596   1.827   0.483   3.808
  486TCM    cl3 2597   1.605   0.563   3.764
  487TCM     c1 2598   1.011   4.876   0.832
  487TCM    cl1 2599   1.138   4.750   0.840
  487TCM    cl2 2600   0.918   4.877   0.986
  487TCM     h1 2601   1.057   4.974   0.816
  487TCM    cl3 2602   0.900   4.839   0.696
  488TCM     c1 2603   3.854   1.189   3.437
  488TCM    cl1 2604   3.824   1.365   3.414
  488TCM    cl2 2605   3.731   1.122   3.549
  488TCM     h1 2606   3.848   1.138   3.341
  488TCM    cl3 2607   4.017   1.167   3.509
  489TCM     c1 2608   3.201   4.880   3.208
  489TCM    cl1 2609   3.110   4.733   3.162
  489TCM    cl2 2610   3.163   4.925   3.377
  489TCM     h1 2611   3.308   4.862   3.197
  489TCM    cl3 2612   3.151   5.015   3.100
  490TCM     c1 2613   2.083   2.533   2.989
  490TCM    cl1 2614   1.927   2.545   2.899
  490TCM    cl2 2615   2.057   2.581   3.160
  490TCM     h1 2616   2.120   2.431   2.984
  490TCM    cl3 2617   2.202   2.644   2.915
  491TCM     c1 2618   1.621   0.528   0.271
  491TCM    cl1 2619   1.687   0.689   0.316
  491TCM    cl2 2620   1.455   0.548   0.204
  491TCM     h1 2621   1.685   0.481   0.196
  491TCM    cl3 2622   1.613   0.425   0.417
  492TCM     c1 2623   2.191   4.446   4.242
  492TCM    cl1 2624   2.055   4.400   4.133
  492TCM    cl2 2625   2.206   4.625   4.246
  492TCM     h1 2626   2.171   4.408   4.342
  492TCM    cl3 2627   2.343   4.375   4.180
  493TCM     c1 2628   0.569   3.624   4.773
  493TCM    cl1 2629   0.574   3.557   4.607
  493TCM    cl2 2630   0.576   3.490   4.892
  493TCM     h1 2631   0.655   3.690   4.788
  493TCM    cl3 2632   0.417   3.716   4.796
  494TCM     c1 2633   0.116   2.772   1.495
  494TCM    cl1 2634  -0.044   2.829   1.552
  494TCM    cl2 2635   0.234   2.783   1.629
  494TCM     h1 2636   0.108   2.668   1.461
  494TCM    cl3 2637   0.170   2.874   1.358
  495TCM     c1 2638   3.144   1.148   3.478
  495TCM    cl1 2639   3.186   1.253   3.618
  495TCM    cl2 2640   3.205   1.223   3.327
  495TCM     h1 2641   3.189   1.050   3.492
  495TCM    cl3 2642   2.965   1.130   3.467
  496TCM     c1 2643   4.971   1.336   1.875
  496TCM    cl1 2644   5.076   1.244   1.763
  496TCM    cl2 2645   4.960   1.249   2.031
  496TCM     h1 2646   5.014   1.436   1.891
  496TCM    cl3 2647   4.807   1.353   1.804
  497TCM     c1 2648   1.329   0.090   1.116
  497TCM    cl1 2649   1.296   0.118   0.942
  497TCM    cl2 2650   1.278  -0.076   1.159
  497TCM     h1 2651   1.435   0.103   1.136
  497TCM    cl3 2652   1.234   0.208   1.214
  498TCM     c1 2653   2.568   2.834   3.689
  498TCM    cl1 2654   2.669   2.848   3.837
  498TCM    cl2 2655   2.605   2.970   3.578
  498TCM     h1 2656   2.590   2.739   3.640
  498TCM    cl3 2657   2.395   2.839   3.735
  499TCM     c1 2658   0.158   3.109   0.937
  499TCM    cl1 2659   0.303   3.211   0.905
  499TCM    cl2 2660   0.053   3.110   0.792
  499TCM     h1 2661   0.189   3.006   0.960
  499TCM    cl3 2662   0.067   3.177   1.076
  500TCM     c1 2663   1.518   0.111   4.952
  500TCM    cl1 2664   1.566  -0.060   4.976
  500TCM    cl2 2665   1.592   0.171   4.799
  500TCM     h1 2666   1.410   0.118   4.945
  500TCM    cl3 2667   1.577   0.210   5.089
  501TCM     c1 2668   0.624   1.711   2.823
  501TCM    cl1 2669   0.785   1.645   2.780
  501TCM    cl2 2670   0.624   1.767   2.993
  501TCM     h1 2671   0.600   1.795   2.757
  501TCM    cl3 2672   0.499   1.584   2.804
  502TCM     c1 2673   2.875   3.581   2.242
  502TCM    cl1 2674   2.815   3.421   2.188
  502TCM    cl2 2675   3.027   3.559   2.335
  502TCM     h1 2676   2.894   3.645   2.155
  502TCM    cl3 2677   2.752   3.658   2.348
  503TCM     c1 2678   1.601   0.550   2.877
  503TCM    cl1 2679   1.518   0.431   2.772
  503TCM    cl2 2680   1.480   0.632   2.981
  503TCM     h1 2681   1.675   0.500   2.940
  503TCM    cl3 2682   1.685   0.672   2.775
  504TCM     c1 2683   4.854   0.066   2.720
  504TCM    cl1 2684   4.812  -0.103   2.674
  504TCM    cl2 2685   4.833   0.084   2.897
  504TCM     h1 2686   4.957   0.087   2.692
  504TCM    cl3 2687   4.744   0.179   2.635
  505TCM     c1 2688   2.670   3.953   3.059
  505TCM    cl1 2689   2.503   4.015   3.035
  505TCM    cl2 2690   2.786   4.064   2.978
  505TCM     h1 2691   2.693   3.949   3.166
  505TCM    cl3 2692   2.685   3.789   2.988
  506TCM     c1 2693   0.146   4.918   4.975
  506TCM    cl1 2694   0.065   4.927   4.815
  506TCM    cl2 2695   0.318   4.871   4.954
  506TCM     h1 2696   0.140   5.016   5.024
  506TCM    cl3 2697   0.064   4.795   5.076
  507TCM     c1 2698   1.436   4.151   0.021
  507TCM    cl1 2699   1.298   4.046  -0.024
  507TCM    cl2 2700   1.580   4.049   0.055
  507TCM     h1 2701   1.458   4.219  -0.061
  507TCM    cl3 2702   1.394   4.246   0.168
  508TCM     c1 2703   0.424   1.736   3.316
  508TCM    cl1 2704   0.246   1.754   3.329
  508TCM    cl2 2705   0.483   1.627   3.447
  508TCM     h1 2706   0.450   1.694   3.219
  508TCM    cl3 2707   0.501   1.897   3.333
  509TCM     c1 2708   4.605   0.067   4.608
  509TCM    cl1 2709   4.470   0.037   4.722
  509TCM    cl2 2710   4.541   0.087   4.442
  509TCM     h1 2711   4.658   0.158   4.638
  509TCM    cl3 2712   4.719  -0.072   4.611
  510TCM     c1 2713   4.206   2.509   2.403
  510TCM    cl1 2714   4.208   2.347   2.325
  510TCM    cl2 2715   4.369   2.583   2.388
  510TCM     h1 2716   4.132   2.572   2.354
  510TCM    cl3 2717   4.165   2.491   2.577
  511TCM     c1 2718   3.286   4.856   1.462
  511TCM    cl1 2719   3.462   4.852   1.427
  511TCM    cl2 2720   3.252   4.990   1.577
  511TCM     h1 2721   3.231   4.873   1.369
  511TCM    cl3 2722   3.237   4.700   1.536
  512TCM     c1 2723   0.117   0.062   0.463
  512TCM    cl1 2724   0.211   0.044   0.311
  512TCM    cl2 2725  -0.046   0.127   0.424
  512TCM     h1 2726   0.106  -0.036   0.511
  512TCM    cl3 2727   0.202   0.174   0.574
  513TCM     c1 2728   3.700   0.196   0.099
  513TCM    cl1 2729   3.792   0.092   0.213
  513TCM    cl2 2730   3.684   0.111  -0.057
  513TCM     h1 2731   3.601   0.217   0.140
  513TCM    cl3 2732   3.788   0.350   0.074
  514TCM     c1 2733   0.792   0.318   2.206
  514TCM    cl1 2734   0.806   0.491   2.252
  514TCM    cl2 2735   0.797   0.302   2.028
  514TCM     h1 2736   0.874   0.262   2.251
  514TCM    cl3 2737   0.636   0.254   2.267
  515TCM     c1 2738   2.752   0.096   4.396
  515TCM    cl1 2739   2.839   0.242   4.340
  515TCM    cl2 2740   2.582   0.138   4.435
  515TCM     h1 2741   2.753   0.020   4.318
  515TCM    cl3 2742   2.833   0.032   4.543
  516TCM     c1 2743   4.346   4.049   1.482
  516TCM    cl1 2744   4.193   4.003   1.401
  516TCM    cl2 2745   4.311   4.176   1.604
  516TCM     h1 2746   4.390   3.962   1.531
  516TCM    cl3 2747   4.460   4.114   1.360
  517TCM     c1 2748   2.865   3.381   0.050
  517TCM    cl1 2749   2.951   3.232   0.001
  517TCM    cl2 2750   2.692   3.342   0.078
  517TCM     h1 2751   2.909   3.421   0.142
  517TCM    cl3 2752   2.880   3.504  -0.080
  518TCM     c1 2753   2.702   0.642   4.302
  518TCM    cl1 2754   2.668   0.511   4.183
  518TCM    cl2 2755   2.779   0.779   4.215
  518TCM     h1 2756   2.609   0.675   4.348
  518TCM    cl3 2757   2.814   0.582   4.429
  519TCM     c1 2758   3.171   3.497   1.518
  519TCM    cl1 2759   3.034   3.612   1.500
  519TCM    cl2 2760   3.258   3.532   1.670
  519TCM     h1 2761   3.132   3.394   1.521
  519TCM    cl3 2762   3.283   3.514   1.379
  520TCM     c1 2763   0.009   2.937   3.255
  520TCM    cl1 2764   0.163   2.845   3.260
  520TCM    cl2 2765   0.004   3.053   3.392
  520TCM     h1 2766   0.002   2.992   3.160
  520TCM    cl3 2767  -0.128   2.822   3.268
  521TCM     c1 2768   1.759   3.443   2.863
  521TCM    cl1 2769   1.884   3.519   2.968
  521TCM    cl2 2770   1.765   3.516   2.699
  521TCM     h1 2771   1.778   3.336   2.856
  521TCM    cl3 2772   1.597   3.471   2.934
  522TCM     c1 2773   2.654   4.220   1.724
  522TCM    cl1 2774   2.553   4.075   1.754
  522TCM    cl2 2775   2.568   4.365   1.785
  522TCM     h1 2776   2.750   4.210   1.774
  522TCM    cl3 2777   2.680   4.237   1.547
  523TCM     c1 2778   0.130   1.616   2.822
  523TCM    cl1 2779   0.005   1.709   2.733
  523TCM    cl2 2780   0.077   1.445   2.839
  523TCM     h1 2781   0.224   1.619   2.767
  523TCM    cl3 2782   0.154   1.688   2.984
  524TCM     c1 2783   4.350   3.425   2.738
  524TCM    cl1 2784   4.512   3.366   2.786
  524TCM    cl2 2785   4.307   3.570   2.835
  524TCM     h1 2786   4.350   3.451   2.632
  524TCM    cl3 2787   4.229   3.296   2.769
  525TCM     c1 2788   2.539   4.728   2.584
  525TCM    cl1 2789   2.705   4.667   2.556
  525TCM    cl2 2790   2.538   4.839   2.725
  525TCM     h1 2791   2.504   4.782   2.495
  525TCM    cl3 2792   2.429   4.590   2.615
  526TCM     c1 2793   2.894   3.108   2.443
  526TCM    cl1 2794   2.807   3.027   2.308
  526TCM    cl2 2795   3.050   3.172   2.382
  526TCM     h1 2796   2.834   3.190   2.482
  526TCM    cl3 2797   2.925   2.989   2.574
  527TCM     c1 2798   1.942   3.237   4.176
  527TCM    cl1 2799   1.984   3.329   4.028
  527TCM    cl2 2800   1.809   3.320   4.263
  527TCM     h1 2801   1.910   3.136   4.149
  527TCM    cl3 2802   2.085   3.227   4.283
  528TCM     c1 2803   4.865   1.915   0.145
  528TCM    cl1 2804   4.852   1.847  -0.021
  528TCM    cl2 2805   4.884   1.779   0.260
  528TCM     h1 2806   4.951   1.981   0.151
  528TCM    cl3 2807   4.715   2.005   0.183
  529TCM     c1 2808   2.053   2.965   2.019
  529TCM    cl1 2809   2.190   3.063   2.081
  529TCM    cl2 2810   2.023   3.006   1.847
  529TCM     h1 2811   2.076   2.859   2.029
  529TCM    cl3 2812   1.906   3.004   2.115
  530TCM     c1 2813   2.009   0.629   4.856
  530TCM    cl1 2814   1.940   0.757   4.751
  530TCM    cl2 2815   2.033   0.480   4.759
  530TCM     h1 2816   2.104   0.663   4.898
  530TCM    cl3 2817   1.893   0.595   4.990
  531TCM     c1 2818   0.352   0.141   4.067
  531TCM    cl1 2819   0.394   0.260   4.194
  531TCM    cl2 2820   0.398   0.204   3.905
  531TCM     h1 2821   0.404   0.046   4.086
  531TCM    cl3 2822   0.175   0.113   4.070
  532TCM     c1 2823   1.780   4.530   1.539
  532TCM    cl1 2824   1.824   4.475   1.374
  532TCM    cl2 2825   1.929   4.566   1.633
  532TCM     h1 2826   1.719   4.620   1.532
  532TCM    cl3 2827   1.687   4.402   1.623
  533TCM     c1 2828   4.737   0.773   4.169
  533TCM    cl1 2829   4.705   0.620   4.256
  533TCM    cl2 2830   4.664   0.766   4.006
  533TCM     h1 2831   4.694   0.857   4.225
  533TCM    cl3 2832   4.914   0.797   4.154
  534TCM     c1 2833   2.328   3.015   4.905
  534TCM    cl1 2834   2.155   3.025   4.859
  534TCM    cl2 2835   2.345   3.049   5.081
  534TCM     h1 2836   2.367   2.915   4.883
  534TCM    cl3 2837   2.421   3.137   4.812
  535TCM     c1 2838   2.574   4.283   1.098
  535TCM    cl1 2839   2.688   4.380   1.196
  535TCM    cl2 2840   2.577   4.341   0.928
  535TCM     h1 2841   2.603   4.178   1.101
  535TCM    cl3 2842   2.408   4.301   1.164
  536TCM     c1 2843   1.482   0.898   4.069
  536TCM    cl1 2844   1.474   0.720   4.088
  536TCM    cl2 2845   1.549   0.937   3.908
  536TCM     h1 2846   1.381   0.940   4.078
  536TCM    cl3 2847   1.589   0.968   4.195
  537TCM     c1 2848   1.456   1.100   2.822
  537TCM    cl1 2849   1.541   1.000   2.700
  537TCM    cl2 2850   1.394   0.995   2.953
  537TCM     h1 2851   1.525   1.174   2.863
  537TCM    cl3 2852   1.319   1.185   2.743
  538TCM     c1 2853   2.276   3.037   3.260
  538TCM    cl1 2854   2.206   2.952   3.118
  538TCM    cl2 2855   2.454   3.050   3.241
  538TCM     h1 2856   2.232   3.136   3.268
  538TCM    cl3 2857   2.239   2.943   3.409
  539TCM     c1 2858   3.599   4.249   2.923
  539TCM    cl1 2859   3.425   4.214   2.890
  539TCM    cl2 2860   3.644   4.402   2.843
  539TCM     h1 2861   3.615   4.257   3.031
  539TCM    cl3 2862   3.699   4.115   2.857
  540TCM     c1 2863   2.653   0.206   0.360
  540TCM    cl1 2864   2.804   0.121   0.406
  540TCM    cl2 2865   2.690   0.380   0.333
  540TCM     h1 2866   2.612   0.163   0.269
  540TCM    cl3 2867   2.533   0.191   0.493
  541TCM     c1 2868   1.695   3.566   3.909
  541TCM    cl1 2869   1.779   3.640   4.049
  541TCM    cl2 2870   1.614   3.414   3.962
  541TCM     h1 2871   1.620   3.636   3.871
  541TCM    cl3 2872   1.813   3.528   3.780
  542TCM     c1 2873   2.013   1.998   1.347
  542TCM    cl1 2874   2.108   1.990   1.499
  542TCM    cl2 2875   1.842   2.037   1.386
  542TCM     h1 2876   2.055   2.075   1.282
  542TCM    cl3 2877   2.022   1.839   1.265
  543TCM     c1 2878   2.945   5.000   3.671
  543TCM    cl1 2879   3.087   5.108   3.682
  543TCM    cl2 2880   2.795   5.100   3.668
  543TCM     h1 2881   2.951   4.940   3.579
  543TCM    cl3 2882   2.941   4.893   3.814
  544TCM     c1 2883   2.001   0.946   1.981
  544TCM    cl1 2884   1.891   0.834   1.894
  544TCM    cl2 2885   2.042   0.876   2.141
  544TCM     h1 2886   2.093   0.960   1.922
  544TCM    cl3 2887   1.920   1.104   2.007
  545TCM     c1 2888   2.156   2.727   0.225
  545TCM    cl1 2889   1.986   2.759   0.272
  545TCM    cl2 2890   2.167   2.707   0.047
  545TCM     h1 2891   2.219   2.810   0.256
  545TCM    cl3 2892   2.212   2.576   0.304
  546TCM     c1 2893   3.270   2.291   4.091
  546TCM    cl1 2894   3.381   2.310   4.230
  546TCM    cl2 2895   3.362   2.233   3.948
  546TCM     h1 2896   3.193   2.218   4.116
  546TCM    cl3 2897   3.193   2.448   4.052
  547TCM     c1 2898   0.709   0.614   1.885
  547TCM    cl1 2899   0.669   0.514   1.741
  547TCM    cl2 2900   0.572   0.611   2.000
  547TCM     h1 2901   0.798   0.573   1.934
  547TCM    cl3 2902   0.740   0.783   1.833
  548TCM     c1 2903   0.035   2.681   3.603
  548TCM    cl1 2904  -0.094   2.800   3.643
  548TCM    cl2 2905   0.023   2.542   3.715
  548TCM     h1 2906   0.022   2.647   3.500
  548TCM    cl3 2907   0.195   2.759   3.621
  549TCM     c1 2908   4.203   4.731   0.811
  549TCM    cl1 2909   4.199   4.885   0.903
  549TCM    cl2 2910   4.307   4.751   0.666
  549TCM     h1 2911   4.244   4.651   0.875
  549TCM    cl3 2912   4.037   4.689   0.760
  550TCM     c1 2913   0.232   3.997   0.724
  550TCM    cl1 2914   0.107   3.871   0.696
  550TCM    cl2 2915   0.194   4.141   0.625
  550TCM     h1 2916   0.233   4.025   0.830
  550TCM    cl3 2917   0.393   3.932   0.678
  551TCM     c1 2918   2.100   2.153   3.497
  551TCM    cl1 2919   2.147   2.253   3.356
  551TCM    cl2 2920   2.158   2.231   3.648
  551TCM     h1 2921   1.991   2.143   3.500
  551TCM    cl3 2922   2.176   1.991   3.481
  552TCM     c1 2923   0.532   4.170   1.012
  552TCM    cl1 2924   0.427   4.026   1.035
  552TCM    cl2 2925   0.431   4.312   0.970
  552TCM     h1 2926   0.587   4.190   1.104
  552TCM    cl3 2927   0.647   4.138   0.878
  553TCM     c1 2928   1.425   3.763   0.209
  553TCM    cl1 2929   1.338   3.883   0.311
  553TCM    cl2 2930   1.339   3.606   0.217
  553TCM     h1 2931   1.428   3.798   0.106
  553TCM    cl3 2932   1.593   3.742   0.270
  554TCM     c1 2933   3.134   2.046   2.608
  554TCM    cl1 2934   3.201   1.962   2.464
  554TCM    cl2 2935   3.013   2.167   2.555
  554TCM     h1 2936   3.087   1.973   2.675
  554TCM    cl3 2937   3.267   2.129   2.695
  555TCM     c1 2938   1.771   2.663   2.388
  555TCM    cl1 2939   1.826   2.631   2.555
  555TCM    cl2 2940   1.656   2.536   2.335
  555TCM     h1 2941   1.721   2.761   2.384
  555TCM    cl3 2942   1.912   2.663   2.277
  556TCM     c1 2943   3.086   4.957   1.898
  556TCM    cl1 2944   2.919   5.006   1.855
  556TCM    cl2 2945   3.107   4.781   1.870
  556TCM     h1 2946   3.158   5.013   1.837
  556TCM    cl3 2947   3.115   4.993   2.072
  557TCM     c1 2948   0.944   2.769   4.494
  557TCM    cl1 2949   1.103   2.811   4.565
  557TCM    cl2 2950   0.963   2.634   4.378
  557TCM     h1 2951   0.876   2.739   4.574
  557TCM    cl3 2952   0.876   2.911   4.408
  558TCM     c1 2953   4.725   3.693   4.691
  558TCM    cl1 2954   4.716   3.691   4.871
  558TCM    cl2 2955   4.843   3.570   4.636
  558TCM     h1 2956   4.627   3.671   4.650
  558TCM    cl3 2957   4.777   3.856   4.636
  559TCM     c1 2958   0.258   1.806   3.788
  559TCM    cl1 2959   0.347   1.900   3.665
  559TCM    cl2 2960   0.093   1.770   3.726
  559TCM     h1 2961   0.310   1.713   3.809
  559TCM    cl3 2962   0.244   1.903   3.939
  560TCM     c1 2963   4.133   1.989   2.599
  560TCM    cl1 2964   4.034   2.139   2.598
  560TCM    cl2 2965   4.157   1.934   2.430
  560TCM     h1 2966   4.230   2.009   2.645
  560TCM    cl3 2967   4.046   1.863   2.693
  561TCM     c1 2968   1.294   2.891   0.104
  561TCM    cl1 2969   1.372   3.042   0.161
  561TCM    cl2 2970   1.116   2.914   0.097
  561TCM     h1 2971   1.331   2.866   0.005
  561TCM    cl3 2972   1.332   2.758   0.218
  562TCM     c1 2973   3.518   2.028   2.927
  562TCM    cl1 2974   3.477   2.187   2.999
  562TCM    cl2 2975   3.420   1.900   3.004
  562TCM     h1 2976   3.498   2.031   2.819
  562TCM    cl3 2977   3.693   1.994   2.953
  563TCM     c1 2978   2.693   4.864   0.860
  563TCM    cl1 2979   2.532   4.926   0.908
  563TCM    cl2 2980   2.714   4.884   0.683
  563TCM     h1 2981   2.771   4.920   0.912
  563TCM    cl3 2982   2.706   4.690   0.903
  564TCM     c1 2983   1.660   3.995   0.599
  564TCM    cl1 2984   1.646   4.072   0.438
  564TCM    cl2 2985   1.525   3.878   0.622
  564TCM     h1 2986   1.755   3.942   0.608
  564TCM    cl3 2987   1.649   4.121   0.726
  565TCM     c1 2988   0.143   3.010   0.082
  565TCM    cl1 2989   0.068   3.167   0.125
  565TCM    cl2 2990   0.025   2.912  -0.010
  565TCM     h1 2991   0.233   3.028   0.022
  565TCM    cl3 2992   0.187   2.923   0.233
  566TCM     c1 2993   2.823   4.911   3.001
  566TCM    cl1 2994   2.792   5.067   2.918
  566TCM    cl2 2995   2.876   4.789   2.881
  566TCM     h1 2996   2.902   4.924   3.076
  566TCM    cl3 2997   2.674   4.856   3.082
  567TCM     c1 2998   4.505   3.837   3.491
  567TCM    cl1 2999   4.403   3.701   3.548
  567TCM    cl2 3000   4.406   3.987   3.486
  567TCM     h1 3001   4.589   3.851   3.559
  567TCM    cl3 3002   4.565   3.801   3.326
  568TCM     c1 3003   1.723   1.065   3.150
  568TCM    cl1 3004   1.742   0.919   3.047
  568TCM    cl2 3005   1.722   1.212   3.047
  568TCM     h1 3006   1.629   1.058   3.205
  568TCM    cl3 3007   1.860   1.075   3.265
  569TCM     c1 3008   3.130   2.574   4.496
  569TCM    cl1 3009   3.309   2.563   4.496
  569TCM    cl2 3010   3.061   2.437   4.403
  569TCM     h1 3011   3.093   2.571   4.598
  569TCM    cl3 3012   3.080   2.729   4.419
  570TCM     c1 3013   2.139   4.165   0.483
  570TCM    cl1 3014   2.089   4.257   0.338
  570TCM    cl2 3015   2.234   4.021   0.433
  570TCM     h1 3016   2.200   4.228   0.548
  570TCM    cl3 3017   1.993   4.110   0.571
  571TCM     c1 3018   3.278   1.539   0.174
  571TCM    cl1 3019   3.131   1.626   0.230
  571TCM    cl2 3020   3.233   1.371   0.130
  571TCM     h1 3021   3.319   1.590   0.086
  571TCM    cl3 3022   3.400   1.536   0.305
  572TCM     c1 3023   2.390   1.738   3.644
  572TCM    cl1 3024   2.474   1.799   3.790
  572TCM    cl2 3025   2.383   1.558   3.649
  572TCM     h1 3026   2.288   1.778   3.642
  572TCM    cl3 3027   2.478   1.789   3.497
  573TCM     c1 3028   1.209   0.869   2.587
  573TCM    cl1 3029   1.143   0.819   2.428
  573TCM    cl2 3030   1.295   0.731   2.663
  573TCM     h1 3031   1.278   0.953   2.573
  573TCM    cl3 3032   1.075   0.919   2.695
  574TCM     c1 3033   2.441   4.255   0.118
  574TCM    cl1 3034   2.457   4.263   0.297
  574TCM    cl2 3035   2.310   4.367   0.066
  574TCM     h1 3036   2.535   4.286   0.072
  574TCM    cl3 3037   2.400   4.088   0.067
  575TCM     c1 3038   2.327   4.471   1.484
  575TCM    cl1 3039   2.322   4.579   1.627
  575TCM    cl2 3040   2.185   4.505   1.381
  575TCM     h1 3041   2.419   4.487   1.427
  575TCM    cl3 3042   2.320   4.300   1.538
  576TCM     c1 3043   0.930   2.570   4.979
  576TCM    cl1 3044   0.826   2.690   5.063
  576TCM    cl2 3045   0.909   2.587   4.802
  576TCM     h1 3046   1.034   2.586   5.006
  576TCM    cl3 3047   0.881   2.404   5.028
  577TCM     c1 3048   1.525   1.096   1.656
  577TCM    cl1 3049   1.494   1.271   1.636
  577TCM    cl2 3050   1.372   1.012   1.695
  577TCM     h1 3051   1.568   1.054   1.564
  577TCM    cl3 3052   1.640   1.072   1.791
  578TCM     c1 3053   0.268   3.483   3.583
  578TCM    cl1 3054   0.182   3.608   3.488
  578TCM    cl2 3055   0.417   3.433   3.497
  578TCM     h1 3056   0.295   3.524   3.681
  578TCM    cl3 3057   0.161   3.341   3.603
  579TCM     c1 3058   2.228   4.975   1.504
  579TCM    cl1 3059   2.206   5.132   1.419
  579TCM    cl2 3060   2.389   4.907   1.462
  579TCM     h1 3061   2.222   4.991   1.612
  579TCM    cl3 3062   2.099   4.861   1.452
  580TCM     c1 3063   0.051   0.098   3.720
  580TCM    cl1 3064   0.135  -0.056   3.681
  580TCM    cl2 3065  -0.095   0.063   3.819
  580TCM     h1 3066   0.118   0.163   3.776
  580TCM    cl3 3067   0.001   0.179   3.568
  581TCM     c1 3068   2.942   4.132   1.309
  581TCM    cl1 3069   3.107   4.178   1.255
  581TCM    cl2 3070   2.953   4.014   1.443
  581TCM     h1 3071   2.888   4.221   1.343
  581TCM    cl3 3072   2.853   4.057   1.172
  582TCM     c1 3073   4.515   4.155   3.825
  582TCM    cl1 3074   4.563   4.231   3.980
  582TCM    cl2 3075   4.630   4.022   3.786
  582TCM     h1 3076   4.414   4.114   3.833
  582TCM    cl3 3077   4.520   4.278   3.694
  583TCM     c1 3078   0.982   3.769   0.257
  583TCM    cl1 3079   0.949   3.595   0.232
  583TCM    cl2 3080   0.835   3.850   0.321
  583TCM     h1 3081   1.065   3.781   0.327
  583TCM    cl3 3082   1.025   3.842   0.099
  584TCM     c1 3083   0.309   2.221   4.800
  584TCM    cl1 3084   0.230   2.371   4.860
  584TCM    cl2 3085   0.298   2.096   4.928
  584TCM     h1 3086   0.257   2.186   4.710
  584TCM    cl3 3087   0.481   2.255   4.762
  585TCM     c1 3088   0.855   4.987   2.468
  585TCM    cl1 3089   0.853   5.151   2.541
  585TCM    cl2 3090   0.931   4.995   2.306
  585TCM     h1 3091   0.911   4.918   2.531
  585TCM    cl3 3092   0.686   4.929   2.451
  586TCM     c1 3093   0.899   1.232   4.183
  586TCM    cl1 3094   0.813   1.390   4.181
  586TCM    cl2 3095   0.916   1.171   4.016
  586TCM     h1 3096   0.998   1.246   4.227
  586TCM    cl3 3097   0.805   1.114   4.281
  587TCM     c1 3098   3.549   2.680   4.117
  587TCM    cl1 3099   3.546   2.562   3.982
  587TCM    cl2 3100   3.607   2.599   4.266
  587TCM     h1 3101   3.617   2.762   4.091
  587TCM    cl3 3102   3.384   2.745   4.144
  588TCM     c1 3103   1.943   3.300   0.008
  588TCM    cl1 3104   1.770   3.252   0.002
  588TCM    cl2 3105   2.020   3.232   0.156
  588TCM     h1 3106   1.995   3.263  -0.081
  588TCM    cl3 3107   1.953   3.479   0.013
  589TCM     c1 3108   1.247   0.508   0.964
  589TCM    cl1 3109   1.239   0.449   0.795
  589TCM    cl2 3110   1.210   0.684   0.967
  589TCM     h1 3111   1.175   0.454   1.025
  589TCM    cl3 3112   1.413   0.481   1.028
  590TCM     c1 3113   0.444   3.710   0.265
  590TCM    cl1 3114   0.384   3.560   0.188
  590TCM    cl2 3115   0.307   3.794   0.345
  590TCM     h1 3116   0.521   3.686   0.338
  590TCM    cl3 3117   0.512   3.817   0.138
  591TCM     c1 3118   2.991   1.444   3.100
  591TCM    cl1 3119   2.980   1.608   3.027
  591TCM    cl2 3120   3.104   1.345   3.003
  591TCM     h1 3121   3.028   1.452   3.203
  591TCM    cl3 3122   2.829   1.368   3.100
  592TCM     c1 3123   2.643   4.752   0.194
  592TCM    cl1 3124   2.618   4.812   0.027
  592TCM    cl2 3125   2.564   4.592   0.211
  592TCM     h1 3126   2.750   4.743   0.215
  592TCM    cl3 3127   2.567   4.866   0.310
  593TCM     c1 3128   3.516   3.609   3.158
  593TCM    cl1 3129   3.651   3.590   3.275
  593TCM    cl2 3130   3.571   3.709   3.019
  593TCM     h1 3131   3.484   3.510   3.122
  593TCM    cl3 3132   3.379   3.691   3.240
  594TCM     c1 3133   2.700   3.997   0.748
  594TCM    cl1 3134   2.833   4.106   0.799
  594TCM    cl2 3135   2.617   4.067   0.604
  594TCM     h1 3136   2.740   3.899   0.723
  594TCM    cl3 3137   2.581   3.981   0.882
  595TCM     c1 3138   4.442   4.243   1.001
  595TCM    cl1 3139   4.386   4.413   0.984
  595TCM    cl2 3140   4.616   4.241   1.045
  595TCM     h1 3141   4.384   4.193   1.078
  595TCM    cl3 3142   4.421   4.158   0.844
  596TCM     c1 3143   4.479   2.837   4.984
  596TCM    cl1 3144   4.366   2.886   5.114
  596TCM    cl2 3145   4.646   2.885   5.030
  596TCM     h1 3146   4.474   2.729   4.970
  596TCM    cl3 3147   4.434   2.920   4.831
  597TCM     c1 3148   2.784   1.027   2.018
  597TCM    cl1 3149   2.689   0.992   2.166
  597TCM    cl2 3150   2.716   0.935   1.880
  597TCM     h1 3151   2.780   1.134   1.997
  597TCM    cl3 3152   2.954   0.976   2.045
  598TCM     c1 3153   3.158   4.487   2.693
  598TCM    cl1 3154   3.075   4.630   2.624
  598TCM    cl2 3155   3.128   4.480   2.870
  598TCM     h1 3156   3.121   4.397   2.646
  598TCM    cl3 3157   3.335   4.502   2.663
  599TCM     c1 3158   3.581   3.629   3.800
  599TCM    cl1 3159   3.722   3.519   3.819
  599TCM    cl2 3160   3.430   3.544   3.846
  599TCM     h1 3161   3.594   3.717   3.863
  599TCM    cl3 3162   3.570   3.678   3.628
  600TCM     c1 3163   4.274   0.505   4.917
  600TCM    cl1 3164   4.389   0.366   4.915
  600TCM    cl2 3165   4.114   0.452   4.855
  600TCM     h1 3166   4.263   0.542   5.019
  600TCM    cl3 3167   4.338   0.636   4.812
  601TCM     c1 3168   2.936   3.089   3.506
  601TCM    cl1 3169   2.978   3.005   3.659
  601TCM    cl2 3170   3.074   3.076   3.392
  601TCM     h1 3171   2.848   3.043   3.462
  601TCM    cl3 3172   2.903   3.263   3.539
  602TCM     c1 3173   0.592   2.445   1.849
  602TCM    cl1 3174   0.761   2.397   1.887
  602TCM    cl2 3175   0.540   2.365   1.697
  602TCM     h1 3176   0.526   2.415   1.930
  602TCM    cl3 3177   0.584   2.623   1.827
  603TCM     c1 3178   4.965   4.260   3.030
  603TCM    cl1 3179   5.056   4.403   3.088
  603TCM    cl2 3180   5.006   4.119   3.132
  603TCM     h1 3181   4.857   4.279   3.036
  603TCM    cl3 3182   5.011   4.225   2.860
  604TCM     c1 3183   2.250   3.379   1.406
  604TCM    cl1 3184   2.398   3.336   1.315
  604TCM    cl2 3185   2.216   3.255   1.530
  604TCM     h1 3186   2.264   3.476   1.454
  604TCM    cl3 3187   2.111   3.389   1.291
  605TCM     c1 3188   0.169   1.579   2.402
  605TCM    cl1 3189   0.228   1.733   2.332
  605TCM    cl2 3190   0.292   1.515   2.515
  605TCM     h1 3191   0.075   1.597   2.455
  605TCM    cl3 3192   0.142   1.460   2.271
  606TCM     c1 3193   3.503   3.082   3.842
  606TCM    cl1 3194   3.333   3.033   3.877
  606TCM    cl2 3195   3.611   2.941   3.864
  606TCM     h1 3196   3.510   3.118   3.740
  606TCM    cl3 3197   3.551   3.212   3.956
  607TCM     c1 3198   1.965   3.373   3.480
  607TCM    cl1 3199   2.100   3.368   3.362
  607TCM    cl2 3200   1.923   3.206   3.530
  607TCM     h1 3201   1.995   3.431   3.568
  607TCM    cl3 3202   1.822   3.452   3.405
  608TCM     c1 3203   2.517   3.187   2.448
  608TCM    cl1 3204   2.559   3.093   2.595
  608TCM    cl2 3205   2.589   3.350   2.461
  608TCM     h1 3206   2.556   3.136   2.359
  608TCM    cl3 3207   2.339   3.201   2.436
  609TCM     c1 3208   1.738   2.753   0.013
  609TCM    cl1 3209   1.821   2.601  -0.033
  609TCM    cl2 3210   1.585   2.766  -0.080
  609TCM     h1 3211   1.716   2.752   0.120
  609TCM    cl3 3212   1.843   2.892  -0.027
  610TCM     c1 3213   4.736   0.610   2.893
  610TCM    cl1 3214   4.731   0.433   2.921
  610TCM    cl2 3215   4.634   0.652   2.752
  610TCM     h1 3216   4.699   0.662   2.981
  610TCM    cl3 3217   4.906   0.659   2.862
  611TCM     c1 3218   0.013   2.050   1.168
  611TCM    cl1 3219   0.103   2.180   1.082
  611TCM    cl2 3220  -0.062   2.118   1.316
  611TCM     h1 3221  -0.064   2.010   1.102
  611TCM    cl3 3222   0.127   1.919   1.214
  612TCM     c1 3223   3.024   4.050   0.130
  612TCM    cl1 3224   3.000   3.878   0.086
  612TCM    cl2 3225   3.039   4.148  -0.019
  612TCM     h1 3226   2.938   4.085   0.188
  612TCM    cl3 3227   3.173   4.067   0.229
  613TCM     c1 3228   2.733   4.057   3.489
  613TCM    cl1 3229   2.752   4.168   3.629
  613TCM    cl2 3230   2.822   4.123   3.348
  613TCM     h1 3231   2.774   3.959   3.515
  613TCM    cl3 3232   2.559   4.041   3.448
  614TCM     c1 3233   2.154   4.339   1.867
  614TCM    cl1 3234   2.215   4.170   1.870
  614TCM    cl2 3235   2.258   4.441   1.972
  614TCM     h1 3236   2.156   4.377   1.764
  614TCM    cl3 3237   1.985   4.342   1.929
  615TCM     c1 3238   1.375   1.976   0.567
  615TCM    cl1 3239   1.303   1.890   0.708
  615TCM    cl2 3240   1.259   1.971   0.431
  615TCM     h1 3241   1.397   2.080   0.594
  615TCM    cl3 3242   1.526   1.892   0.521
  616TCM     c1 3243   0.537   2.701   4.389
  616TCM    cl1 3244   0.473   2.869   4.394
  616TCM    cl2 3245   0.499   2.628   4.230
  616TCM     h1 3246   0.645   2.704   4.403
  616TCM    cl3 3247   0.461   2.605   4.520
  617TCM     c1 3248   0.231   1.537   4.326
  617TCM    cl1 3249   0.261   1.714   4.320
  617TCM    cl2 3250   0.388   1.449   4.337
  617TCM     h1 3251   0.170   1.513   4.413
  617TCM    cl3 3252   0.146   1.485   4.176
  618TCM     c1 3253   0.183   2.818   0.593
  618TCM    cl1 3254   0.025   2.759   0.653
  618TCM    cl2 3255   0.255   2.693   0.486
  618TCM     h1 3256   0.169   2.910   0.536
  618TCM    cl3 3257   0.293   2.847   0.731
  619TCM     c1 3258   2.175   4.057   4.635
  619TCM    cl1 3259   2.055   3.933   4.589
  619TCM    cl2 3260   2.132   4.126   4.796
  619TCM     h1 3261   2.274   4.011   4.641
  619TCM    cl3 3262   2.176   4.187   4.512
  620TCM     c1 3263   2.921   3.162   3.084
  620TCM    cl1 3264   2.800   3.259   3.174
  620TCM    cl2 3265   3.074   3.255   3.073
  620TCM     h1 3266   2.939   3.068   3.136
  620TCM    cl3 3267   2.860   3.128   2.919
  621TCM     c1 3268   2.815   4.371   0.369
  621TCM    cl1 3269   2.920   4.249   0.447
  621TCM    cl2 3270   2.804   4.334   0.194
  621TCM     h1 3271   2.716   4.369   0.414
  621TCM    cl3 3272   2.887   4.535   0.390
  622TCM     c1 3273   3.300   4.500   0.277
  622TCM    cl1 3274   3.229   4.418   0.134
  622TCM    cl2 3275   3.263   4.405   0.424
  622TCM     h1 3276   3.408   4.508   0.265
  622TCM    cl3 3277   3.229   4.664   0.291
  623TCM     c1 3278   2.276   3.728   0.631
  623TCM    cl1 3279   2.455   3.738   0.639
  623TCM    cl2 3280   2.205   3.820   0.768
  623TCM     h1 3281   2.241   3.769   0.536
  623TCM    cl3 3282   2.226   3.556   0.644
  624TCM     c1 3283   3.929   3.659   3.514
  624TCM    cl1 3284   3.997   3.735   3.367
  624TCM    cl2 3285   4.009   3.730   3.659
  624TCM     h1 3286   3.822   3.678   3.519
  624TCM    cl3 3287   3.959   3.482   3.510
  625TCM     c1 3288   0.198   4.728   4.068
  625TCM    cl1 3289   0.036   4.776   4.008
  625TCM    cl2 3290   0.222   4.796   4.232
  625TCM     h1 3291   0.206   4.619   4.071
  625TCM    cl3 3292   0.325   4.793   3.958
  626TCM     c1 3293   4.068   0.255   3.553
  626TCM    cl1 3294   4.217   0.292   3.646
  626TCM    cl2 3295   3.926   0.324   3.639
  626TCM     h1 3296   4.075   0.299   3.453
  626TCM    cl3 3297   4.048   0.077   3.539
  627TCM     c1 3298   2.421   2.650   3.216
  627TCM    cl1 3299   2.520   2.719   3.084
  627TCM    cl2 3300   2.499   2.685   3.374
  627TCM     h1 3301   2.321   2.695   3.214
  627TCM    cl3 3302   2.408   2.473   3.195
  628TCM     c1 3303   4.747   4.610   2.912
  628TCM    cl1 3304   4.863   4.711   3.004
  628TCM    cl2 3305   4.677   4.484   3.019
  628TCM     h1 3306   4.666   4.673   2.873
  628TCM    cl3 3307   4.832   4.530   2.775
  629TCM     c1 3308   2.417   0.750   1.966
  629TCM    cl1 3309   2.271   0.649   1.939
  629TCM    cl2 3310   2.507   0.688   2.109
  629TCM     h1 3311   2.480   0.747   1.878
  629TCM    cl3 3312   2.366   0.919   1.996
  630TCM     c1 3313   0.222   2.506   3.109
  630TCM    cl1 3314   0.182   2.521   2.935
  630TCM    cl2 3315   0.322   2.359   3.132
  630TCM     h1 3316   0.279   2.594   3.141
  630TCM    cl3 3317   0.071   2.492   3.204
  631TCM     c1 3318   1.131   3.981   0.757
  631TCM    cl1 3319   1.086   3.927   0.591
  631TCM    cl2 3320   1.225   3.852   0.838
  631TCM     h1 3321   1.190   4.072   0.751
  631TCM    cl3 3322   0.982   4.011   0.852
  632TCM     c1 3323   2.430   3.274   0.361
  632TCM    cl1 3324   2.477   3.446   0.381
  632TCM    cl2 3325   2.278   3.241   0.450
  632TCM     h1 3326   2.416   3.252   0.254
  632TCM    cl3 3327   2.561   3.170   0.426
  633TCM     c1 3328   1.052   2.288   4.392
  633TCM    cl1 3329   1.159   2.148   4.427
  633TCM    cl2 3330   0.916   2.290   4.510
  633TCM     h1 3331   1.109   2.381   4.400
  633TCM    cl3 3332   0.985   2.273   4.226
  634TCM     c1 3333   4.959   2.180   3.041
  634TCM    cl1 3334   4.804   2.236   3.113
  634TCM    cl2 3335   4.968   2.235   2.870
  634TCM     h1 3336   5.042   2.222   3.098
  634TCM    cl3 3337   4.966   2.001   3.044
  635TCM     c1 3338   2.492   0.760   3.422
  635TCM    cl1 3339   2.549   0.597   3.373
  635TCM    cl2 3340   2.632   0.872   3.429
  635TCM     h1 3341   2.419   0.797   3.350
  635TCM    cl3 3342   2.418   0.750   3.585
  636TCM     c1 3343   0.196   0.938   2.056
  636TCM    cl1 3344   0.287   1.092   2.075
  636TCM    cl2 3345   0.294   0.802   2.122
  636TCM     h1 3346   0.101   0.945   2.110
  636TCM    cl3 3347   0.165   0.909   1.882
  637TCM     c1 3348   3.951   0.300   4.413
  637TCM    cl1 3349   3.916   0.255   4.583
  637TCM    cl2 3350   3.922   0.476   4.392
  637TCM     h1 3351   4.055   0.277   4.390
  637TCM    cl3 3352   3.843   0.209   4.303
  638TCM     c1 3353   4.734   0.929   4.653
  638TCM    cl1 3354   4.753   0.965   4.478
  638TCM    cl2 3355   4.895   0.926   4.732
  638TCM     h1 3356   4.671   1.006   4.699
  638TCM    cl3 3357   4.656   0.769   4.673
  639TCM     c1 3358   2.863   0.729   1.435
  639TCM    cl1 3359   3.027   0.763   1.499
  639TCM    cl2 3360   2.743   0.834   1.517
  639TCM     h1 3361   2.860   0.747   1.327
  639TCM    cl3 3362   2.823   0.557   1.466
  640TCM     c1 3363   2.110   1.132   3.731
  640TCM    cl1 3364   2.210   1.264   3.802
  640TCM    cl2 3365   2.184   0.974   3.773
  640TCM     h1 3366   2.009   1.137   3.772
  640TCM    cl3 3367   2.105   1.149   3.553
   5.00000   5.00000   5.00000
