FOO
 3367
    1MOP     C1    1   1.134   1.979   0.429
    1MOP     O2    2   1.077   1.912   0.514
    1MOP     C3    3   1.281   1.993   0.440
    1MOP     C4    4   1.351   2.080   0.355
    1MOP     C5    5   1.490   2.091   0.362
    1MOP     C6    6   1.563   2.016   0.455
    1MOP     C7    7   1.710   2.023   0.461
    1MOP     C8    8   1.782   2.145   0.466
    1MOP     C9    9   1.922   2.142   0.474
    1MOP    C10   10   1.993   2.021   0.478
    1MOP    O11   11   2.129   2.028   0.491
    1MOP    C12   12   2.193   1.919   0.558
    1MOP    C13   13   1.921   1.902   0.467
    1MOP    C14   14   1.782   1.903   0.460
    1MOP    C15   15   1.718   2.278   0.469
    1MOP    C16   16   1.634   2.313   0.574
    1MOP    C17   17   1.582   2.442   0.584
    1MOP    C18   18   1.612   2.536   0.485
    1MOP    C19   19   1.692   2.503   0.374
    1MOP    C20   20   1.744   2.372   0.368
    1MOP    C21   21   1.711   2.601   0.259
    1MOP    N22   22   1.830   2.583   0.176
    1MOP    C23   23   1.693   2.750   0.292
    1MOP    C24   24   1.493   1.930   0.541
    1MOP    C25   25   1.354   1.919   0.535
    1MOP    H26   26   1.298   2.139   0.281
    1MOP    H27   27   1.541   2.158   0.294
    1MOP    H28   28   1.977   2.235   0.482
    1MOP    H29   29   2.291   1.957   0.588
    1MOP    H30   30   2.200   1.838   0.485
    1MOP    H31   31   2.132   1.893   0.644
    1MOP    H32   32   1.972   1.806   0.465
    1MOP    H33   33   1.729   1.808   0.452
    1MOP    H34   34   1.610   2.240   0.651
    1MOP    H35   35   1.519   2.469   0.668
    1MOP    H36   36   1.568   2.635   0.496
    1MOP    H37   37   1.805   2.342   0.284
    1MOP    H38   38   1.628   2.577   0.192
    1MOP    H39   39   1.816   2.595   0.076
    1MOP    H40   40   1.716   2.804   0.200
    1MOP    H41   41   1.761   2.775   0.373
    1MOP    H42   42   1.588   2.763   0.320
    1MOP    H43   43   1.547   1.870   0.614
    1MOP    H44   44   1.304   1.852   0.603
    2MOP    C45   45   1.962   2.556   0.207
    2MOP    O46   46   2.029   2.551   0.104
    2MOP    C47   47   2.028   2.528   0.336
    2MOP    C48   48   1.997   2.596   0.456
    2MOP    C49   49   2.068   2.570   0.573
    2MOP    C50   50   2.171   2.475   0.577
    2MOP    C51   51   2.249   2.451   0.700
    2MOP    C52   52   2.189   2.435   0.828
    2MOP    C53   53   2.270   2.415   0.940
    2MOP    C54   54   2.408   2.407   0.932
    2MOP    O55   55   2.474   2.379   1.049
    2MOP    C56   56   2.617   2.388   1.052
    2MOP    C57   57   2.468   2.423   0.806
    2MOP    C58   58   2.389   2.445   0.692
    2MOP    C59   59   2.045   2.430   0.850
    2MOP    C60   60   1.970   2.323   0.799
    2MOP    C61   61   1.835   2.310   0.832
    2MOP    C62   62   1.773   2.404   0.914
    2MOP    C63   63   1.846   2.513   0.966
    2MOP    C64   64   1.982   2.524   0.931
    2MOP    C65   65   1.780   2.618   1.055
    2MOP    N66   66   1.872   2.689   1.143
    2MOP    C67   67   1.656   2.575   1.135
    2MOP    C68   68   2.202   2.407   0.459
    2MOP    C69   69   2.131   2.433   0.341
    2MOP    H70   70   1.919   2.671   0.459
    2MOP    H71   71   2.043   2.626   0.663
    2MOP    H72   72   2.223   2.402   1.037
    2MOP    H73   73   2.643   2.370   1.156
    2MOP    H74   74   2.642   2.489   1.019
    2MOP    H75   75   2.655   2.310   0.985
    2MOP    H76   76   2.576   2.419   0.794
    2MOP    H77   77   2.438   2.461   0.597
    2MOP    H78   78   2.018   2.250   0.735
    2MOP    H79   79   1.780   2.225   0.794
    2MOP    H80   80   1.668   2.391   0.936
    2MOP    H81   81   2.042   2.607   0.969
    2MOP    H82   82   1.744   2.694   0.985
    2MOP    H83   83   1.866   2.791   1.144
    2MOP    H84   84   1.627   2.663   1.194
    2MOP    H85   85   1.685   2.491   1.199
    2MOP    H86   86   1.580   2.548   1.062
    2MOP    H87   87   2.280   2.332   0.458
    2MOP    H88   88   2.158   2.379   0.250
    3MOP    C89   89   1.964   2.647   1.238
    3MOP    O90   90   2.008   2.746   1.295
    3MOP    C91   91   2.018   2.513   1.274
    3MOP    C92   92   1.957   2.390   1.242
    3MOP    C93   93   2.014   2.269   1.282
    3MOP    C94   94   2.134   2.263   1.353
    3MOP    C95   95   2.192   2.134   1.397
    3MOP    C96   96   2.197   2.018   1.315
    3MOP    C97   97   2.246   1.898   1.368
    3MOP    C98   98   2.296   1.889   1.498
    3MOP    O99   99   2.342   1.769   1.543
    3MOP   C100  100   2.482   1.767   1.577
    3MOP   C101  101   2.294   2.004   1.578
    3MOP   C102  102   2.242   2.124   1.529
    3MOP   C103  103   2.157   2.018   1.174
    3MOP   C104  104   2.229   2.091   1.080
    3MOP   C105  105   2.191   2.091   0.946
    3MOP   C106  106   2.078   2.019   0.906
    3MOP   C107  107   2.003   1.945   0.998
    3MOP   C108  108   2.044   1.945   1.133
    3MOP   C109  109   1.875   1.872   0.960
    3MOP   N110  110   1.872   1.732   1.001
    3MOP   C111  111   1.833   1.883   0.813
    3MOP   C112  112   2.196   2.385   1.385
    3MOP   C113  113   2.139   2.506   1.347
    3MOP   H114  114   1.865   2.385   1.187
    3MOP   H115  115   1.961   2.177   1.257
    3MOP   H116  116   2.249   1.809   1.305
    3MOP   H117  117   2.504   1.663   1.599
    3MOP   H118  118   2.493   1.832   1.664
    3MOP   H119  119   2.536   1.804   1.489
    3MOP   H120  120   2.330   2.000   1.680
    3MOP   H121  121   2.239   2.211   1.594
    3MOP   H122  122   2.316   2.149   1.112
    3MOP   H123  123   2.247   2.148   0.873
    3MOP   H124  124   2.050   2.025   0.801
    3MOP   H125  125   1.988   1.889   1.206
    3MOP   H126  126   1.796   1.922   1.017
    3MOP   H127  127   1.781   1.695   1.030
    3MOP   H128  128   1.737   1.831   0.806
    3MOP   H129  129   1.911   1.835   0.754
    3MOP   H130  130   1.822   1.990   0.792
    3MOP   H131  131   2.290   2.385   1.439
    3MOP   H132  132   2.190   2.598   1.375
    4MOP   C133  133   1.973   1.641   1.023
    4MOP   O134  134   1.929   1.536   1.069
    4MOP   C135  135   2.117   1.649   0.993
    4MOP   C136  136   2.166   1.689   0.868
    4MOP   C137  137   2.303   1.678   0.838
    4MOP   C138  138   2.394   1.628   0.932
    4MOP   C139  139   2.534   1.596   0.897
    4MOP   C140  140   2.619   1.679   0.819
    4MOP   C141  141   2.746   1.631   0.783
    4MOP   C142  142   2.793   1.506   0.822
    4MOP   O143  143   2.919   1.471   0.780
    4MOP   C144  144   2.964   1.337   0.806
    4MOP   C145  145   2.709   1.426   0.901
    4MOP   C146  146   2.582   1.470   0.936
    4MOP   C147  147   2.583   1.815   0.774
    4MOP   C148  148   2.540   1.912   0.866
    4MOP   C149  149   2.511   2.042   0.823
    4MOP   C150  150   2.522   2.075   0.687
    4MOP   C151  151   2.563   1.979   0.593
    4MOP   C152  152   2.596   1.850   0.639
    4MOP   C153  153   2.569   2.014   0.445
    4MOP   N154  154   2.471   1.935   0.371
    4MOP   C155  155   2.712   2.012   0.390
    4MOP   C156  156   2.345   1.595   1.060
    4MOP   C157  157   2.209   1.604   1.089
    4MOP   H158  158   2.097   1.723   0.792
    4MOP   H159  159   2.337   1.704   0.738
    4MOP   H160  160   2.812   1.693   0.723
    4MOP   H161  161   3.062   1.329   0.757
    4MOP   H162  162   2.891   1.269   0.760
    4MOP   H163  163   2.971   1.327   0.914
    4MOP   H164  164   2.740   1.327   0.934
    4MOP   H165  165   2.519   1.403   0.994
    4MOP   H166  166   2.531   1.887   0.971
    4MOP   H167  167   2.481   2.117   0.895
    4MOP   H168  168   2.496   2.176   0.656
    4MOP   H169  169   2.629   1.775   0.568
    4MOP   H170  170   2.535   2.117   0.436
    4MOP   H171  171   2.375   1.967   0.374
    4MOP   H172  172   2.755   1.915   0.413
    4MOP   H173  173   2.764   2.094   0.440
    4MOP   H174  174   2.702   2.030   0.282
    4MOP   H175  175   2.412   1.558   1.136
    4MOP   H176  176   2.173   1.573   1.187
    5CAP   C177  177   0.930   2.029   0.317
    5CAP   O178  178   1.073   2.040   0.324
    5CAP   H179  179   0.905   1.923   0.326
    5CAP   H180  180   0.903   2.069   0.220
    5CAP   H181  181   0.891   2.088   0.400
    6CAP   C182  182   2.194   1.582   0.289
    6CAP   C183  183   2.346   1.603   0.298
    6CAP   C184  184   2.398   1.526   0.421
    6CAP   C185  185   2.409   1.550   0.167
    6CAP   O186  186   2.360   1.746   0.312
    6CAP   C187  187   2.480   1.803   0.333
    6CAP   O188  188   2.589   1.750   0.318
    6CAP   H189  189   2.177   1.474   0.276
    6CAP   H190  190   2.152   1.619   0.383
    6CAP   H191  191   2.160   1.640   0.202
    6CAP   H192  192   2.354   1.574   0.508
    6CAP   H193  193   2.507   1.533   0.420
    6CAP   H194  194   2.365   1.422   0.409
    6CAP   H195  195   2.375   1.618   0.088
    6CAP   H196  196   2.518   1.554   0.180
    6CAP   H197  197   2.374   1.448   0.154
    7TCM     c1  198   4.457   0.504   2.626
    7TCM    cl1  199   4.585   0.494   2.501
    7TCM    cl2  200   4.416   0.676   2.656
    7TCM     h1  201   4.367   0.451   2.592
    7TCM    cl3  202   4.517   0.430   2.777
    8TCM     c1  203   1.683   2.243   4.358
    8TCM    cl1  204   1.610   2.080   4.348
    8TCM    cl2  205   1.583   2.346   4.466
    8TCM     h1  206   1.785   2.237   4.398
    8TCM    cl3  207   1.685   2.317   4.195
    9TCM     c1  208   1.339   2.126   0.860
    9TCM    cl1  209   1.507   2.063   0.867
    9TCM    cl2  210   1.323   2.239   0.722
    9TCM     h1  211   1.269   2.043   0.847
    9TCM    cl3  212   1.303   2.214   1.012
   10TCM     c1  213   2.644   0.342   3.689
   10TCM    cl1  214   2.643   0.199   3.581
   10TCM    cl2  215   2.563   0.300   3.843
   10TCM     h1  216   2.747   0.373   3.708
   10TCM    cl3  217   2.554   0.476   3.610
   11TCM     c1  218   2.163   1.690   2.718
   11TCM    cl1  219   2.033   1.704   2.595
   11TCM    cl2  220   2.153   1.529   2.797
   11TCM     h1  221   2.260   1.701   2.670
   11TCM    cl3  222   2.142   1.819   2.841
   12TCM     c1  223   4.945   1.321   0.015
   12TCM    cl1  224   4.924   1.230  -0.139
   12TCM    cl2  225   5.116   1.371   0.032
   12TCM     h1  226   4.881   1.409   0.014
   12TCM    cl3  227   4.900   1.214   0.153
   13TCM     c1  228   2.858   0.660   2.643
   13TCM    cl1  229   2.744   0.753   2.540
   13TCM    cl2  230   2.805   0.489   2.655
   13TCM     h1  231   2.959   0.665   2.599
   13TCM    cl3  232   2.861   0.733   2.807
   14TCM     c1  233   3.440   3.868   4.436
   14TCM    cl1  234   3.503   4.027   4.381
   14TCM    cl2  235   3.448   3.859   4.615
   14TCM     h1  236   3.336   3.857   4.403
   14TCM    cl3  237   3.540   3.738   4.363
   15TCM     c1  238   0.354   3.883   3.399
   15TCM    cl1  239   0.436   3.729   3.355
   15TCM    cl2  240   0.466   4.020   3.368
   15TCM     h1  241   0.263   3.895   3.339
   15TCM    cl3  242   0.311   3.879   3.573
   16TCM     c1  243   3.739   1.228   2.626
   16TCM    cl1  244   3.883   1.250   2.731
   16TCM    cl2  245   3.787   1.132   2.482
   16TCM     h1  246   3.661   1.175   2.681
   16TCM    cl3  247   3.676   1.387   2.573
   17TCM     c1  248   0.042   2.922   4.266
   17TCM    cl1  249  -0.111   2.898   4.358
   17TCM    cl2  250   0.144   2.776   4.282
   17TCM     h1  251   0.019   2.940   4.161
   17TCM    cl3  252   0.130   3.064   4.333
   18TCM     c1  253   0.424   2.602   1.435
   18TCM    cl1  254   0.332   2.580   1.587
   18TCM    cl2  255   0.367   2.482   1.314
   18TCM     h1  256   0.409   2.703   1.397
   18TCM    cl3  257   0.599   2.575   1.467
   19TCM     c1  258   1.318   1.772   2.164
   19TCM    cl1  259   1.385   1.847   2.312
   19TCM    cl2  260   1.140   1.799   2.158
   19TCM     h1  261   1.365   1.817   2.076
   19TCM    cl3  262   1.351   1.596   2.166
   20TCM     c1  263   4.131   4.342   0.669
   20TCM    cl1  264   4.108   4.429   0.824
   20TCM    cl2  265   4.092   4.169   0.693
   20TCM     h1  266   4.065   4.384   0.593
   20TCM    cl3  267   4.302   4.358   0.615
   21TCM     c1  268   2.355   4.995   3.874
   21TCM    cl1  269   2.391   4.822   3.905
   21TCM    cl2  270   2.204   5.039   3.960
   21TCM     h1  271   2.438   5.056   3.911
   21TCM    cl3  272   2.333   5.023   3.698
   22TCM     c1  273   2.707   1.573   2.934
   22TCM    cl1  274   2.741   1.413   2.860
   22TCM    cl2  275   2.541   1.626   2.890
   22TCM     h1  276   2.715   1.566   3.043
   22TCM    cl3  277   2.826   1.692   2.873
   23TCM     c1  278   0.816   2.887   4.823
   23TCM    cl1  279   0.979   2.961   4.802
   23TCM    cl2  280   0.771   2.798   4.674
   23TCM     h1  281   0.818   2.818   4.908
   23TCM    cl3  282   0.696   3.016   4.854
   24TCM     c1  283   4.377   3.405   2.125
   24TCM    cl1  284   4.320   3.323   1.976
   24TCM    cl2  285   4.416   3.282   2.250
   24TCM     h1  286   4.466   3.463   2.103
   24TCM    cl3  287   4.248   3.513   2.187
   25TCM     c1  288   0.353   3.750   4.753
   25TCM    cl1  289   0.225   3.642   4.688
   25TCM    cl2  290   0.309   3.803   4.918
   25TCM     h1  291   0.448   3.696   4.756
   25TCM    cl3  292   0.368   3.893   4.646
   26TCM     c1  293   2.187   1.219   3.419
   26TCM    cl1  294   2.290   1.299   3.296
   26TCM    cl2  295   2.178   1.044   3.382
   26TCM     h1  296   2.230   1.234   3.519
   26TCM    cl3  297   2.023   1.290   3.414
   27TCM     c1  298   1.094   1.920   2.589
   27TCM    cl1  299   1.253   1.869   2.656
   27TCM    cl2  300   1.016   1.781   2.507
   27TCM     h1  301   1.030   1.956   2.670
   27TCM    cl3  302   1.121   2.052   2.470
   28TCM     c1  303   3.092   4.633   4.771
   28TCM    cl1  304   3.193   4.646   4.623
   28TCM    cl2  305   3.091   4.463   4.827
   28TCM     h1  306   3.134   4.697   4.849
   28TCM    cl3  307   2.925   4.685   4.732
   29TCM     c1  308   2.579   2.296   1.933
   29TCM    cl1  309   2.457   2.307   1.802
   29TCM    cl2  310   2.560   2.437   2.044
   29TCM     h1  311   2.564   2.204   1.989
   29TCM    cl3  312   2.744   2.299   1.862
   30TCM     c1  313   2.662   1.864   0.009
   30TCM    cl1  314   2.504   1.949   0.007
   30TCM    cl2  315   2.779   1.955  -0.091
   30TCM     h1  316   2.698   1.856   0.112
   30TCM    cl3  317   2.642   1.700  -0.061
   31TCM     c1  318   4.968   0.083   1.110
   31TCM    cl1  319   4.935  -0.093   1.123
   31TCM    cl2  320   4.905   0.166   1.256
   31TCM     h1  321   5.076   0.099   1.102
   31TCM    cl3  322   4.887   0.148   0.963
   32TCM     c1  323   3.122   0.723   1.213
   32TCM    cl1  324   2.988   0.614   1.262
   32TCM    cl2  325   3.139   0.854   1.334
   32TCM     h1  326   3.216   0.666   1.207
   32TCM    cl3  327   3.086   0.795   1.053
   33TCM     c1  328   3.785   3.337   1.987
   33TCM    cl1  329   3.721   3.171   1.963
   33TCM    cl2  330   3.948   3.327   2.063
   33TCM     h1  331   3.792   3.388   1.891
   33TCM    cl3  332   3.675   3.429   2.095
   34TCM     c1  333   0.973   0.818   3.474
   34TCM    cl1  334   0.949   0.844   3.298
   34TCM    cl2  335   1.020   0.974   3.551
   34TCM     h1  336   0.881   0.781   3.519
   34TCM    cl3  337   1.104   0.698   3.500
   35TCM     c1  338   0.528   4.925   4.149
   35TCM    cl1  339   0.497   5.079   4.062
   35TCM    cl2  340   0.506   4.951   4.325
   35TCM     h1  341   0.458   4.848   4.114
   35TCM    cl3  342   0.696   4.870   4.117
   36TCM     c1  343   2.714   3.470   3.343
   36TCM    cl1  344   2.770   3.325   3.432
   36TCM    cl2  345   2.856   3.561   3.282
   36TCM     h1  346   2.651   3.439   3.259
   36TCM    cl3  347   2.620   3.575   3.454
   37TCM     c1  348   0.323   0.961   2.557
   37TCM    cl1  349   0.201   0.876   2.659
   37TCM    cl2  350   0.423   0.839   2.471
   37TCM     h1  351   0.271   1.024   2.485
   37TCM    cl3  352   0.429   1.061   2.661
   38TCM     c1  353   4.898   1.946   2.003
   38TCM    cl1  354   4.900   2.064   2.138
   38TCM    cl2  355   4.949   2.028   1.852
   38TCM     h1  356   4.966   1.864   2.025
   38TCM    cl3  357   4.731   1.883   1.982
   39TCM     c1  358   1.400   3.378   1.952
   39TCM    cl1  359   1.535   3.328   2.060
   39TCM    cl2  360   1.343   3.236   1.859
   39TCM     h1  361   1.318   3.418   2.012
   39TCM    cl3  362   1.459   3.504   1.839
   40TCM     c1  363   3.713   1.428   2.045
   40TCM    cl1  364   3.677   1.275   1.959
   40TCM    cl2  365   3.763   1.389   2.213
   40TCM     h1  366   3.794   1.480   1.994
   40TCM    cl3  367   3.567   1.531   2.049
   41TCM     c1  368   0.857   2.205   2.116
   41TCM    cl1  369   0.852   2.374   2.176
   41TCM    cl2  370   0.894   2.204   1.941
   41TCM     h1  371   0.933   2.149   2.171
   41TCM    cl3  372   0.696   2.130   2.143
   42TCM     c1  373   2.219   3.662   1.689
   42TCM    cl1  374   2.367   3.748   1.635
   42TCM    cl2  375   2.124   3.613   1.546
   42TCM     h1  376   2.247   3.574   1.747
   42TCM    cl3  377   2.122   3.774   1.791
   43TCM     c1  378   0.703   4.415   1.083
   43TCM    cl1  379   0.531   4.387   1.041
   43TCM    cl2  380   0.800   4.425   0.932
   43TCM     h1  381   0.713   4.508   1.139
   43TCM    cl3  382   0.762   4.277   1.183
   44TCM     c1  383   0.306   1.083   4.670
   44TCM    cl1  384   0.160   1.004   4.602
   44TCM    cl2  385   0.274   1.258   4.694
   44TCM     h1  386   0.331   1.037   4.766
   44TCM    cl3  387   0.444   1.063   4.557
   45TCM     c1  388   1.247   3.551   4.781
   45TCM    cl1  389   1.416   3.583   4.833
   45TCM    cl2  390   1.137   3.580   4.920
   45TCM     h1  391   1.221   3.618   4.699
   45TCM    cl3  392   1.231   3.381   4.727
   46TCM     c1  393   0.390   0.575   4.786
   46TCM    cl1  394   0.548   0.495   4.818
   46TCM    cl2  395   0.331   0.529   4.623
   46TCM     h1  396   0.317   0.543   4.861
   46TCM    cl3  397   0.413   0.752   4.795
   47TCM     c1  398   1.297   3.989   1.774
   47TCM    cl1  399   1.212   4.048   1.920
   47TCM    cl2  400   1.240   4.081   1.631
   47TCM     h1  401   1.405   4.002   1.786
   47TCM    cl3  402   1.261   3.815   1.750
   48TCM     c1  403   3.222   4.130   4.918
   48TCM    cl1  404   3.115   4.047   4.801
   48TCM    cl2  405   3.342   4.012   4.981
   48TCM     h1  406   3.274   4.213   4.869
   48TCM    cl3  407   3.125   4.193   5.056
   49TCM     c1  408   1.113   1.278   1.382
   49TCM    cl1  409   1.001   1.346   1.259
   49TCM    cl2  410   1.281   1.281   1.319
   49TCM     h1  411   1.108   1.338   1.473
   49TCM    cl3  412   1.066   1.109   1.419
   50TCM     c1  413   3.368   0.612   2.218
   50TCM    cl1  414   3.274   0.494   2.121
   50TCM    cl2  415   3.475   0.522   2.330
   50TCM     h1  416   3.428   0.675   2.152
   50TCM    cl3  417   3.254   0.714   2.312
   51TCM     c1  418   0.052   0.411   1.764
   51TCM    cl1  419  -0.050   0.533   1.847
   51TCM    cl2  420   0.207   0.486   1.714
   51TCM     h1  421   0.072   0.327   1.831
   51TCM    cl3  422  -0.032   0.350   1.618
   52TCM     c1  423   3.504   2.427   1.085
   52TCM    cl1  424   3.507   2.281   1.189
   52TCM    cl2  425   3.637   2.417   0.965
   52TCM     h1  426   3.408   2.434   1.033
   52TCM    cl3  427   3.526   2.573   1.188
   53TCM     c1  428   3.816   4.998   0.629
   53TCM    cl1  429   3.788   4.844   0.541
   53TCM    cl2  430   3.815   5.135   0.513
   53TCM     h1  431   3.736   5.013   0.703
   53TCM    cl3  432   3.974   4.991   0.713
   54TCM     c1  433   0.007   1.438   3.283
   54TCM    cl1  434  -0.112   1.423   3.150
   54TCM    cl2  435   0.144   1.325   3.254
   54TCM     h1  436   0.045   1.541   3.286
   54TCM    cl3  437  -0.072   1.399   3.439
   55TCM     c1  438   2.041   3.408   2.105
   55TCM    cl1  439   1.897   3.380   2.001
   55TCM    cl2  440   2.169   3.486   2.007
   55TCM     h1  441   2.013   3.474   2.188
   55TCM    cl3  442   2.101   3.252   2.168
   56TCM     c1  443   0.393   0.093   4.670
   56TCM    cl1  444   0.325   0.175   4.815
   56TCM    cl2  445   0.444  -0.072   4.716
   56TCM     h1  446   0.317   0.088   4.592
   56TCM    cl3  447   0.535   0.186   4.611
   57TCM     c1  448   4.415   0.407   4.429
   57TCM    cl1  449   4.368   0.489   4.276
   57TCM    cl2  450   4.369   0.509   4.569
   57TCM     h1  451   4.363   0.310   4.437
   57TCM    cl3  452   4.592   0.380   4.430
   58TCM     c1  453   3.464   4.276   1.569
   58TCM    cl1  454   3.370   4.151   1.657
   58TCM    cl2  455   3.560   4.372   1.687
   58TCM     h1  456   3.532   4.228   1.498
   58TCM    cl3  457   3.351   4.384   1.481
   59TCM     c1  458   4.519   4.484   4.679
   59TCM    cl1  459   4.425   4.468   4.830
   59TCM    cl2  460   4.671   4.389   4.692
   59TCM     h1  461   4.460   4.445   4.595
   59TCM    cl3  462   4.558   4.656   4.650
   60TCM     c1  463   3.945   4.116   1.625
   60TCM    cl1  464   3.793   4.115   1.529
   60TCM    cl2  465   3.927   4.008   1.767
   60TCM     h1  466   4.028   4.082   1.563
   60TCM    cl3  467   3.977   4.283   1.683
   61TCM     c1  468   3.575   3.942   3.361
   61TCM    cl1  469   3.669   3.808   3.287
   61TCM    cl2  470   3.636   3.973   3.526
   61TCM     h1  471   3.586   4.032   3.300
   61TCM    cl3  472   3.401   3.895   3.369
   62TCM     c1  473   0.593   0.682   3.213
   62TCM    cl1  474   0.573   0.832   3.308
   62TCM    cl2  475   0.432   0.615   3.170
   62TCM     h1  476   0.649   0.704   3.122
   62TCM    cl3  477   0.683   0.561   3.310
   63TCM     c1  478   3.036   2.174   2.833
   63TCM    cl1  479   3.032   2.209   3.009
   63TCM    cl2  480   2.904   2.262   2.750
   63TCM     h1  481   3.133   2.205   2.792
   63TCM    cl3  482   3.014   1.998   2.806
   64TCM     c1  483   3.576   2.357   2.373
   64TCM    cl1  484   3.603   2.498   2.265
   64TCM    cl2  485   3.411   2.292   2.345
   64TCM     h1  486   3.650   2.280   2.351
   64TCM    cl3  487   3.591   2.408   2.544
   65TCM     c1  488   4.985   0.515   2.398
   65TCM    cl1  489   5.147   0.582   2.438
   65TCM    cl2  490   4.994   0.336   2.395
   65TCM     h1  491   4.913   0.547   2.474
   65TCM    cl3  492   4.934   0.576   2.237
   66TCM     c1  493   0.128   0.272   2.931
   66TCM    cl1  494   0.154   0.094   2.930
   66TCM    cl2  495  -0.040   0.307   2.982
   66TCM     h1  496   0.198   0.318   3.001
   66TCM    cl3  497   0.157   0.336   2.766
   67TCM     c1  498   4.903   3.577   1.290
   67TCM    cl1  499   4.786   3.613   1.159
   67TCM    cl2  500   4.865   3.678   1.433
   67TCM     h1  501   4.895   3.471   1.318
   67TCM    cl3  502   5.069   3.612   1.234
   68TCM     c1  503   1.553   3.137   0.457
   68TCM    cl1  504   1.576   3.288   0.552
   68TCM    cl2  505   1.613   2.998   0.552
   68TCM     h1  506   1.447   3.124   0.435
   68TCM    cl3  507   1.646   3.148   0.303
   69TCM     c1  508   2.705   4.426   4.027
   69TCM    cl1  509   2.561   4.373   4.119
   69TCM    cl2  510   2.653   4.538   3.897
   69TCM     h1  511   2.774   4.477   4.094
   69TCM    cl3  512   2.784   4.282   3.956
   70TCM     c1  513   4.615   1.536   0.344
   70TCM    cl1  514   4.563   1.378   0.410
   70TCM    cl2  515   4.478   1.651   0.349
   70TCM     h1  516   4.698   1.575   0.405
   70TCM    cl3  517   4.669   1.514   0.175
   71TCM     c1  518   2.846   4.712   4.381
   71TCM    cl1  519   2.935   4.556   4.387
   71TCM    cl2  520   2.752   4.719   4.228
   71TCM     h1  521   2.777   4.718   4.466
   71TCM    cl3  522   2.963   4.847   4.388
   72TCM     c1  523   3.678   3.963   2.049
   72TCM    cl1  524   3.576   3.976   1.902
   72TCM    cl2  525   3.638   3.812   2.137
   72TCM     h1  526   3.784   3.961   2.020
   72TCM    cl3  527   3.647   4.104   2.155
   73TCM     c1  528   1.008   0.232   3.086
   73TCM    cl1  529   0.834   0.271   3.105
   73TCM    cl2  530   1.059   0.272   2.918
   73TCM     h1  531   1.067   0.290   3.157
   73TCM    cl3  532   1.034   0.057   3.116
   74TCM     c1  533   0.630   1.336   2.518
   74TCM    cl1  534   0.552   1.359   2.358
   74TCM    cl2  535   0.541   1.427   2.644
   74TCM     h1  536   0.630   1.229   2.543
   74TCM    cl3  537   0.799   1.395   2.509
   75TCM     c1  538   1.074   0.736   2.015
   75TCM    cl1  539   1.022   0.573   2.068
   75TCM    cl2  540   1.074   0.742   1.836
   75TCM     h1  541   1.005   0.811   2.055
   75TCM    cl3  542   1.239   0.769   2.076
   76TCM     c1  543   2.766   0.796   3.822
   76TCM    cl1  544   2.747   0.939   3.928
   76TCM    cl2  545   2.681   0.825   3.667
   76TCM     h1  546   2.872   0.779   3.803
   76TCM    cl3  547   2.695   0.653   3.904
   77TCM     c1  548   4.512   4.972   0.971
   77TCM    cl1  549   4.479   5.112   0.862
   77TCM    cl2  550   4.566   5.033   1.131
   77TCM     h1  551   4.420   4.914   0.983
   77TCM    cl3  552   4.640   4.869   0.898
   78TCM     c1  553   0.496   4.259   0.138
   78TCM    cl1  554   0.443   4.403   0.045
   78TCM    cl2  555   0.491   4.114   0.034
   78TCM     h1  556   0.598   4.275   0.175
   78TCM    cl3  557   0.386   4.236   0.278
   79TCM     c1  558   2.471   3.220   1.821
   79TCM    cl1  559   2.453   3.398   1.808
   79TCM    cl2  560   2.421   3.169   1.986
   79TCM     h1  561   2.407   3.171   1.747
   79TCM    cl3  562   2.642   3.174   1.794
   80TCM     c1  563   0.453   3.004   0.783
   80TCM    cl1  564   0.490   2.837   0.725
   80TCM    cl2  565   0.526   3.027   0.945
   80TCM     h1  566   0.495   3.077   0.713
   80TCM    cl3  567   0.275   3.024   0.793
   81TCM     c1  568   3.196   3.524   0.967
   81TCM    cl1  569   3.099   3.573   1.110
   81TCM    cl2  570   3.278   3.669   0.899
   81TCM     h1  571   3.271   3.450   0.996
   81TCM    cl3  572   3.087   3.453   0.843
   82TCM     c1  573   2.995   2.908   4.854
   82TCM    cl1  574   2.908   3.063   4.825
   82TCM    cl2  575   3.042   2.898   5.027
   82TCM     h1  576   2.929   2.825   4.829
   82TCM    cl3  577   3.142   2.902   4.752
   83TCM     c1  578   0.996   1.173   1.850
   83TCM    cl1  579   1.146   1.213   1.759
   83TCM    cl2  580   1.039   1.089   2.003
   83TCM     h1  581   0.942   1.265   1.872
   83TCM    cl3  582   0.892   1.065   1.752
   84TCM     c1  583   1.908   2.550   4.786
   84TCM    cl1  584   1.979   2.708   4.738
   84TCM    cl2  585   1.899   2.445   4.641
   84TCM     h1  586   1.971   2.503   4.862
   84TCM    cl3  587   1.743   2.576   4.851
   85TCM     c1  588   2.124   3.893   3.948
   85TCM    cl1  589   2.199   3.740   3.893
   85TCM    cl2  590   2.116   3.895   4.127
   85TCM     h1  591   2.183   3.978   3.913
   85TCM    cl3  592   1.958   3.905   3.881
   86TCM     c1  593   0.629   0.188   4.996
   86TCM    cl1  594   0.751   0.104   4.895
   86TCM    cl2  595   0.710   0.315   5.095
   86TCM     h1  596   0.555   0.236   4.932
   86TCM    cl3  597   0.548   0.069   5.103
   87TCM     c1  598   1.068   0.619   3.007
   87TCM    cl1  599   1.138   0.783   2.982
   87TCM    cl2  600   0.889   0.629   3.006
   87TCM     h1  601   1.101   0.553   2.926
   87TCM    cl3  602   1.125   0.554   3.164
   88TCM     c1  603   4.495   2.869   3.225
   88TCM    cl1  604   4.442   2.843   3.056
   88TCM    cl2  605   4.500   3.045   3.259
   88TCM     h1  606   4.426   2.820   3.294
   88TCM    cl3  607   4.660   2.800   3.247
   89TCM     c1  608   3.082   4.557   0.185
   89TCM    cl1  609   3.242   4.611   0.125
   89TCM    cl2  610   2.955   4.655   0.106
   89TCM     h1  611   3.068   4.452   0.161
   89TCM    cl3  612   3.073   4.581   0.362
   90TCM     c1  613   1.935   0.028   3.575
   90TCM    cl1  614   1.780   0.007   3.488
   90TCM    cl2  615   1.908  -0.009   3.748
   90TCM     h1  616   2.011  -0.038   3.534
   90TCM    cl3  617   1.987   0.199   3.559
   91TCM     c1  618   0.895   0.722   4.011
   91TCM    cl1  619   0.924   0.545   4.023
   91TCM    cl2  620   0.718   0.752   4.001
   91TCM     h1  621   0.936   0.772   4.099
   91TCM    cl3  622   0.975   0.784   3.863
   92TCM     c1  623   2.170   0.041   2.433
   92TCM    cl1  624   2.104   0.203   2.392
   92TCM    cl2  625   2.060  -0.086   2.370
   92TCM     h1  626   2.269   0.030   2.388
   92TCM    cl3  627   2.182   0.025   2.612
   93TCM     c1  628   1.080   1.177   2.386
   93TCM    cl1  629   1.189   1.047   2.327
   93TCM    cl2  630   1.099   1.322   2.281
   93TCM     h1  631   0.976   1.143   2.382
   93TCM    cl3  632   1.122   1.218   2.555
   94TCM     c1  633   1.378   1.702   0.021
   94TCM    cl1  634   1.388   1.757  -0.150
   94TCM    cl2  635   1.540   1.715   0.098
   94TCM     h1  636   1.307   1.764   0.076
   94TCM    cl3  637   1.324   1.531   0.023
   95TCM     c1  638   4.341   2.959   2.382
   95TCM    cl1  639   4.461   2.906   2.260
   95TCM    cl2  640   4.425   3.007   2.534
   95TCM     h1  641   4.286   3.045   2.343
   95TCM    cl3  642   4.227   2.825   2.416
   96TCM     c1  643   2.930   4.616   1.320
   96TCM    cl1  644   2.972   4.784   1.370
   96TCM    cl2  645   2.869   4.526   1.462
   96TCM     h1  646   2.853   4.619   1.242
   96TCM    cl3  647   3.076   4.534   1.258
   97TCM     c1  648   4.187   2.372   2.933
   97TCM    cl1  649   4.292   2.462   3.047
   97TCM    cl2  650   4.108   2.236   3.019
   97TCM     h1  651   4.111   2.440   2.893
   97TCM    cl3  652   4.287   2.307   2.799
   98TCM     c1  653   4.053   0.517   3.503
   98TCM    cl1  654   4.179   0.492   3.629
   98TCM    cl2  655   4.109   0.444   3.348
   98TCM     h1  656   3.960   0.469   3.535
   98TCM    cl3  657   4.025   0.692   3.480
   99TCM     c1  658   4.126   0.951   3.025
   99TCM    cl1  659   3.953   0.993   3.001
   99TCM    cl2  660   4.140   0.830   3.157
   99TCM     h1  661   4.167   0.909   2.932
   99TCM    cl3  662   4.217   1.098   3.069
  100TCM     c1  663   2.038   0.238   3.132
  100TCM    cl1  664   1.880   0.325   3.142
  100TCM    cl2  665   2.079   0.209   2.959
  100TCM     h1  666   2.116   0.299   3.178
  100TCM    cl3  667   2.025   0.081   3.217
  101TCM     c1  668   0.207   4.426   3.468
  101TCM    cl1  669   0.328   4.508   3.573
  101TCM    cl2  670   0.209   4.250   3.501
  101TCM     h1  671   0.108   4.466   3.489
  101TCM    cl3  672   0.248   4.453   3.296
  102TCM     c1  673   0.300   1.829   4.855
  102TCM    cl1  674   0.439   1.855   4.965
  102TCM    cl2  675   0.279   1.653   4.826
  102TCM     h1  676   0.210   1.869   4.901
  102TCM    cl3  677   0.331   1.913   4.700
  103TCM     c1  678   1.013   4.937   0.185
  103TCM    cl1  679   1.157   4.937   0.078
  103TCM    cl2  680   0.882   4.842   0.109
  103TCM     h1  681   1.039   4.894   0.282
  103TCM    cl3  682   0.958   5.106   0.208
  104TCM     c1  683   0.640   2.202   1.195
  104TCM    cl1  684   0.617   2.202   1.373
  104TCM    cl2  685   0.777   2.094   1.154
  104TCM     h1  686   0.549   2.166   1.147
  104TCM    cl3  687   0.677   2.368   1.139
  105TCM     c1  688   4.808   1.555   2.182
  105TCM    cl1  689   4.892   1.688   2.269
  105TCM    cl2  690   4.839   1.400   2.267
  105TCM     h1  691   4.701   1.574   2.180
  105TCM    cl3  692   4.872   1.545   2.015
  106TCM     c1  693   2.713   1.238   2.529
  106TCM    cl1  694   2.801   1.111   2.622
  106TCM    cl2  695   2.537   1.224   2.562
  106TCM     h1  696   2.749   1.337   2.558
  106TCM    cl3  697   2.743   1.213   2.354
  107TCM     c1  698   3.228   0.446   2.767
  107TCM    cl1  699   3.133   0.298   2.805
  107TCM    cl2  700   3.187   0.575   2.885
  107TCM     h1  701   3.335   0.423   2.772
  107TCM    cl3  702   3.186   0.501   2.601
  108TCM     c1  703   2.271   4.401   1.098
  108TCM    cl1  704   2.294   4.557   1.184
  108TCM    cl2  705   2.283   4.428   0.921
  108TCM     h1  706   2.348   4.331   1.129
  108TCM    cl3  707   2.109   4.335   1.140
  109TCM     c1  708   0.307   3.168   4.002
  109TCM    cl1  709   0.159   3.266   4.025
  109TCM    cl2  710   0.391   3.223   3.853
  109TCM     h1  711   0.374   3.180   4.088
  109TCM    cl3  712   0.263   2.995   3.984
  110TCM     c1  713   2.421   4.865   1.971
  110TCM    cl1  714   2.328   4.973   2.080
  110TCM    cl2  715   2.319   4.723   1.930
  110TCM     h1  716   2.447   4.919   1.879
  110TCM    cl3  717   2.570   4.810   2.053
  111TCM     c1  718   2.452   4.771   3.391
  111TCM    cl1  719   2.297   4.858   3.366
  111TCM    cl2  720   2.461   4.708   3.559
  111TCM     h1  721   2.459   4.687   3.321
  111TCM    cl3  722   2.588   4.884   3.364
  112TCM     c1  723   3.516   3.487   4.735
  112TCM    cl1  724   3.404   3.469   4.596
  112TCM    cl2  725   3.672   3.555   4.678
  112TCM     h1  726   3.472   3.554   4.809
  112TCM    cl3  727   3.546   3.326   4.808
  113TCM     c1  728   1.636   0.068   4.677
  113TCM    cl1  729   1.474  -0.002   4.711
  113TCM    cl2  730   1.762  -0.052   4.720
  113TCM     h1  731   1.643   0.093   4.571
  113TCM    cl3  732   1.657   0.216   4.776
  114TCM     c1  733   3.282   3.677   1.841
  114TCM    cl1  734   3.147   3.567   1.799
  114TCM    cl2  735   3.328   3.653   2.013
  114TCM     h1  736   3.368   3.655   1.777
  114TCM    cl3  737   3.230   3.847   1.816
  115TCM     c1  738   0.111   2.613   1.952
  115TCM    cl1  739   0.112   2.767   2.043
  115TCM    cl2  740   0.012   2.632   1.803
  115TCM     h1  741   0.213   2.585   1.925
  115TCM    cl3  742   0.040   2.485   2.056
  116TCM     c1  743   1.797   0.702   3.544
  116TCM    cl1  744   1.893   0.819   3.448
  116TCM    cl2  745   1.814   0.538   3.473
  116TCM     h1  746   1.832   0.702   3.647
  116TCM    cl3  747   1.624   0.750   3.540
  117TCM     c1  748   1.597   4.621   3.491
  117TCM    cl1  749   1.435   4.573   3.553
  117TCM    cl2  750   1.577   4.715   3.340
  117TCM     h1  751   1.649   4.681   3.566
  117TCM    cl3  752   1.693   4.473   3.456
  118TCM     c1  753   1.289   3.217   3.806
  118TCM    cl1  754   1.413   3.165   3.925
  118TCM    cl2  755   1.296   3.110   3.662
  118TCM     h1  756   1.189   3.211   3.851
  118TCM    cl3  757   1.321   3.386   3.756
  119TCM     c1  758   4.731   2.270   2.403
  119TCM    cl1  759   4.761   2.421   2.312
  119TCM    cl2  760   4.600   2.296   2.523
  119TCM     h1  761   4.702   2.191   2.334
  119TCM    cl3  762   4.882   2.221   2.489
  120TCM     c1  763   2.446   1.281   1.836
  120TCM    cl1  764   2.310   1.227   1.940
  120TCM    cl2  765   2.498   1.446   1.886
  120TCM     h1  766   2.530   1.212   1.846
  120TCM    cl3  767   2.392   1.286   1.665
  121TCM     c1  768   1.487   0.007   3.690
  121TCM    cl1  769   1.368   0.087   3.799
  121TCM    cl2  770   1.408  -0.027   3.532
  121TCM     h1  771   1.572   0.073   3.675
  121TCM    cl3  772   1.543  -0.146   3.764
  122TCM     c1  773   4.203   3.534   2.672
  122TCM    cl1  774   4.252   3.384   2.586
  122TCM    cl2  775   4.034   3.517   2.730
  122TCM     h1  776   4.269   3.551   2.757
  122TCM    cl3  777   4.213   3.673   2.559
  123TCM     c1  778   4.153   1.114   3.703
  123TCM    cl1  779   4.089   0.949   3.735
  123TCM    cl2  780   4.308   1.136   3.790
  123TCM     h1  781   4.170   1.125   3.595
  123TCM    cl3  782   4.034   1.236   3.758
  124TCM     c1  783   3.756   1.886   2.432
  124TCM    cl1  784   3.656   1.789   2.320
  124TCM    cl2  785   3.660   2.025   2.493
  124TCM     h1  786   3.789   1.824   2.516
  124TCM    cl3  787   3.899   1.949   2.343
  125TCM     c1  788   4.823   4.064   3.399
  125TCM    cl1  789   4.970   3.966   3.430
  125TCM    cl2  790   4.718   3.979   3.281
  125TCM     h1  791   4.769   4.079   3.492
  125TCM    cl3  792   4.870   4.224   3.332
  126TCM     c1  793   0.417   1.796   0.327
  126TCM    cl1  794   0.446   1.762   0.500
  126TCM    cl2  795   0.298   1.930   0.312
  126TCM     h1  796   0.511   1.824   0.279
  126TCM    cl3  797   0.350   1.649   0.249
  127TCM     c1  798   3.575   1.536   3.406
  127TCM    cl1  799   3.469   1.642   3.506
  127TCM    cl2  800   3.571   1.590   3.235
  127TCM     h1  801   3.677   1.542   3.444
  127TCM    cl3  802   3.516   1.367   3.417
  128TCM     c1  803   1.291   2.322   2.808
  128TCM    cl1  804   1.313   2.343   2.631
  128TCM    cl2  805   1.185   2.180   2.837
  128TCM     h1  806   1.388   2.306   2.855
  128TCM    cl3  807   1.214   2.469   2.877
  129TCM     c1  808   0.365   2.701   0.084
  129TCM    cl1  809   0.429   2.866   0.053
  129TCM    cl2  810   0.342   2.679   0.261
  129TCM     h1  811   0.270   2.688   0.033
  129TCM    cl3  812   0.483   2.580   0.023
  130TCM     c1  813   0.750   4.624   4.814
  130TCM    cl1  814   0.765   4.534   4.969
  130TCM    cl2  815   0.590   4.589   4.740
  130TCM     h1  816   0.760   4.731   4.832
  130TCM    cl3  817   0.880   4.568   4.703
  131TCM     c1  818   4.794   4.578   0.035
  131TCM    cl1  819   4.912   4.567  -0.099
  131TCM    cl2  820   4.726   4.416   0.069
  131TCM     h1  821   4.845   4.616   0.125
  131TCM    cl3  822   4.662   4.690  -0.010
  132TCM     c1  823   0.603   1.322   0.501
  132TCM    cl1  824   0.746   1.215   0.517
  132TCM    cl2  825   0.615   1.417   0.349
  132TCM     h1  826   0.512   1.262   0.500
  132TCM    cl3  827   0.597   1.434   0.642
  133TCM     c1  828   2.454   0.219   3.290
  133TCM    cl1  829   2.312   0.268   3.389
  133TCM    cl2  830   2.555   0.362   3.254
  133TCM     h1  831   2.513   0.146   3.346
  133TCM    cl3  832   2.396   0.145   3.137
  134TCM     c1  833   0.497   1.411   3.103
  134TCM    cl1  834   0.599   1.444   3.248
  134TCM    cl2  835   0.552   1.261   3.022
  134TCM     h1  836   0.393   1.400   3.133
  134TCM    cl3  837   0.513   1.550   2.990
  135TCM     c1  838   0.178   4.316   4.810
  135TCM    cl1  839   0.327   4.257   4.728
  135TCM    cl2  840   0.143   4.212   4.952
  135TCM     h1  841   0.192   4.419   4.842
  135TCM    cl3  842   0.041   4.306   4.695
  136TCM     c1  843   4.215   1.155   2.031
  136TCM    cl1  844   4.324   1.197   2.167
  136TCM    cl2  845   4.059   1.241   2.051
  136TCM     h1  846   4.262   1.184   1.937
  136TCM    cl3  847   4.185   0.978   2.031
  137TCM     c1  848   1.413   0.574   1.826
  137TCM    cl1  849   1.537   0.549   1.954
  137TCM    cl2  850   1.298   0.436   1.826
  137TCM     h1  851   1.359   0.666   1.846
  137TCM    cl3  852   1.494   0.585   1.666
  138TCM     c1  853   2.100   1.604   3.222
  138TCM    cl1  854   1.969   1.701   3.147
  138TCM    cl2  855   2.117   1.653   3.394
  138TCM     h1  856   2.075   1.498   3.216
  138TCM    cl3  857   2.254   1.636   3.137
  139TCM     c1  858   2.531   3.569   3.837
  139TCM    cl1  859   2.582   3.741   3.837
  139TCM    cl2  860   2.471   3.526   4.001
  139TCM     h1  861   2.451   3.554   3.764
  139TCM    cl3  862   2.671   3.464   3.795
  140TCM     c1  863   0.612   1.254   3.592
  140TCM    cl1  864   0.672   1.160   3.451
  140TCM    cl2  865   0.443   1.308   3.563
  140TCM     h1  866   0.616   1.191   3.681
  140TCM    cl3  867   0.716   1.399   3.615
  141TCM     c1  868   0.885   4.113   1.578
  141TCM    cl1  869   0.918   4.031   1.422
  141TCM    cl2  870   0.872   3.991   1.709
  141TCM     h1  871   0.968   4.181   1.601
  141TCM    cl3  872   0.732   4.207   1.566
  142TCM     c1  873   3.421   4.071   2.600
  142TCM    cl1  874   3.570   4.117   2.689
  142TCM    cl2  875   3.463   3.960   2.465
  142TCM     h1  876   3.351   4.020   2.668
  142TCM    cl3  877   3.343   4.218   2.533
  143TCM     c1  878   0.466   2.342   3.278
  143TCM    cl1  879   0.445   2.466   3.150
  143TCM    cl2  880   0.533   2.191   3.208
  143TCM     h1  881   0.535   2.380   3.354
  143TCM    cl3  882   0.307   2.307   3.354
  144TCM     c1  883   1.677   3.688   1.593
  144TCM    cl1  884   1.767   3.688   1.437
  144TCM    cl2  885   1.614   3.852   1.624
  144TCM     h1  886   1.594   3.617   1.586
  144TCM    cl3  887   1.787   3.639   1.726
  145TCM     c1  888   1.456   1.516   2.514
  145TCM    cl1  889   1.278   1.535   2.520
  145TCM    cl2  890   1.497   1.345   2.478
  145TCM     h1  891   1.497   1.580   2.435
  145TCM    cl3  892   1.526   1.562   2.672
  146TCM     c1  893   4.110   0.013   4.018
  146TCM    cl1  894   4.249   0.002   3.905
  146TCM    cl2  895   4.164  -0.033   4.183
  146TCM     h1  896   4.071   0.115   4.019
  146TCM    cl3  897   3.980  -0.100   3.966
  147TCM     c1  898   0.093   4.705   4.496
  147TCM    cl1  899   0.206   4.630   4.614
  147TCM    cl2  900   0.140   4.876   4.469
  147TCM     h1  901   0.098   4.650   4.401
  147TCM    cl3  902  -0.074   4.699   4.560
  148TCM     c1  903   0.958   1.606   0.530
  148TCM    cl1  904   0.807   1.694   0.490
  148TCM    cl2  905   0.982   1.473   0.412
  148TCM     h1  906   1.043   1.675   0.526
  148TCM    cl3  907   0.945   1.536   0.695
  149TCM     c1  908   2.734   2.870   0.202
  149TCM    cl1  909   2.671   2.899   0.036
  149TCM    cl2  910   2.754   2.694   0.227
  149TCM     h1  911   2.831   2.920   0.213
  149TCM    cl3  912   2.618   2.936   0.321
  150TCM     c1  913   3.634   1.228   3.097
  150TCM    cl1  914   3.582   1.148   2.946
  150TCM    cl2  915   3.781   1.326   3.066
  150TCM     h1  916   3.554   1.292   3.135
  150TCM    cl3  917   3.673   1.102   3.219
  151TCM     c1  918   3.471   0.250   1.853
  151TCM    cl1  919   3.625   0.340   1.874
  151TCM    cl2  920   3.489   0.126   1.724
  151TCM     h1  921   3.444   0.201   1.947
  151TCM    cl3  922   3.343   0.365   1.806
  152TCM     c1  923   3.709   2.419   1.526
  152TCM    cl1  924   3.776   2.414   1.693
  152TCM    cl2  925   3.532   2.395   1.533
  152TCM     h1  926   3.731   2.516   1.482
  152TCM    cl3  927   3.784   2.290   1.427
  153TCM     c1  928   2.901   4.124   2.620
  153TCM    cl1  929   2.791   4.153   2.759
  153TCM    cl2  930   3.051   4.046   2.679
  153TCM     h1  931   2.851   4.059   2.547
  153TCM    cl3  932   2.942   4.281   2.543
  154TCM     c1  933   4.123   0.983   2.595
  154TCM    cl1  934   4.070   0.830   2.672
  154TCM    cl2  935   4.184   0.947   2.430
  154TCM     h1  936   4.039   1.053   2.588
  154TCM    cl3  937   4.255   1.055   2.693
  155TCM     c1  938   0.932   2.033   4.778
  155TCM    cl1  939   0.828   2.036   4.923
  155TCM    cl2  940   1.045   1.893   4.789
  155TCM     h1  941   0.870   2.022   4.688
  155TCM    cl3  942   1.025   2.186   4.768
  156TCM     c1  943   2.363   4.530   4.451
  156TCM    cl1  944   2.529   4.464   4.462
  156TCM    cl2  945   2.245   4.401   4.494
  156TCM     h1  946   2.352   4.613   4.521
  156TCM    cl3  947   2.330   4.590   4.285
  157TCM     c1  948   2.162   4.863   0.083
  157TCM    cl1  949   2.070   4.911   0.229
  157TCM    cl2  950   2.267   4.999   0.030
  157TCM     h1  951   2.224   4.776   0.106
  157TCM    cl3  952   2.048   4.823  -0.049
  158TCM     c1  953   1.794   1.185   3.064
  158TCM    cl1  954   1.830   1.075   3.202
  158TCM    cl2  955   1.786   1.087   2.914
  158TCM     h1  956   1.699   1.235   3.081
  158TCM    cl3  957   1.925   1.307   3.050
  159TCM     c1  958   1.894   2.094   0.119
  159TCM    cl1  959   1.911   2.238   0.013
  159TCM    cl2  960   2.017   1.971   0.072
  159TCM     h1  961   1.909   2.123   0.223
  159TCM    cl3  962   1.730   2.024   0.098
  160TCM     c1  963   2.167   1.739   1.813
  160TCM    cl1  964   2.027   1.797   1.909
  160TCM    cl2  965   2.156   1.561   1.794
  160TCM     h1  966   2.166   1.786   1.715
  160TCM    cl3  967   2.318   1.781   1.900
  161TCM     c1  968   2.588   2.791   0.681
  161TCM    cl1  969   2.601   2.744   0.854
  161TCM    cl2  970   2.416   2.798   0.633
  161TCM     h1  971   2.634   2.889   0.666
  161TCM    cl3  972   2.673   2.669   0.581
  162TCM     c1  973   2.741   1.889   2.044
  162TCM    cl1  974   2.745   2.031   2.154
  162TCM    cl2  975   2.660   1.936   1.891
  162TCM     h1  976   2.843   1.856   2.023
  162TCM    cl3  977   2.648   1.756   2.121
  163TCM     c1  978   4.623   4.553   2.659
  163TCM    cl1  979   4.675   4.648   2.802
  163TCM    cl2  980   4.704   4.618   2.512
  163TCM     h1  981   4.651   4.448   2.673
  163TCM    cl3  982   4.445   4.565   2.640
  164TCM     c1  983   3.069   0.233   4.617
  164TCM    cl1  984   3.131   0.269   4.782
  164TCM    cl2  985   3.092   0.378   4.514
  164TCM     h1  986   3.124   0.149   4.574
  164TCM    cl3  987   2.895   0.192   4.628
  165TCM     c1  988   3.577   3.965   4.026
  165TCM    cl1  989   3.415   3.887   4.018
  165TCM    cl2  990   3.558   4.143   4.011
  165TCM     h1  991   3.624   3.942   4.122
  165TCM    cl3  992   3.679   3.904   3.892
  166TCM     c1  993   1.906   1.295   2.532
  166TCM    cl1  994   1.824   1.141   2.488
  166TCM    cl2  995   1.829   1.363   2.679
  166TCM     h1  996   2.012   1.276   2.551
  166TCM    cl3  997   1.890   1.412   2.397
  167TCM     c1  998   2.681   0.096   4.910
  167TCM    cl1  999   2.749  -0.069   4.930
  167TCM    cl2 1000   2.600   0.145   5.063
  167TCM     h1 1001   2.762   0.166   4.887
  167TCM    cl3 1002   2.561   0.096   4.777
  168TCM     c1 1003   2.414   2.738   1.824
  168TCM    cl1 1004   2.466   2.801   1.984
  168TCM    cl2 1005   2.376   2.876   1.716
  168TCM     h1 1006   2.494   2.678   1.780
  168TCM    cl3 1007   2.267   2.636   1.845
  169TCM     c1 1008   0.880   4.665   1.540
  169TCM    cl1 1009   0.776   4.798   1.598
  169TCM    cl2 1010   1.029   4.733   1.466
  169TCM     h1 1011   0.908   4.600   1.624
  169TCM    cl3 1012   0.792   4.568   1.417
  170TCM     c1 1013   3.793   2.282   4.624
  170TCM    cl1 1014   3.727   2.350   4.776
  170TCM    cl2 1015   3.769   2.104   4.623
  170TCM     h1 1016   3.741   2.326   4.538
  170TCM    cl3 1017   3.968   2.318   4.614
  171TCM     c1 1018   1.726   4.657   0.005
  171TCM    cl1 1019   1.725   4.482  -0.033
  171TCM    cl2 1020   1.766   4.679   0.179
  171TCM     h1 1021   1.802   4.707  -0.057
  171TCM    cl3 1022   1.565   4.728  -0.030
  172TCM     c1 1023   3.268   3.508   0.486
  172TCM    cl1 1024   3.142   3.383   0.459
  172TCM    cl2 1025   3.390   3.446   0.601
  172TCM     h1 1026   3.316   3.532   0.391
  172TCM    cl3 1027   3.191   3.655   0.553
  173TCM     c1 1028   4.540   0.959   0.544
  173TCM    cl1 1029   4.468   1.100   0.629
  173TCM    cl2 1030   4.660   1.016   0.424
  173TCM     h1 1031   4.589   0.894   0.617
  173TCM    cl3 1032   4.410   0.867   0.460
  174TCM     c1 1033   3.846   1.807   1.985
  174TCM    cl1 1034   3.801   1.723   1.833
  174TCM    cl2 1035   3.945   1.952   1.945
  174TCM     h1 1036   3.756   1.838   2.038
  174TCM    cl3 1037   3.943   1.695   2.086
  175TCM     c1 1038   3.914   1.512   4.985
  175TCM    cl1 1039   3.982   1.359   4.920
  175TCM    cl2 1040   3.779   1.567   4.881
  175TCM     h1 1041   3.878   1.496   5.087
  175TCM    cl3 1042   4.042   1.638   4.988
  176TCM     c1 1043   3.954   3.176   4.943
  176TCM    cl1 1044   4.047   3.250   5.078
  176TCM    cl2 1045   3.799   3.110   5.006
  176TCM     h1 1046   3.933   3.252   4.867
  176TCM    cl3 1047   4.051   3.044   4.870
  177TCM     c1 1048   0.929   0.361   3.615
  177TCM    cl1 1049   1.089   0.360   3.697
  177TCM    cl2 1050   0.955   0.358   3.437
  177TCM     h1 1051   0.871   0.273   3.644
  177TCM    cl3 1052   0.840   0.510   3.660
  178TCM     c1 1053   3.302   4.961   1.239
  178TCM    cl1 1054   3.330   4.785   1.218
  178TCM    cl2 1055   3.308   5.042   1.079
  178TCM     h1 1056   3.205   4.977   1.285
  178TCM    cl3 1057   3.431   5.028   1.345
  179TCM     c1 1058   0.912   0.146   4.058
  179TCM    cl1 1059   1.080   0.210   4.046
  179TCM    cl2 1060   0.815   0.206   3.919
  179TCM     h1 1061   0.915   0.037   4.056
  179TCM    cl3 1062   0.838   0.202   4.212
  180TCM     c1 1063   3.076   0.215   3.415
  180TCM    cl1 1064   3.097   0.334   3.282
  180TCM    cl2 1065   2.983   0.290   3.548
  180TCM     h1 1066   3.021   0.128   3.377
  180TCM    cl3 1067   3.237   0.164   3.475
  181TCM     c1 1068   2.018   0.914   4.206
  181TCM    cl1 1069   2.070   0.823   4.061
  181TCM    cl2 1070   2.153   1.017   4.265
  181TCM     h1 1071   1.932   0.977   4.181
  181TCM    cl3 1072   1.971   0.798   4.335
  182TCM     c1 1073   3.258   0.394   0.356
  182TCM    cl1 1074   3.428   0.391   0.413
  182TCM    cl2 1075   3.171   0.251   0.419
  182TCM     h1 1076   3.209   0.485   0.393
  182TCM    cl3 1077   3.255   0.392   0.177
  183TCM     c1 1078   1.568   2.026   2.574
  183TCM    cl1 1079   1.555   2.084   2.744
  183TCM    cl2 1080   1.683   1.889   2.567
  183TCM     h1 1081   1.470   1.993   2.539
  183TCM    cl3 1082   1.626   2.161   2.470
  184TCM     c1 1083   4.919   3.919   4.588
  184TCM    cl1 1084   5.053   3.915   4.469
  184TCM    cl2 1085   4.813   4.059   4.554
  184TCM     h1 1086   4.861   3.826   4.580
  184TCM    cl3 1087   4.986   3.933   4.754
  185TCM     c1 1088   0.794   0.920   2.805
  185TCM    cl1 1089   0.804   1.085   2.733
  185TCM    cl2 1090   0.752   0.802   2.676
  185TCM     h1 1091   0.890   0.894   2.849
  185TCM    cl3 1092   0.667   0.917   2.931
  186TCM     c1 1093   4.371   0.837   3.528
  186TCM    cl1 1094   4.513   0.855   3.636
  186TCM    cl2 1095   4.395   0.694   3.423
  186TCM     h1 1096   4.281   0.823   3.589
  186TCM    cl3 1097   4.354   0.983   3.426
  187TCM     c1 1098   0.075   4.552   0.376
  187TCM    cl1 1099   0.183   4.692   0.409
  187TCM    cl2 1100   0.103   4.492   0.210
  187TCM     h1 1101   0.097   4.472   0.448
  187TCM    cl3 1102  -0.096   4.603   0.394
  188TCM     c1 1103   0.615   3.077   0.275
  188TCM    cl1 1104   0.659   3.227   0.363
  188TCM    cl2 1105   0.529   2.968   0.389
  188TCM     h1 1106   0.551   3.101   0.190
  188TCM    cl3 1107   0.765   2.996   0.218
  189TCM     c1 1108   1.280   2.653   4.704
  189TCM    cl1 1109   1.131   2.625   4.800
  189TCM    cl2 1110   1.391   2.514   4.726
  189TCM     h1 1111   1.254   2.662   4.599
  189TCM    cl3 1112   1.359   2.803   4.761
  190TCM     c1 1113   0.868   2.905   0.560
  190TCM    cl1 1114   0.903   2.779   0.682
  190TCM    cl2 1115   1.021   2.951   0.476
  190TCM     h1 1116   0.797   2.868   0.486
  190TCM    cl3 1117   0.800   3.050   0.641
  191TCM     c1 1118   4.078   1.479   2.356
  191TCM    cl1 1119   4.238   1.557   2.336
  191TCM    cl2 1120   3.972   1.583   2.457
  191TCM     h1 1121   4.032   1.464   2.258
  191TCM    cl3 1122   4.098   1.319   2.436
  192TCM     c1 1123   2.143   0.303   4.212
  192TCM    cl1 1124   2.310   0.328   4.150
  192TCM    cl2 1125   2.052   0.458   4.203
  192TCM     h1 1126   2.093   0.227   4.153
  192TCM    cl3 1127   2.153   0.250   4.383
  193TCM     c1 1128   0.363   0.003   2.518
  193TCM    cl1 1129   0.398  -0.169   2.555
  193TCM    cl2 1130   0.435   0.108   2.645
  193TCM     h1 1131   0.406   0.029   2.421
  193TCM    cl3 1132   0.186   0.029   2.515
  194TCM     c1 1133   1.835   4.542   4.563
  194TCM    cl1 1134   1.842   4.365   4.586
  194TCM    cl2 1135   1.968   4.619   4.656
  194TCM     h1 1136   1.846   4.566   4.457
  194TCM    cl3 1137   1.677   4.604   4.621
  195TCM     c1 1138   4.102   4.434   1.382
  195TCM    cl1 1139   4.118   4.553   1.248
  195TCM    cl2 1140   4.258   4.421   1.469
  195TCM     h1 1141   4.024   4.467   1.451
  195TCM    cl3 1142   4.059   4.274   1.313
  196TCM     c1 1143   1.194   2.527   0.477
  196TCM    cl1 1144   1.280   2.679   0.517
  196TCM    cl2 1145   1.292   2.431   0.363
  196TCM     h1 1146   1.177   2.470   0.569
  196TCM    cl3 1147   1.036   2.567   0.401
  197TCM     c1 1148   1.280   0.590   3.901
  197TCM    cl1 1149   1.390   0.449   3.917
  197TCM    cl2 1150   1.342   0.700   3.773
  197TCM     h1 1151   1.180   0.556   3.875
  197TCM    cl3 1152   1.276   0.680   4.057
  198TCM     c1 1153   1.802   1.457   0.765
  198TCM    cl1 1154   1.754   1.307   0.679
  198TCM    cl2 1155   1.655   1.547   0.814
  198TCM     h1 1156   1.861   1.432   0.853
  198TCM    cl3 1157   1.899   1.559   0.652
  199TCM     c1 1158   1.115   4.332   1.278
  199TCM    cl1 1159   1.282   4.277   1.242
  199TCM    cl2 1160   1.075   4.475   1.177
  199TCM     h1 1161   1.044   4.251   1.255
  199TCM    cl3 1162   1.103   4.376   1.451
  200TCM     c1 1163   0.033   2.657   2.574
  200TCM    cl1 1164  -0.107   2.562   2.633
  200TCM    cl2 1165   0.101   2.579   2.427
  200TCM     h1 1166   0.001   2.759   2.550
  200TCM    cl3 1167   0.159   2.662   2.701
  201TCM     c1 1168   0.542   2.242   0.149
  201TCM    cl1 1169   0.506   2.220  -0.026
  201TCM    cl2 1170   0.602   2.087   0.217
  201TCM     h1 1171   0.619   2.319   0.160
  201TCM    cl3 1172   0.395   2.292   0.237
  202TCM     c1 1173   3.589   4.487   3.341
  202TCM    cl1 1174   3.720   4.609   3.333
  202TCM    cl2 1175   3.661   4.324   3.369
  202TCM     h1 1176   3.521   4.511   3.423
  202TCM    cl3 1177   3.498   4.487   3.186
  203TCM     c1 1178   2.293   0.952   2.329
  203TCM    cl1 1179   2.413   1.053   2.242
  203TCM    cl2 1180   2.207   1.054   2.450
  203TCM     h1 1181   2.221   0.911   2.258
  203TCM    cl3 1182   2.378   0.819   2.413
  204TCM     c1 1183   0.691   4.415   4.424
  204TCM    cl1 1184   0.580   4.328   4.312
  204TCM    cl2 1185   0.703   4.587   4.374
  204TCM     h1 1186   0.652   4.409   4.526
  204TCM    cl3 1187   0.853   4.339   4.417
  205TCM     c1 1188   2.030   4.610   3.796
  205TCM    cl1 1189   2.057   4.670   3.963
  205TCM    cl2 1190   2.120   4.713   3.680
  205TCM     h1 1191   2.065   4.507   3.788
  205TCM    cl3 1192   1.855   4.617   3.757
  206TCM     c1 1193   0.969   4.890   1.143
  206TCM    cl1 1194   0.850   4.761   1.105
  206TCM    cl2 1195   0.896   5.008   1.256
  206TCM     h1 1196   1.058   4.845   1.190
  206TCM    cl3 1197   1.017   4.974   0.992
  207TCM     c1 1198   2.412   3.214   0.911
  207TCM    cl1 1199   2.463   3.052   0.968
  207TCM    cl2 1200   2.556   3.320   0.899
  207TCM     h1 1201   2.365   3.205   0.813
  207TCM    cl3 1202   2.294   3.284   1.028
  208TCM     c1 1203   0.639   3.529   0.788
  208TCM    cl1 1204   0.509   3.642   0.737
  208TCM    cl2 1205   0.588   3.360   0.754
  208TCM     h1 1206   0.731   3.551   0.733
  208TCM    cl3 1207   0.669   3.548   0.964
  209TCM     c1 1208   3.478   2.086   2.046
  209TCM    cl1 1209   3.642   2.118   2.113
  209TCM    cl2 1210   3.470   1.914   1.994
  209TCM     h1 1211   3.403   2.104   2.123
  209TCM    cl3 1212   3.449   2.193   1.905
  210TCM     c1 1213   2.913   2.523   1.312
  210TCM    cl1 1214   2.836   2.642   1.202
  210TCM    cl2 1215   2.929   2.365   1.229
  210TCM     h1 1216   3.013   2.559   1.341
  210TCM    cl3 1217   2.812   2.504   1.459
  211TCM     c1 1218   2.614   3.286   4.279
  211TCM    cl1 1219   2.644   3.451   4.342
  211TCM    cl2 1220   2.696   3.265   4.121
  211TCM     h1 1221   2.652   3.212   4.349
  211TCM    cl3 1222   2.437   3.261   4.257
  212TCM     c1 1223   1.226   2.812   4.090
  212TCM    cl1 1224   1.121   2.946   4.034
  212TCM    cl2 1225   1.360   2.789   3.972
  212TCM     h1 1226   1.268   2.836   4.188
  212TCM    cl3 1227   1.130   2.661   4.100
  213TCM     c1 1228   1.543   2.842   3.660
  213TCM    cl1 1229   1.560   2.664   3.665
  213TCM    cl2 1230   1.565   2.900   3.492
  213TCM     h1 1231   1.444   2.870   3.696
  213TCM    cl3 1232   1.669   2.916   3.765
  214TCM     c1 1233   3.688   4.572   3.800
  214TCM    cl1 1234   3.568   4.486   3.698
  214TCM    cl2 1235   3.610   4.624   3.953
  214TCM     h1 1236   3.772   4.506   3.822
  214TCM    cl3 1237   3.748   4.716   3.711
  215TCM     c1 1238   0.210   3.201   0.391
  215TCM    cl1 1239   0.321   3.256   0.521
  215TCM    cl2 1240   0.167   3.029   0.418
  215TCM     h1 1241   0.120   3.263   0.392
  215TCM    cl3 1242   0.293   3.216   0.233
  216TCM     c1 1243   1.381   2.259   4.968
  216TCM    cl1 1244   1.365   2.084   5.001
  216TCM    cl2 1245   1.520   2.326   5.061
  216TCM     h1 1246   1.398   2.275   4.861
  216TCM    cl3 1247   1.231   2.343   5.019
  217TCM     c1 1248   0.401   1.940   2.858
  217TCM    cl1 1249   0.389   1.794   2.755
  217TCM    cl2 1250   0.564   2.013   2.840
  217TCM     h1 1251   0.325   2.012   2.827
  217TCM    cl3 1252   0.374   1.895   3.030
  218TCM     c1 1253   3.475   0.110   4.648
  218TCM    cl1 1254   3.348  -0.015   4.626
  218TCM    cl2 1255   3.474   0.165   4.819
  218TCM     h1 1256   3.573   0.069   4.623
  218TCM    cl3 1257   3.439   0.250   4.541
  219TCM     c1 1258   1.704   2.657   1.866
  219TCM    cl1 1259   1.826   2.690   1.993
  219TCM    cl2 1260   1.628   2.811   1.815
  219TCM     h1 1261   1.753   2.610   1.780
  219TCM    cl3 1262   1.578   2.547   1.932
  220TCM     c1 1263   4.055   0.553   4.053
  220TCM    cl1 1264   4.106   0.384   4.017
  220TCM    cl2 1265   3.935   0.551   4.186
  220TCM     h1 1266   4.142   0.612   4.083
  220TCM    cl3 1267   3.982   0.625   3.906
  221TCM     c1 1268   0.196   3.848   1.509
  221TCM    cl1 1269   0.121   3.954   1.386
  221TCM    cl2 1270   0.105   3.860   1.663
  221TCM     h1 1271   0.194   3.744   1.474
  221TCM    cl3 1272   0.366   3.899   1.536
  222TCM     c1 1273   0.354   1.596   0.868
  222TCM    cl1 1274   0.269   1.552   1.019
  222TCM    cl2 1275   0.373   1.774   0.861
  222TCM     h1 1276   0.453   1.548   0.866
  222TCM    cl3 1277   0.257   1.541   0.727
  223TCM     c1 1278   3.571   2.189   2.842
  223TCM    cl1 1279   3.690   2.310   2.898
  223TCM    cl2 1280   3.414   2.215   2.927
  223TCM     h1 1281   3.556   2.199   2.734
  223TCM    cl3 1282   3.632   2.024   2.879
  224TCM     c1 1283   0.146   4.719   2.891
  224TCM    cl1 1284   0.302   4.634   2.867
  224TCM    cl2 1285   0.038   4.618   2.994
  224TCM     h1 1286   0.164   4.814   2.941
  224TCM    cl3 1287   0.068   4.748   2.732
  225TCM     c1 1288   0.153   4.660   2.220
  225TCM    cl1 1289   0.031   4.669   2.352
  225TCM    cl2 1290   0.243   4.815   2.212
  225TCM     h1 1291   0.222   4.578   2.240
  225TCM    cl3 1292   0.069   4.630   2.064
  226TCM     c1 1293   0.328   2.341   2.269
  226TCM    cl1 1294   0.207   2.215   2.310
  226TCM    cl2 1295   0.380   2.319   2.099
  226TCM     h1 1296   0.283   2.440   2.281
  226TCM    cl3 1297   0.470   2.325   2.377
  227TCM     c1 1298   0.368   3.963   2.853
  227TCM    cl1 1299   0.198   3.926   2.809
  227TCM    cl2 1300   0.475   3.925   2.715
  227TCM     h1 1301   0.377   4.069   2.879
  227TCM    cl3 1302   0.414   3.863   2.995
  228TCM     c1 1303   2.236   0.545   3.767
  228TCM    cl1 1304   2.329   0.599   3.910
  228TCM    cl2 1305   2.078   0.630   3.762
  228TCM     h1 1306   2.292   0.568   3.676
  228TCM    cl3 1307   2.207   0.369   3.779
  229TCM     c1 1308   1.761   1.781   2.152
  229TCM    cl1 1309   1.649   1.807   2.015
  229TCM    cl2 1310   1.689   1.665   2.268
  229TCM     h1 1311   1.856   1.741   2.115
  229TCM    cl3 1312   1.791   1.937   2.235
  230TCM     c1 1313   1.152   3.203   2.293
  230TCM    cl1 1314   1.264   3.098   2.201
  230TCM    cl2 1315   1.194   3.375   2.263
  230TCM     h1 1316   1.049   3.185   2.261
  230TCM    cl3 1317   1.167   3.168   2.469
  231TCM     c1 1318   4.595   3.534   3.077
  231TCM    cl1 1319   4.528   3.529   2.911
  231TCM    cl2 1320   4.621   3.367   3.136
  231TCM     h1 1321   4.690   3.588   3.077
  231TCM    cl3 1322   4.478   3.617   3.185
  232TCM     c1 1323   4.318   0.907   4.454
  232TCM    cl1 1324   4.475   0.833   4.406
  232TCM    cl2 1325   4.185   0.794   4.413
  232TCM     h1 1326   4.318   0.926   4.562
  232TCM    cl3 1327   4.295   1.061   4.366
  233TCM     c1 1328   0.253   2.814   4.636
  233TCM    cl1 1329   0.403   2.908   4.667
  233TCM    cl2 1330   0.110   2.921   4.658
  233TCM     h1 1331   0.255   2.775   4.534
  233TCM    cl3 1332   0.243   2.679   4.753
  234TCM     c1 1333   0.878   1.678   0.054
  234TCM    cl1 1334   1.029   1.739   0.129
  234TCM    cl2 1335   0.736   1.749   0.137
  234TCM     h1 1336   0.876   1.706  -0.052
  234TCM    cl3 1337   0.871   1.499   0.069
  235TCM     c1 1338   1.988   2.238   1.975
  235TCM    cl1 1339   1.853   2.126   1.934
  235TCM    cl2 1340   1.980   2.380   1.865
  235TCM     h1 1341   1.978   2.271   2.079
  235TCM    cl3 1342   2.145   2.154   1.953
  236TCM     c1 1343   2.446   4.271   3.785
  236TCM    cl1 1344   2.317   4.395   3.798
  236TCM    cl2 1345   2.538   4.297   3.633
  236TCM     h1 1346   2.513   4.279   3.870
  236TCM    cl3 1347   2.372   4.108   3.783
  237TCM     c1 1348   3.200   0.291   1.494
  237TCM    cl1 1349   3.095   0.420   1.560
  237TCM    cl2 1350   3.224   0.320   1.318
  237TCM     h1 1351   3.296   0.292   1.544
  237TCM    cl3 1352   3.122   0.131   1.519
  238TCM     c1 1353   2.400   4.788   4.745
  238TCM    cl1 1354   2.326   4.633   4.796
  238TCM    cl2 1355   2.289   4.872   4.632
  238TCM     h1 1356   2.418   4.851   4.832
  238TCM    cl3 1357   2.556   4.755   4.662
  239TCM     c1 1358   2.597   1.710   3.350
  239TCM    cl1 1359   2.672   1.697   3.513
  239TCM    cl2 1360   2.572   1.545   3.284
  239TCM     h1 1361   2.500   1.761   3.358
  239TCM    cl3 1362   2.706   1.803   3.242
  240TCM     c1 1363   0.715   1.568   4.686
  240TCM    cl1 1364   0.602   1.468   4.784
  240TCM    cl2 1365   0.883   1.512   4.713
  240TCM     h1 1366   0.690   1.559   4.580
  240TCM    cl3 1367   0.701   1.739   4.738
  241TCM     c1 1368   2.994   1.072   2.929
  241TCM    cl1 1369   3.101   0.941   2.989
  241TCM    cl2 1370   3.094   1.194   2.843
  241TCM     h1 1371   2.919   1.030   2.861
  241TCM    cl3 1372   2.912   1.151   3.067
  242TCM     c1 1373   3.512   0.558   1.537
  242TCM    cl1 1374   3.423   0.623   1.396
  242TCM    cl2 1375   3.654   0.661   1.573
  242TCM     h1 1376   3.446   0.555   1.624
  242TCM    cl3 1377   3.567   0.391   1.498
  243TCM     c1 1378   0.444   0.158   0.528
  243TCM    cl1 1379   0.585   0.232   0.445
  243TCM    cl2 1380   0.444   0.203   0.701
  243TCM     h1 1381   0.352   0.193   0.481
  243TCM    cl3 1382   0.453  -0.021   0.513
  244TCM     c1 1383   0.532   3.600   3.868
  244TCM    cl1 1384   0.645   3.485   3.947
  244TCM    cl2 1385   0.371   3.587   3.946
  244TCM     h1 1386   0.570   3.702   3.878
  244TCM    cl3 1387   0.517   3.558   3.694
  245TCM     c1 1388   0.051   4.258   4.347
  245TCM    cl1 1389   0.216   4.318   4.382
  245TCM    cl2 1390   0.050   4.176   4.187
  245TCM     h1 1391   0.020   4.188   4.424
  245TCM    cl3 1392  -0.063   4.397   4.342
  246TCM     c1 1393   3.226   1.607   0.777
  246TCM    cl1 1394   3.305   1.762   0.730
  246TCM    cl2 1395   3.251   1.577   0.952
  246TCM     h1 1396   3.119   1.612   0.755
  246TCM    cl3 1397   3.301   1.473   0.683
  247TCM     c1 1398   3.234   4.204   3.611
  247TCM    cl1 1399   3.124   4.088   3.529
  247TCM    cl2 1400   3.318   4.303   3.488
  247TCM     h1 1401   3.176   4.269   3.677
  247TCM    cl3 1402   3.355   4.114   3.708
  248TCM     c1 1403   1.901   4.646   3.205
  248TCM    cl1 1404   2.033   4.543   3.139
  248TCM    cl2 1405   1.859   4.774   3.087
  248TCM     h1 1406   1.813   4.584   3.224
  248TCM    cl3 1407   1.956   4.721   3.359
  249TCM     c1 1408   2.544   0.309   2.441
  249TCM    cl1 1409   2.451   0.287   2.593
  249TCM    cl2 1410   2.546   0.483   2.397
  249TCM     h1 1411   2.646   0.273   2.454
  249TCM    cl3 1412   2.464   0.216   2.309
  250TCM     c1 1413   3.097   1.966   4.076
  250TCM    cl1 1414   3.175   1.970   4.238
  250TCM    cl2 1415   3.220   1.922   3.952
  250TCM     h1 1416   3.017   1.891   4.076
  250TCM    cl3 1417   3.029   2.127   4.039
  251TCM     c1 1418   2.975   2.424   0.315
  251TCM    cl1 1419   3.108   2.486   0.212
  251TCM    cl2 1420   2.979   2.506   0.474
  251TCM     h1 1421   2.879   2.445   0.266
  251TCM    cl3 1422   2.993   2.248   0.340
  252TCM     c1 1423   1.188   0.252   4.842
  252TCM    cl1 1424   1.033   0.280   4.757
  252TCM    cl2 1425   1.178   0.319   5.008
  252TCM     h1 1426   1.210   0.145   4.846
  252TCM    cl3 1427   1.319   0.336   4.752
  253TCM     c1 1428   0.729   1.529   1.555
  253TCM    cl1 1429   0.710   1.637   1.697
  253TCM    cl2 1430   0.846   1.399   1.597
  253TCM     h1 1431   0.633   1.485   1.529
  253TCM    cl3 1432   0.791   1.625   1.416
  254TCM     c1 1433   4.819   2.906   0.313
  254TCM    cl1 1434   4.803   2.742   0.241
  254TCM    cl2 1435   4.830   2.894   0.491
  254TCM     h1 1436   4.910   2.953   0.274
  254TCM    cl3 1437   4.676   3.004   0.268
  255TCM     c1 1438   0.438   1.531   3.862
  255TCM    cl1 1439   0.577   1.457   3.946
  255TCM    cl2 1440   0.408   1.695   3.928
  255TCM     h1 1441   0.459   1.537   3.755
  255TCM    cl3 1442   0.293   1.428   3.889
  256TCM     c1 1443   0.758   0.735   0.248
  256TCM    cl1 1444   0.619   0.780   0.143
  256TCM    cl2 1445   0.721   0.577   0.326
  256TCM     h1 1446   0.849   0.726   0.188
  256TCM    cl3 1447   0.781   0.858   0.376
  257TCM     c1 1448   3.508   4.694   4.774
  257TCM    cl1 1449   3.471   4.804   4.911
  257TCM    cl2 1450   3.480   4.524   4.824
  257TCM     h1 1451   3.444   4.718   4.689
  257TCM    cl3 1452   3.680   4.716   4.725
  258TCM     c1 1453   3.117   3.706   3.554
  258TCM    cl1 1454   2.964   3.645   3.626
  258TCM    cl2 1455   3.201   3.571   3.471
  258TCM     h1 1456   3.094   3.785   3.482
  258TCM    cl3 1457   3.222   3.771   3.684
  259TCM     c1 1458   2.692   4.237   3.119
  259TCM    cl1 1459   2.712   4.415   3.102
  259TCM    cl2 1460   2.603   4.202   3.271
  259TCM     h1 1461   2.636   4.199   3.033
  259TCM    cl3 1462   2.853   4.159   3.125
  260TCM     c1 1463   3.246   1.000   2.534
  260TCM    cl1 1464   3.134   1.123   2.466
  260TCM    cl2 1465   3.152   0.883   2.632
  260TCM     h1 1466   3.295   0.947   2.452
  260TCM    cl3 1467   3.369   1.080   2.638
  261TCM     c1 1468   4.536   1.812   4.871
  261TCM    cl1 1469   4.698   1.737   4.893
  261TCM    cl2 1470   4.418   1.737   4.983
  261TCM     h1 1471   4.543   1.919   4.892
  261TCM    cl3 1472   4.481   1.788   4.702
  262TCM     c1 1473   2.913   2.088   0.718
  262TCM    cl1 1474   2.971   1.922   0.683
  262TCM    cl2 1475   3.049   2.203   0.691
  262TCM     h1 1476   2.830   2.113   0.651
  262TCM    cl3 1477   2.859   2.100   0.888
  263TCM     c1 1478   4.514   4.726   1.323
  263TCM    cl1 1479   4.590   4.588   1.408
  263TCM    cl2 1480   4.374   4.786   1.419
  263TCM     h1 1481   4.587   4.806   1.311
  263TCM    cl3 1482   4.456   4.673   1.162
  264TCM     c1 1483   4.517   0.700   3.090
  264TCM    cl1 1484   4.383   0.581   3.078
  264TCM    cl2 1485   4.490   0.831   2.971
  264TCM     h1 1486   4.520   0.742   3.190
  264TCM    cl3 1487   4.673   0.617   3.055
  265TCM     c1 1488   3.362   2.127   0.513
  265TCM    cl1 1489   3.352   2.274   0.411
  265TCM    cl2 1490   3.532   2.070   0.519
  265TCM     h1 1491   3.327   2.149   0.614
  265TCM    cl3 1492   3.259   1.998   0.441
  266TCM     c1 1493   1.834   0.144   2.699
  266TCM    cl1 1494   1.729   0.132   2.844
  266TCM    cl2 1495   1.870   0.317   2.666
  266TCM     h1 1496   1.927   0.090   2.717
  266TCM    cl3 1497   1.749   0.074   2.558
  267TCM     c1 1498   1.228   4.531   4.810
  267TCM    cl1 1499   1.294   4.669   4.716
  267TCM    cl2 1500   1.137   4.593   4.952
  267TCM     h1 1501   1.161   4.472   4.746
  267TCM    cl3 1502   1.362   4.427   4.867
  268TCM     c1 1503   4.873   0.223   4.602
  268TCM    cl1 1504   5.052   0.207   4.606
  268TCM    cl2 1505   4.819   0.316   4.746
  268TCM     h1 1506   4.844   0.277   4.512
  268TCM    cl3 1507   4.798   0.060   4.603
  269TCM     c1 1508   4.383   4.576   0.191
  269TCM    cl1 1509   4.248   4.473   0.252
  269TCM    cl2 1510   4.501   4.601   0.323
  269TCM     h1 1511   4.432   4.526   0.107
  269TCM    cl3 1512   4.317   4.734   0.138
  270TCM     c1 1513   0.439   2.192   3.710
  270TCM    cl1 1514   0.559   2.295   3.624
  270TCM    cl2 1515   0.412   2.258   3.875
  270TCM     h1 1516   0.345   2.192   3.655
  270TCM    cl3 1517   0.504   2.025   3.722
  271TCM     c1 1518   3.900   1.211   1.683
  271TCM    cl1 1519   3.838   1.202   1.515
  271TCM    cl2 1520   3.925   1.382   1.729
  271TCM     h1 1521   3.828   1.165   1.751
  271TCM    cl3 1522   4.057   1.123   1.693
  272TCM     c1 1523   1.334   4.672   0.237
  272TCM    cl1 1524   1.433   4.798   0.320
  272TCM    cl2 1525   1.179   4.651   0.325
  272TCM     h1 1526   1.315   4.703   0.134
  272TCM    cl3 1527   1.423   4.516   0.236
  273TCM     c1 1528   3.160   0.994   3.705
  273TCM    cl1 1529   3.050   0.886   3.613
  273TCM    cl2 1530   3.292   0.896   3.777
  273TCM     h1 1531   3.202   1.069   3.638
  273TCM    cl3 1532   3.068   1.076   3.835
  274TCM     c1 1533   4.243   3.284   3.541
  274TCM    cl1 1534   4.329   3.362   3.405
  274TCM    cl2 1535   4.306   3.117   3.563
  274TCM     h1 1536   4.259   3.341   3.633
  274TCM    cl3 1537   4.067   3.277   3.504
  275TCM     c1 1538   1.270   0.595   0.336
  275TCM    cl1 1539   1.099   0.613   0.284
  275TCM    cl2 1540   1.277   0.561   0.512
  275TCM     h1 1541   1.316   0.512   0.281
  275TCM    cl3 1542   1.360   0.746   0.301
  276TCM     c1 1543   0.780   1.722   1.031
  276TCM    cl1 1544   0.685   1.572   1.058
  276TCM    cl2 1545   0.735   1.791   0.872
  276TCM     h1 1546   0.758   1.794   1.110
  276TCM    cl3 1547   0.955   1.684   1.034
  277TCM     c1 1548   3.372   2.862   2.349
  277TCM    cl1 1549   3.462   2.848   2.194
  277TCM    cl2 1550   3.351   3.035   2.391
  277TCM     h1 1551   3.274   2.815   2.337
  277TCM    cl3 1552   3.464   2.779   2.479
  278TCM     c1 1553   3.046   3.024   2.615
  278TCM    cl1 1554   3.049   3.171   2.719
  278TCM    cl2 1555   2.879   2.957   2.611
  278TCM     h1 1556   3.078   3.051   2.514
  278TCM    cl3 1557   3.157   2.901   2.683
  279TCM     c1 1558   1.142   1.062   0.032
  279TCM    cl1 1559   1.045   0.928   0.102
  279TCM    cl2 1560   1.316   1.027   0.055
  279TCM     h1 1561   1.120   1.071  -0.075
  279TCM    cl3 1562   1.101   1.215   0.115
  280TCM     c1 1563   3.083   4.926   0.616
  280TCM    cl1 1564   3.121   5.048   0.742
  280TCM    cl2 1565   2.936   4.835   0.662
  280TCM     h1 1566   3.067   4.976   0.520
  280TCM    cl3 1567   3.221   4.811   0.601
  281TCM     c1 1568   1.903   3.431   0.854
  281TCM    cl1 1569   1.950   3.592   0.917
  281TCM    cl2 1570   1.857   3.323   0.989
  281TCM     h1 1571   1.819   3.441   0.785
  281TCM    cl3 1572   2.043   3.360   0.767
  282TCM     c1 1573   2.729   3.678   1.727
  282TCM    cl1 1574   2.866   3.795   1.721
  282TCM    cl2 1575   2.629   3.713   1.872
  282TCM     h1 1576   2.668   3.688   1.637
  282TCM    cl3 1577   2.794   3.511   1.737
  283TCM     c1 1578   4.565   0.216   4.044
  283TCM    cl1 1579   4.476   0.146   4.183
  283TCM    cl2 1580   4.452   0.312   3.942
  283TCM     h1 1581   4.645   0.281   4.081
  283TCM    cl3 1582   4.633   0.083   3.946
  284TCM     c1 1583   4.828   2.686   4.683
  284TCM    cl1 1584   4.899   2.583   4.554
  284TCM    cl2 1585   4.890   2.631   4.842
  284TCM     h1 1586   4.857   2.790   4.666
  284TCM    cl3 1587   4.650   2.672   4.680
  285TCM     c1 1588   1.152   4.438   1.884
  285TCM    cl1 1589   1.010   4.360   1.808
  285TCM    cl2 1590   1.119   4.614   1.902
  285TCM     h1 1591   1.170   4.394   1.982
  285TCM    cl3 1592   1.296   4.415   1.779
  286TCM     c1 1593   0.054   0.217   0.225
  286TCM    cl1 1594  -0.093   0.141   0.295
  286TCM    cl2 1595   0.036   0.229   0.046
  286TCM     h1 1596   0.066   0.317   0.266
  286TCM    cl3 1597   0.197   0.116   0.264
  287TCM     c1 1598   4.514   0.335   3.575
  287TCM    cl1 1599   4.494   0.354   3.397
  287TCM    cl2 1600   4.604   0.475   3.641
  287TCM     h1 1601   4.416   0.329   3.622
  287TCM    cl3 1602   4.606   0.184   3.607
  288TCM     c1 1603   3.448   4.878   4.250
  288TCM    cl1 1604   3.387   4.726   4.323
  288TCM    cl2 1605   3.586   4.939   4.349
  288TCM     h1 1606   3.482   4.859   4.148
  288TCM    cl3 1607   3.317   5.001   4.248
  289TCM     c1 1608   1.893   2.620   4.063
  289TCM    cl1 1609   1.965   2.465   4.008
  289TCM    cl2 1610   1.892   2.625   4.242
  289TCM     h1 1611   1.951   2.704   4.024
  289TCM    cl3 1612   1.723   2.632   4.005
  290TCM     c1 1613   0.330   0.222   1.478
  290TCM    cl1 1614   0.262   0.118   1.607
  290TCM    cl2 1615   0.277   0.161   1.317
  290TCM     h1 1616   0.295   0.325   1.491
  290TCM    cl3 1617   0.509   0.219   1.487
  291TCM     c1 1618   3.170   1.497   2.647
  291TCM    cl1 1619   3.011   1.451   2.579
  291TCM    cl2 1620   3.172   1.674   2.676
  291TCM     h1 1621   3.187   1.444   2.742
  291TCM    cl3 1622   3.301   1.454   2.532
  292TCM     c1 1623   3.532   4.983   0.333
  292TCM    cl1 1624   3.467   5.084   0.199
  292TCM    cl2 1625   3.483   4.812   0.308
  292TCM     h1 1626   3.641   4.991   0.334
  292TCM    cl3 1627   3.465   5.041   0.489
  293TCM     c1 1628   0.579   1.157   1.957
  293TCM    cl1 1629   0.557   1.226   1.792
  293TCM    cl2 1630   0.426   1.172   2.050
  293TCM     h1 1631   0.607   1.052   1.948
  293TCM    cl3 1632   0.708   1.249   2.041
  294TCM     c1 1633   2.768   3.705   1.198
  294TCM    cl1 1634   2.668   3.568   1.140
  294TCM    cl2 1635   2.801   3.684   1.373
  294TCM     h1 1636   2.863   3.707   1.143
  294TCM    cl3 1637   2.681   3.859   1.172
  295TCM     c1 1638   2.203   2.385   4.313
  295TCM    cl1 1639   2.339   2.281   4.368
  295TCM    cl2 1640   2.190   2.527   4.421
  295TCM     h1 1641   2.221   2.418   4.211
  295TCM    cl3 1642   2.050   2.290   4.320
  296TCM     c1 1643   0.532   2.055   0.688
  296TCM    cl1 1644   0.684   2.029   0.597
  296TCM    cl2 1645   0.429   2.170   0.597
  296TCM     h1 1646   0.479   1.961   0.700
  296TCM    cl3 1647   0.570   2.125   0.849
  297TCM     c1 1648   2.644   0.105   1.669
  297TCM    cl1 1649   2.780  -0.005   1.630
  297TCM    cl2 1650   2.640   0.136   1.846
  297TCM     h1 1651   2.656   0.200   1.615
  297TCM    cl3 1652   2.489   0.029   1.621
  298TCM     c1 1653   2.379   3.722   0.028
  298TCM    cl1 1654   2.376   3.543   0.016
  298TCM    cl2 1655   2.358   3.771   0.199
  298TCM     h1 1656   2.474   3.760  -0.011
  298TCM    cl3 1657   2.244   3.789  -0.070
  299TCM     c1 1658   0.331   3.327   4.815
  299TCM    cl1 1659   0.289   3.166   4.881
  299TCM    cl2 1660   0.471   3.313   4.704
  299TCM     h1 1661   0.246   3.368   4.761
  299TCM    cl3 1662   0.374   3.437   4.951
  300TCM     c1 1663   3.616   1.922   1.565
  300TCM    cl1 1664   3.500   1.812   1.646
  300TCM    cl2 1665   3.677   2.042   1.683
  300TCM     h1 1666   3.699   1.864   1.524
  300TCM    cl3 1667   3.532   2.008   1.431
  301TCM     c1 1668   2.175   2.687   2.203
  301TCM    cl1 1669   2.045   2.782   2.282
  301TCM    cl2 1670   2.117   2.520   2.174
  301TCM     h1 1671   2.203   2.734   2.109
  301TCM    cl3 1672   2.319   2.681   2.311
  302TCM     c1 1673   4.537   2.649   0.603
  302TCM    cl1 1674   4.501   2.696   0.434
  302TCM    cl2 1675   4.528   2.794   0.709
  302TCM     h1 1676   4.464   2.575   0.637
  302TCM    cl3 1677   4.702   2.579   0.613
  303TCM     c1 1678   4.951   4.334   1.738
  303TCM    cl1 1679   4.864   4.227   1.853
  303TCM    cl2 1680   4.834   4.402   1.620
  303TCM     h1 1681   4.998   4.415   1.793
  303TCM    cl3 1682   5.076   4.239   1.650
  304TCM     c1 1683   3.135   1.499   3.639
  304TCM    cl1 1684   3.242   1.357   3.661
  304TCM    cl2 1685   3.111   1.583   3.795
  304TCM     h1 1686   3.180   1.568   3.567
  304TCM    cl3 1687   2.975   1.443   3.578
  305TCM     c1 1688   1.085   3.689   2.043
  305TCM    cl1 1689   1.071   3.542   1.941
  305TCM    cl2 1690   1.254   3.704   2.102
  305TCM     h1 1691   1.058   3.778   1.984
  305TCM    cl3 1692   0.974   3.675   2.184
  306TCM     c1 1693   2.937   3.888   2.160
  306TCM    cl1 1694   2.963   3.726   2.088
  306TCM    cl2 1695   2.976   3.885   2.335
  306TCM     h1 1696   3.000   3.961   2.110
  306TCM    cl3 1697   2.765   3.935   2.139
  307TCM     c1 1698   1.627   2.990   2.223
  307TCM    cl1 1699   1.750   3.032   2.099
  307TCM    cl2 1700   1.709   2.960   2.380
  307TCM     h1 1701   1.556   3.072   2.234
  307TCM    cl3 1702   1.539   2.842   2.173
  308TCM     c1 1703   4.583   0.075   0.076
  308TCM    cl1 1704   4.726   0.037  -0.026
  308TCM    cl2 1705   4.589   0.248   0.124
  308TCM     h1 1706   4.492   0.056   0.019
  308TCM    cl3 1707   4.584  -0.028   0.222
  309TCM     c1 1708   4.435   4.761   2.320
  309TCM    cl1 1709   4.289   4.866   2.315
  309TCM    cl2 1710   4.559   4.825   2.207
  309TCM     h1 1711   4.475   4.760   2.421
  309TCM    cl3 1712   4.390   4.594   2.270
  310TCM     c1 1713   1.450   0.014   3.104
  310TCM    cl1 1714   1.390   0.147   3.000
  310TCM    cl2 1715   1.598   0.067   3.189
  310TCM     h1 1716   1.373  -0.013   3.177
  310TCM    cl3 1717   1.487  -0.129   3.001
  311TCM     c1 1718   3.309   4.805   3.558
  311TCM    cl1 1719   3.415   4.838   3.699
  311TCM    cl2 1720   3.220   4.651   3.581
  311TCM     h1 1721   3.238   4.887   3.546
  311TCM    cl3 1722   3.411   4.791   3.411
  312TCM     c1 1723   3.582   2.067   4.976
  312TCM    cl1 1724   3.690   1.927   4.946
  312TCM    cl2 1725   3.491   2.041   5.128
  312TCM     h1 1726   3.643   2.158   4.985
  312TCM    cl3 1727   3.467   2.085   4.840
  313TCM     c1 1728   4.778   4.319   2.198
  313TCM    cl1 1729   4.957   4.308   2.203
  313TCM    cl2 1730   4.730   4.483   2.142
  313TCM     h1 1731   4.738   4.244   2.129
  313TCM    cl3 1732   4.712   4.291   2.363
  314TCM     c1 1733   4.882   2.956   2.295
  314TCM    cl1 1734   5.047   2.965   2.365
  314TCM    cl2 1735   4.775   3.075   2.376
  314TCM     h1 1736   4.886   2.977   2.188
  314TCM    cl3 1737   4.816   2.791   2.321
  315TCM     c1 1738   0.921   2.227   0.776
  315TCM    cl1 1739   0.965   2.355   0.894
  315TCM    cl2 1740   0.982   2.069   0.835
  315TCM     h1 1741   0.812   2.223   0.766
  315TCM    cl3 1742   0.994   2.264   0.617
  316TCM     c1 1743   0.917   1.726   3.846
  316TCM    cl1 1744   0.937   1.555   3.896
  316TCM    cl2 1745   0.960   1.833   3.983
  316TCM     h1 1746   0.982   1.747   3.760
  316TCM    cl3 1747   0.746   1.755   3.800
  317TCM     c1 1748   3.928   3.530   1.243
  317TCM    cl1 1749   3.946   3.705   1.207
  317TCM    cl2 1750   3.759   3.495   1.293
  317TCM     h1 1751   3.953   3.472   1.153
  317TCM    cl3 1752   4.040   3.486   1.376
  318TCM     c1 1753   0.017   0.067   2.092
  318TCM    cl1 1754   0.038  -0.019   1.936
  318TCM    cl2 1755  -0.099  -0.022   2.195
  318TCM     h1 1756   0.113   0.075   2.143
  318TCM    cl3 1757  -0.047   0.232   2.059
  319TCM     c1 1758   1.160   2.457   1.790
  319TCM    cl1 1759   1.262   2.586   1.717
  319TCM    cl2 1760   1.139   2.490   1.965
  319TCM     h1 1761   1.062   2.455   1.741
  319TCM    cl3 1762   1.242   2.299   1.768
  320TCM     c1 1763   0.741   2.175   4.062
  320TCM    cl1 1764   0.815   2.198   3.901
  320TCM    cl2 1765   0.871   2.159   4.185
  320TCM     h1 1766   0.677   2.260   4.087
  320TCM    cl3 1767   0.643   2.025   4.061
  321TCM     c1 1768   0.882   0.648   4.802
  321TCM    cl1 1769   0.803   0.808   4.824
  321TCM    cl2 1770   0.916   0.577   4.963
  321TCM     h1 1771   0.816   0.581   4.746
  321TCM    cl3 1772   1.036   0.669   4.712
  322TCM     c1 1773   3.410   2.580   0.683
  322TCM    cl1 1774   3.427   2.692   0.822
  322TCM    cl2 1775   3.296   2.651   0.564
  322TCM     h1 1776   3.507   2.565   0.636
  322TCM    cl3 1777   3.345   2.423   0.741
  323TCM     c1 1778   3.651   4.948   3.188
  323TCM    cl1 1779   3.727   5.000   3.342
  323TCM    cl2 1780   3.765   4.973   3.052
  323TCM     h1 1781   3.625   4.842   3.194
  323TCM    cl3 1782   3.502   5.044   3.159
  324TCM     c1 1783   4.592   3.284   0.018
  324TCM    cl1 1784   4.692   3.293  -0.131
  324TCM    cl2 1785   4.432   3.358  -0.014
  324TCM     h1 1786   4.579   3.179   0.048
  324TCM    cl3 1787   4.675   3.374   0.150
  325TCM     c1 1788   4.476   2.586   2.690
  325TCM    cl1 1789   4.558   2.673   2.557
  325TCM    cl2 1790   4.328   2.675   2.738
  325TCM     h1 1791   4.449   2.485   2.657
  325TCM    cl3 1792   4.586   2.574   2.831
  326TCM     c1 1793   2.184   4.320   3.390
  326TCM    cl1 1794   2.322   4.433   3.369
  326TCM    cl2 1795   2.069   4.387   3.510
  326TCM     h1 1796   2.133   4.308   3.294
  326TCM    cl3 1797   2.244   4.161   3.447
  327TCM     c1 1798   3.275   2.075   1.029
  327TCM    cl1 1799   3.185   2.230   1.028
  327TCM    cl2 1800   3.390   2.075   0.891
  327TCM     h1 1801   3.330   2.066   1.123
  327TCM    cl3 1802   3.160   1.939   1.013
  328TCM     c1 1803   2.312   1.824   2.253
  328TCM    cl1 1804   2.380   1.770   2.410
  328TCM    cl2 1805   2.371   1.989   2.215
  328TCM     h1 1806   2.343   1.755   2.174
  328TCM    cl3 1807   2.133   1.826   2.263
  329TCM     c1 1808   2.843   2.421   3.382
  329TCM    cl1 1809   2.853   2.592   3.329
  329TCM    cl2 1810   2.760   2.324   3.256
  329TCM     h1 1811   2.943   2.382   3.399
  329TCM    cl3 1812   2.748   2.412   3.534
  330TCM     c1 1813   0.057   1.699   1.577
  330TCM    cl1 1814   0.048   1.665   1.401
  330TCM    cl2 1815  -0.108   1.724   1.643
  330TCM     h1 1816   0.105   1.614   1.628
  330TCM    cl3 1817   0.155   1.847   1.603
  331TCM     c1 1818   1.553   1.097   3.439
  331TCM    cl1 1819   1.404   1.060   3.533
  331TCM    cl2 1820   1.688   1.131   3.552
  331TCM     h1 1821   1.578   1.011   3.376
  331TCM    cl3 1822   1.524   1.241   3.336
  332TCM     c1 1823   3.282   4.174   2.162
  332TCM    cl1 1824   3.117   4.227   2.207
  332TCM    cl2 1825   3.328   4.251   2.006
  332TCM     h1 1826   3.353   4.203   2.240
  332TCM    cl3 1827   3.283   3.996   2.143
  333TCM     c1 1828   1.968   3.561   0.387
  333TCM    cl1 1829   2.117   3.529   0.293
  333TCM    cl2 1830   2.009   3.659   0.531
  333TCM     h1 1831   1.897   3.615   0.324
  333TCM    cl3 1832   1.897   3.405   0.439
  334TCM     c1 1833   4.610   2.075   2.957
  334TCM    cl1 1834   4.688   2.062   2.796
  334TCM    cl2 1835   4.442   2.014   2.947
  334TCM     h1 1836   4.666   2.015   3.030
  334TCM    cl3 1837   4.609   2.246   3.010
  335TCM     c1 1838   2.253   3.860   1.297
  335TCM    cl1 1839   2.340   4.012   1.259
  335TCM    cl2 1840   2.362   3.720   1.272
  335TCM     h1 1841   2.219   3.862   1.401
  335TCM    cl3 1842   2.111   3.843   1.188
  336TCM     c1 1843   0.932   4.974   4.589
  336TCM    cl1 1844   1.017   4.910   4.734
  336TCM    cl2 1845   0.774   4.891   4.570
  336TCM     h1 1846   0.915   5.082   4.601
  336TCM    cl3 1847   1.032   4.945   4.443
  337TCM     c1 1848   3.424   3.236   3.517
  337TCM    cl1 1849   3.349   3.142   3.649
  337TCM    cl2 1850   3.395   3.152   3.361
  337TCM     h1 1851   3.382   3.337   3.514
  337TCM    cl3 1852   3.601   3.245   3.545
  338TCM     c1 1853   3.525   3.790   1.127
  338TCM    cl1 1854   3.630   3.702   1.010
  338TCM    cl2 1855   3.626   3.902   1.225
  338TCM     h1 1856   3.449   3.846   1.072
  338TCM    cl3 1857   3.446   3.670   1.235
  339TCM     c1 1858   2.412   1.024   3.779
  339TCM    cl1 1859   2.306   1.100   3.903
  339TCM    cl2 1860   2.459   1.147   3.657
  339TCM     h1 1861   2.501   0.984   3.827
  339TCM    cl3 1862   2.323   0.892   3.697
  340TCM     c1 1863   1.813   3.563   4.427
  340TCM    cl1 1864   1.714   3.610   4.569
  340TCM    cl2 1865   1.903   3.412   4.462
  340TCM     h1 1866   1.747   3.546   4.341
  340TCM    cl3 1867   1.928   3.695   4.389
  341TCM     c1 1868   4.165   3.781   3.106
  341TCM    cl1 1869   4.231   3.770   2.939
  341TCM    cl2 1870   3.988   3.749   3.102
  341TCM     h1 1871   4.214   3.707   3.169
  341TCM    cl3 1872   4.195   3.945   3.171
  342TCM     c1 1873   3.075   1.881   4.609
  342TCM    cl1 1874   3.187   2.021   4.613
  342TCM    cl2 1875   3.155   1.743   4.527
  342TCM     h1 1876   3.049   1.852   4.711
  342TCM    cl3 1877   2.927   1.925   4.519
  343TCM     c1 1878   0.376   0.566   4.086
  343TCM    cl1 1879   0.466   0.474   3.961
  343TCM    cl2 1880   0.353   0.736   4.031
  343TCM     h1 1881   0.278   0.520   4.103
  343TCM    cl3 1882   0.470   0.566   4.239
  344TCM     c1 1883   3.298   0.815   1.823
  344TCM    cl1 1884   3.182   0.818   1.960
  344TCM    cl2 1885   3.219   0.742   1.679
  344TCM     h1 1886   3.328   0.917   1.800
  344TCM    cl3 1887   3.441   0.717   1.867
  345TCM     c1 1888   2.615   4.537   2.566
  345TCM    cl1 1889   2.734   4.612   2.455
  345TCM    cl2 1890   2.684   4.530   2.732
  345TCM     h1 1891   2.523   4.596   2.567
  345TCM    cl3 1892   2.578   4.370   2.511
  346TCM     c1 1893   0.752   0.866   2.298
  346TCM    cl1 1894   0.910   0.797   2.347
  346TCM    cl2 1895   0.750   0.888   2.121
  346TCM     h1 1896   0.671   0.798   2.328
  346TCM    cl3 1897   0.730   1.026   2.376
  347TCM     c1 1898   2.313   4.298   2.932
  347TCM    cl1 1899   2.280   4.188   3.069
  347TCM    cl2 1900   2.444   4.230   2.831
  347TCM     h1 1901   2.223   4.310   2.872
  347TCM    cl3 1902   2.365   4.458   2.996
  348TCM     c1 1903   4.106   1.894   4.736
  348TCM    cl1 1904   4.182   1.995   4.608
  348TCM    cl2 1905   3.966   1.806   4.666
  348TCM     h1 1906   4.178   1.822   4.774
  348TCM    cl3 1907   4.050   2.001   4.869
  349TCM     c1 1908   0.353   0.530   0.253
  349TCM    cl1 1909   0.274   0.458   0.397
  349TCM    cl2 1910   0.255   0.668   0.194
  349TCM     h1 1911   0.453   0.565   0.280
  349TCM    cl3 1912   0.363   0.407   0.123
  350TCM     c1 1913   3.671   3.643   0.139
  350TCM    cl1 1914   3.732   3.484   0.081
  350TCM    cl2 1915   3.585   3.621   0.295
  350TCM     h1 1916   3.755   3.711   0.154
  350TCM    cl3 1917   3.559   3.711   0.017
  351TCM     c1 1918   2.033   2.072   2.505
  351TCM    cl1 1919   1.943   2.154   2.638
  351TCM    cl2 1920   2.202   2.045   2.558
  351TCM     h1 1921   1.985   1.976   2.483
  351TCM    cl3 1922   2.032   2.175   2.358
  352TCM     c1 1923   1.867   4.094   1.483
  352TCM    cl1 1924   1.932   4.252   1.540
  352TCM    cl2 1925   1.990   3.967   1.510
  352TCM     h1 1926   1.776   4.070   1.538
  352TCM    cl3 1927   1.830   4.105   1.308
  353TCM     c1 1928   4.052   3.665   1.810
  353TCM    cl1 1929   4.009   3.504   1.744
  353TCM    cl2 1930   4.229   3.673   1.840
  353TCM     h1 1931   4.024   3.742   1.738
  353TCM    cl3 1932   3.963   3.692   1.964
  354TCM     c1 1933   2.519   4.467   0.615
  354TCM    cl1 1934   2.565   4.444   0.444
  354TCM    cl2 1935   2.537   4.640   0.660
  354TCM     h1 1936   2.415   4.436   0.630
  354TCM    cl3 1937   2.626   4.368   0.719
  355TCM     c1 1938   2.725   2.219   4.621
  355TCM    cl1 1939   2.702   2.348   4.499
  355TCM    cl2 1940   2.586   2.221   4.736
  355TCM     h1 1941   2.730   2.122   4.572
  355TCM    cl3 1942   2.877   2.248   4.712
  356TCM     c1 1943   1.680   3.322   2.490
  356TCM    cl1 1944   1.517   3.287   2.425
  356TCM    cl2 1945   1.676   3.471   2.589
  356TCM     h1 1946   1.714   3.238   2.552
  356TCM    cl3 1947   1.794   3.344   2.353
  357TCM     c1 1948   0.655   4.074   4.718
  357TCM    cl1 1949   0.678   4.039   4.543
  357TCM    cl2 1950   0.715   4.238   4.755
  357TCM     h1 1951   0.549   4.068   4.743
  357TCM    cl3 1952   0.746   3.952   4.814
  358TCM     c1 1953   0.153   2.227   1.621
  358TCM    cl1 1954   0.304   2.173   1.542
  358TCM    cl2 1955   0.066   2.342   1.513
  358TCM     h1 1956   0.089   2.141   1.640
  358TCM    cl3 1957   0.193   2.308   1.776
  359TCM     c1 1958   4.400   0.781   4.047
  359TCM    cl1 1959   4.537   0.891   4.009
  359TCM    cl2 1960   4.384   0.659   3.917
  359TCM     h1 1961   4.419   0.732   4.143
  359TCM    cl3 1962   4.248   0.875   4.057
  360TCM     c1 1963   4.089   0.857   0.260
  360TCM    cl1 1964   4.048   0.792   0.422
  360TCM    cl2 1965   3.958   0.967   0.206
  360TCM     h1 1966   4.184   0.912   0.266
  360TCM    cl3 1967   4.105   0.722   0.144
  361TCM     c1 1968   1.908   1.666   3.680
  361TCM    cl1 1969   1.818   1.533   3.600
  361TCM    cl2 1970   1.870   1.667   3.856
  361TCM     h1 1971   2.016   1.652   3.666
  361TCM    cl3 1972   1.859   1.823   3.608
  362TCM     c1 1973   0.369   1.624   1.847
  362TCM    cl1 1974   0.458   1.524   1.966
  362TCM    cl2 1975   0.200   1.645   1.903
  362TCM     h1 1976   0.418   1.721   1.837
  362TCM    cl3 1977   0.368   1.540   1.689
  363TCM     c1 1978   1.445   0.340   3.372
  363TCM    cl1 1979   1.414   0.454   3.507
  363TCM    cl2 1980   1.497   0.431   3.227
  363TCM     h1 1981   1.523   0.269   3.401
  363TCM    cl3 1982   1.293   0.252   3.335
  364TCM     c1 1983   2.067   4.084   0.779
  364TCM    cl1 1984   1.975   4.237   0.799
  364TCM    cl2 1985   1.955   3.945   0.780
  364TCM     h1 1986   2.120   4.087   0.683
  364TCM    cl3 1987   2.186   4.068   0.912
  365TCM     c1 1988   3.268   1.541   4.204
  365TCM    cl1 1989   3.308   1.424   4.073
  365TCM    cl2 1990   3.105   1.610   4.175
  365TCM     h1 1991   3.270   1.490   4.300
  365TCM    cl3 1992   3.390   1.673   4.205
  366TCM     c1 1993   2.127   3.380   4.083
  366TCM    cl1 1994   2.161   3.342   3.911
  366TCM    cl2 1995   2.084   3.230   4.171
  366TCM     h1 1996   2.217   3.423   4.128
  366TCM    cl3 1997   1.991   3.497   4.094
  367TCM     c1 1998   2.786   0.577   4.776
  367TCM    cl1 1999   2.698   0.440   4.850
  367TCM    cl2 2000   2.796   0.553   4.599
  367TCM     h1 2001   2.733   0.670   4.798
  367TCM    cl3 2002   2.952   0.584   4.845
  368TCM     c1 2003   3.090   2.483   2.514
  368TCM    cl1 2004   3.169   2.570   2.380
  368TCM    cl2 2005   2.969   2.591   2.591
  368TCM     h1 2006   3.039   2.394   2.475
  368TCM    cl3 2007   3.213   2.434   2.635
  369TCM     c1 2008   4.660   4.077   0.788
  369TCM    cl1 2009   4.491   4.048   0.734
  369TCM    cl2 2010   4.663   4.096   0.966
  369TCM     h1 2011   4.723   3.993   0.760
  369TCM    cl3 2012   4.721   4.227   0.711
  370TCM     c1 2013   2.076   2.945   4.463
  370TCM    cl1 2014   2.161   3.096   4.510
  370TCM    cl2 2015   2.141   2.887   4.306
  370TCM     h1 2016   2.093   2.869   4.540
  370TCM    cl3 2017   1.900   2.977   4.448
  371TCM     c1 2018   2.455   3.944   4.282
  371TCM    cl1 2019   2.585   3.833   4.335
  371TCM    cl2 2020   2.487   3.995   4.113
  371TCM     h1 2021   2.359   3.893   4.287
  371TCM    cl3 2022   2.452   4.088   4.388
  372TCM     c1 2023   4.467   0.110   2.601
  372TCM    cl1 2024   4.300   0.175   2.609
  372TCM    cl2 2025   4.529   0.128   2.434
  372TCM     h1 2026   4.531   0.165   2.670
  372TCM    cl3 2027   4.465  -0.063   2.647
  373TCM     c1 2028   1.679   3.681   2.076
  373TCM    cl1 2029   1.589   3.813   1.995
  373TCM    cl2 2030   1.601   3.644   2.234
  373TCM     h1 2031   1.678   3.592   2.013
  373TCM    cl3 2032   1.849   3.732   2.104
  374TCM     c1 2033   3.246   0.384   0.922
  374TCM    cl1 2034   3.245   0.413   0.745
  374TCM    cl2 2035   3.078   0.378   0.982
  374TCM     h1 2036   3.297   0.290   0.944
  374TCM    cl3 2037   3.333   0.519   1.002
  375TCM     c1 2038   0.024   3.681   3.020
  375TCM    cl1 2039  -0.028   3.509   3.026
  375TCM    cl2 2040   0.110   3.724   3.171
  375TCM     h1 2041   0.091   3.696   2.934
  375TCM    cl3 2042  -0.121   3.785   3.002
  376TCM     c1 2043   2.711   2.565   4.805
  376TCM    cl1 2044   2.716   2.711   4.701
  376TCM    cl2 2045   2.562   2.566   4.905
  376TCM     h1 2046   2.712   2.475   4.742
  376TCM    cl3 2047   2.855   2.564   4.912
  377TCM     c1 2048   2.022   0.336   4.971
  377TCM    cl1 2049   2.009   0.201   4.853
  377TCM    cl2 2050   2.027   0.270   5.137
  377TCM     h1 2051   2.113   0.393   4.951
  377TCM    cl3 2052   1.879   0.443   4.955
  378TCM     c1 2053   2.952   0.369   2.191
  378TCM    cl1 2054   3.035   0.225   2.259
  378TCM    cl2 2055   2.949   0.499   2.315
  378TCM     h1 2056   3.006   0.404   2.103
  378TCM    cl3 2057   2.784   0.327   2.146
  379TCM     c1 2058   1.621   3.215   4.605
  379TCM    cl1 2059   1.603   3.268   4.776
  379TCM    cl2 2060   1.525   3.324   4.500
  379TCM     h1 2061   1.726   3.219   4.576
  379TCM    cl3 2062   1.558   3.048   4.588
  380TCM     c1 2063   0.612   2.481   0.520
  380TCM    cl1 2064   0.651   2.641   0.450
  380TCM    cl2 2065   0.653   2.478   0.694
  380TCM     h1 2066   0.506   2.460   0.506
  380TCM    cl3 2067   0.709   2.356   0.436
  381TCM     c1 2068   2.819   0.215   2.982
  381TCM    cl1 2069   2.663   0.197   2.895
  381TCM    cl2 2070   2.812   0.122   3.136
  381TCM     h1 2071   2.900   0.177   2.920
  381TCM    cl3 2072   2.846   0.389   3.019
  382TCM     c1 2073   1.999   3.002   0.850
  382TCM    cl1 2074   2.030   2.981   1.025
  382TCM    cl2 2075   1.898   2.866   0.790
  382TCM     h1 2076   1.946   3.096   0.834
  382TCM    cl3 2077   2.154   3.003   0.761
  383TCM     c1 2078   3.046   0.103   3.948
  383TCM    cl1 2079   2.915   0.216   3.900
  383TCM    cl2 2080   3.125   0.038   3.801
  383TCM     h1 2081   3.120   0.157   4.008
  383TCM    cl3 2082   2.978  -0.033   4.043
  384TCM     c1 2083   2.888   3.332   0.080
  384TCM    cl1 2084   2.980   3.473   0.144
  384TCM    cl2 2085   2.724   3.386   0.032
  384TCM     h1 2086   2.940   3.291  -0.007
  384TCM    cl3 2087   2.875   3.207   0.208
  385TCM     c1 2088   0.133   0.231   4.228
  385TCM    cl1 2089   0.002   0.344   4.277
  385TCM    cl2 2090   0.277   0.256   4.331
  385TCM     h1 2091   0.098   0.128   4.238
  385TCM    cl3 2092   0.176   0.263   4.057
  386TCM     c1 2093   2.376   2.581   3.827
  386TCM    cl1 2094   2.381   2.551   4.004
  386TCM    cl2 2095   2.206   2.605   3.776
  386TCM     h1 2096   2.434   2.671   3.804
  386TCM    cl3 2097   2.445   2.441   3.739
  387TCM     c1 2098   0.686   1.197   4.998
  387TCM    cl1 2099   0.814   1.172   4.875
  387TCM    cl2 2100   0.742   1.134   5.156
  387TCM     h1 2101   0.664   1.303   5.007
  387TCM    cl3 2102   0.537   1.109   4.948
  388TCM     c1 2103   4.636   2.972   1.919
  388TCM    cl1 2104   4.658   3.008   1.745
  388TCM    cl2 2105   4.676   3.118   2.016
  388TCM     h1 2106   4.532   2.944   1.938
  388TCM    cl3 2107   4.745   2.838   1.967
  389TCM     c1 2108   3.023   3.039   0.507
  389TCM    cl1 2109   3.019   2.882   0.419
  389TCM    cl2 2110   3.152   3.033   0.632
  389TCM     h1 2111   3.044   3.119   0.436
  389TCM    cl3 2112   2.864   3.067   0.585
  390TCM     c1 2113   2.521   4.637   1.545
  390TCM    cl1 2114   2.588   4.735   1.411
  390TCM    cl2 2115   2.347   4.677   1.565
  390TCM     h1 2116   2.532   4.531   1.521
  390TCM    cl3 2117   2.609   4.674   1.697
  391TCM     c1 2118   2.668   3.729   4.721
  391TCM    cl1 2119   2.539   3.851   4.696
  391TCM    cl2 2120   2.600   3.564   4.702
  391TCM     h1 2121   2.749   3.744   4.649
  391TCM    cl3 2122   2.732   3.747   4.888
  392TCM     c1 2123   3.773   3.766   2.802
  392TCM    cl1 2124   3.891   3.899   2.783
  392TCM    cl2 2125   3.701   3.727   2.642
  392TCM     h1 2126   3.823   3.678   2.842
  392TCM    cl3 2127   3.643   3.818   2.914
  393TCM     c1 2128   2.292   1.398   2.265
  393TCM    cl1 2129   2.193   1.499   2.156
  393TCM    cl2 2130   2.243   1.427   2.436
  393TCM     h1 2131   2.277   1.292   2.240
  393TCM    cl3 2132   2.465   1.441   2.246
  394TCM     c1 2133   4.942   2.278   0.555
  394TCM    cl1 2134   5.094   2.232   0.471
  394TCM    cl2 2135   4.979   2.318   0.726
  394TCM     h1 2136   4.898   2.364   0.505
  394TCM    cl3 2137   4.828   2.139   0.549
  395TCM     c1 2138   4.042   0.484   2.973
  395TCM    cl1 2139   4.137   0.441   2.827
  395TCM    cl2 2140   3.935   0.347   3.017
  395TCM     h1 2141   4.110   0.506   3.056
  395TCM    cl3 2142   3.941   0.627   2.937
  396TCM     c1 2143   4.782   2.034   0.082
  396TCM    cl1 2144   4.887   2.138   0.183
  396TCM    cl2 2145   4.790   2.089  -0.089
  396TCM     h1 2146   4.816   1.931   0.088
  396TCM    cl3 2147   4.613   2.045   0.141
  397TCM     c1 2148   3.320   1.132   1.176
  397TCM    cl1 2149   3.402   1.005   1.080
  397TCM    cl2 2150   3.190   1.207   1.077
  397TCM     h1 2151   3.276   1.088   1.265
  397TCM    cl3 2152   3.438   1.259   1.223
  398TCM     c1 2153   2.770   4.187   4.511
  398TCM    cl1 2154   2.816   4.020   4.556
  398TCM    cl2 2155   2.811   4.215   4.338
  398TCM     h1 2156   2.663   4.202   4.526
  398TCM    cl3 2157   2.862   4.303   4.613
  399TCM     c1 2158   1.318   0.113   0.478
  399TCM    cl1 2159   1.278   0.229   0.347
  399TCM    cl2 2160   1.173   0.015   0.518
  399TCM     h1 2161   1.398   0.047   0.444
  399TCM    cl3 2162   1.372   0.203   0.623
  400TCM     c1 2163   1.220   3.110   4.443
  400TCM    cl1 2164   1.295   3.148   4.284
  400TCM    cl2 2165   1.203   2.932   4.458
  400TCM     h1 2166   1.284   3.148   4.524
  400TCM    cl3 2167   1.058   3.186   4.453
  401TCM     c1 2168   1.364   2.247   2.114
  401TCM    cl1 2169   1.365   2.338   2.268
  401TCM    cl2 2170   1.216   2.146   2.106
  401TCM     h1 2171   1.366   2.318   2.030
  401TCM    cl3 2172   1.508   2.141   2.105
  402TCM     c1 2173   1.131   1.119   0.473
  402TCM    cl1 2174   1.105   1.199   0.631
  402TCM    cl2 2175   1.114   0.942   0.492
  402TCM     h1 2176   1.056   1.155   0.401
  402TCM    cl3 2177   1.296   1.158   0.414
  403TCM     c1 2178   0.468   0.250   3.205
  403TCM    cl1 2179   0.298   0.249   3.261
  403TCM    cl2 2180   0.472   0.277   3.027
  403TCM     h1 2181   0.523   0.330   3.255
  403TCM    cl3 2182   0.544   0.091   3.242
  404TCM     c1 2183   2.679   3.651   0.416
  404TCM    cl1 2184   2.839   3.607   0.485
  404TCM    cl2 2185   2.701   3.697   0.244
  404TCM     h1 2186   2.611   3.567   0.424
  404TCM    cl3 2187   2.611   3.791   0.506
  405TCM     c1 2188   0.005   1.799   0.755
  405TCM    cl1 2189   0.097   1.876   0.622
  405TCM    cl2 2190  -0.095   1.666   0.689
  405TCM     h1 2191   0.074   1.759   0.830
  405TCM    cl3 2192  -0.102   1.921   0.832
  406TCM     c1 2193   3.217   4.553   4.023
  406TCM    cl1 2194   3.248   4.725   3.982
  406TCM    cl2 2195   3.264   4.448   3.885
  406TCM     h1 2196   3.275   4.526   4.111
  406TCM    cl3 2197   3.043   4.531   4.057
  407TCM     c1 2198   0.289   3.196   3.376
  407TCM    cl1 2199   0.339   3.030   3.330
  407TCM    cl2 2200   0.281   3.299   3.230
  407TCM     h1 2201   0.191   3.193   3.425
  407TCM    cl3 2202   0.410   3.264   3.490
  408TCM     c1 2203   2.768   0.558   1.842
  408TCM    cl1 2204   2.756   0.449   1.699
  408TCM    cl2 2205   2.706   0.720   1.798
  408TCM     h1 2206   2.708   0.517   1.924
  408TCM    cl3 2207   2.939   0.570   1.892
  409TCM     c1 2208   4.746   4.863   4.212
  409TCM    cl1 2209   4.633   4.830   4.348
  409TCM    cl2 2210   4.863   4.728   4.197
  409TCM     h1 2211   4.689   4.873   4.120
  409TCM    cl3 2212   4.835   5.015   4.246
  410TCM     c1 2213   3.852   0.822   2.071
  410TCM    cl1 2214   3.815   0.919   1.924
  410TCM    cl2 2215   3.716   0.711   2.106
  410TCM     h1 2216   3.943   0.764   2.054
  410TCM    cl3 2217   3.877   0.933   2.209
  411TCM     c1 2218   2.295   4.637   2.326
  411TCM    cl1 2219   2.232   4.555   2.472
  411TCM    cl2 2220   2.390   4.521   2.228
  411TCM     h1 2221   2.212   4.676   2.266
  411TCM    cl3 2222   2.402   4.772   2.376
  412TCM     c1 2223   1.557   2.693   4.344
  412TCM    cl1 2224   1.389   2.630   4.357
  412TCM    cl2 2225   1.631   2.703   4.507
  412TCM     h1 2226   1.616   2.626   4.281
  412TCM    cl3 2227   1.552   2.857   4.271
  413TCM     c1 2228   2.129   4.560   0.383
  413TCM    cl1 2229   2.151   4.417   0.489
  413TCM    cl2 2230   2.095   4.507   0.215
  413TCM     h1 2231   2.045   4.620   0.420
  413TCM    cl3 2232   2.278   4.659   0.385
  414TCM     c1 2233   3.539   1.071   2.219
  414TCM    cl1 2234   3.535   0.934   2.334
  414TCM    cl2 2235   3.450   1.210   2.289
  414TCM     h1 2236   3.642   1.100   2.198
  414TCM    cl3 2237   3.459   1.019   2.067
  415TCM     c1 2238   3.424   4.020   0.632
  415TCM    cl1 2239   3.538   3.975   0.763
  415TCM    cl2 2240   3.256   3.999   0.691
  415TCM     h1 2241   3.440   4.124   0.603
  415TCM    cl3 2242   3.451   3.912   0.491
  416TCM     c1 2243   1.768   4.172   1.940
  416TCM    cl1 2244   1.849   4.045   1.842
  416TCM    cl2 2245   1.783   4.131   2.114
  416TCM     h1 2246   1.815   4.269   1.921
  416TCM    cl3 2247   1.594   4.179   1.895
  417TCM     c1 2248   4.769   2.884   2.878
  417TCM    cl1 2249   4.900   2.788   2.954
  417TCM    cl2 2250   4.810   2.916   2.706
  417TCM     h1 2251   4.675   2.828   2.882
  417TCM    cl3 2252   4.750   3.040   2.964
  418TCM     c1 2253   1.515   1.133   2.176
  418TCM    cl1 2254   1.567   0.965   2.143
  418TCM    cl2 2255   1.394   1.184   2.055
  418TCM     h1 2256   1.471   1.139   2.276
  418TCM    cl3 2257   1.657   1.241   2.167
  419TCM     c1 2258   1.010   4.268   0.052
  419TCM    cl1 2259   1.052   4.218  -0.115
  419TCM    cl2 2260   1.153   4.246   0.158
  419TCM     h1 2261   0.981   4.374   0.052
  419TCM    cl3 2262   0.873   4.169   0.112
  420TCM     c1 2263   3.022   2.586   0.820
  420TCM    cl1 2264   2.878   2.479   0.833
  420TCM    cl2 2265   3.114   2.582   0.974
  420TCM     h1 2266   3.086   2.551   0.738
  420TCM    cl3 2267   2.968   2.754   0.786
  421TCM     c1 2268   0.631   1.912   2.431
  421TCM    cl1 2269   0.461   1.967   2.451
  421TCM    cl2 2270   0.651   1.749   2.504
  421TCM     h1 2271   0.655   1.907   2.325
  421TCM    cl3 2272   0.741   2.028   2.512
  422TCM     c1 2273   2.368   0.457   4.601
  422TCM    cl1 2274   2.493   0.369   4.508
  422TCM    cl2 2275   2.433   0.615   4.657
  422TCM     h1 2276   2.280   0.474   4.538
  422TCM    cl3 2277   2.320   0.360   4.744
  423TCM     c1 2278   0.334   4.134   3.863
  423TCM    cl1 2279   0.273   3.978   3.928
  423TCM    cl2 2280   0.469   4.193   3.966
  423TCM     h1 2281   0.370   4.119   3.760
  423TCM    cl3 2282   0.202   4.255   3.863
  424TCM     c1 2283   4.718   4.093   1.393
  424TCM    cl1 2284   4.776   4.030   1.551
  424TCM    cl2 2285   4.664   3.955   1.291
  424TCM     h1 2286   4.634   4.161   1.409
  424TCM    cl3 2287   4.850   4.181   1.310
  425TCM     c1 2288   2.574   2.361   0.201
  425TCM    cl1 2289   2.623   2.377   0.373
  425TCM    cl2 2290   2.426   2.261   0.192
  425TCM     h1 2291   2.554   2.460   0.160
  425TCM    cl3 2292   2.705   2.281   0.109
  426TCM     c1 2293   0.189   4.883   3.341
  426TCM    cl1 2294   0.282   4.834   3.196
  426TCM    cl2 2295   0.302   4.903   3.479
  426TCM     h1 2296   0.138   4.978   3.322
  426TCM    cl3 2297   0.068   4.756   3.381
  427TCM     c1 2298   3.061   2.315   2.043
  427TCM    cl1 2299   3.209   2.416   2.058
  427TCM    cl2 2300   2.950   2.351   2.179
  427TCM     h1 2301   3.011   2.338   1.948
  427TCM    cl3 2302   3.106   2.142   2.048
  428TCM     c1 2303   4.133   0.948   4.860
  428TCM    cl1 2304   4.207   1.071   4.969
  428TCM    cl2 2305   4.257   0.827   4.815
  428TCM     h1 2306   4.050   0.899   4.911
  428TCM    cl3 2307   4.074   1.030   4.712
  429TCM     c1 2308   0.791   1.803   4.307
  429TCM    cl1 2309   0.697   1.907   4.419
  429TCM    cl2 2310   0.679   1.694   4.218
  429TCM     h1 2311   0.845   1.866   4.236
  429TCM    cl3 2312   0.907   1.703   4.400
  430TCM     c1 2313   0.356   0.328   2.102
  430TCM    cl1 2314   0.326   0.212   1.968
  430TCM    cl2 2315   0.312   0.251   2.258
  430TCM     h1 2316   0.461   0.356   2.103
  430TCM    cl3 2317   0.254   0.473   2.078
  431TCM     c1 2318   3.665   0.212   0.980
  431TCM    cl1 2319   3.576   0.284   1.119
  431TCM    cl2 2320   3.572   0.237   0.829
  431TCM     h1 2321   3.763   0.259   0.971
  431TCM    cl3 2322   3.686   0.035   1.007
  432TCM     c1 2323   2.946   1.951   3.508
  432TCM    cl1 2324   3.010   2.088   3.412
  432TCM    cl2 2325   2.928   2.001   3.679
  432TCM     h1 2326   2.848   1.921   3.468
  432TCM    cl3 2327   3.059   1.812   3.498
  433TCM     c1 2328   3.426   2.800   3.553
  433TCM    cl1 2329   3.405   2.789   3.731
  433TCM    cl2 2330   3.410   2.636   3.481
  433TCM     h1 2331   3.349   2.866   3.511
  433TCM    cl3 2332   3.589   2.866   3.516
  434TCM     c1 2333   3.016   4.276   1.809
  434TCM    cl1 2334   2.874   4.379   1.848
  434TCM    cl2 2335   3.034   4.264   1.631
  434TCM     h1 2336   3.106   4.320   1.852
  434TCM    cl3 2337   2.990   4.112   1.875
  435TCM     c1 2338   0.477   1.145   4.120
  435TCM    cl1 2339   0.317   1.128   4.200
  435TCM    cl2 2340   0.463   1.100   3.947
  435TCM     h1 2341   0.512   1.248   4.129
  435TCM    cl3 2342   0.594   1.035   4.200
  436TCM     c1 2343   0.415   1.808   1.344
  436TCM    cl1 2344   0.503   1.866   1.489
  436TCM    cl2 2345   0.420   1.629   1.341
  436TCM     h1 2346   0.311   1.842   1.348
  436TCM    cl3 2347   0.493   1.872   1.196
  437TCM     c1 2348   0.112   2.745   1.116
  437TCM    cl1 2349   0.283   2.755   1.062
  437TCM    cl2 2350   0.023   2.891   1.060
  437TCM     h1 2351   0.066   2.655   1.074
  437TCM    cl3 2352   0.106   2.738   1.295
  438TCM     c1 2353   0.802   3.440   4.921
  438TCM    cl1 2354   0.707   3.334   5.030
  438TCM    cl2 2355   0.702   3.581   4.873
  438TCM     h1 2356   0.892   3.474   4.972
  438TCM    cl3 2357   0.848   3.347   4.774
  439TCM     c1 2358   3.481   1.093   1.550
  439TCM    cl1 2359   3.303   1.103   1.572
  439TCM    cl2 2360   3.518   0.967   1.428
  439TCM     h1 2361   3.519   1.189   1.517
  439TCM    cl3 2362   3.557   1.048   1.706
  440TCM     c1 2363   3.577   1.766   4.624
  440TCM    cl1 2364   3.631   1.618   4.538
  440TCM    cl2 2365   3.449   1.723   4.743
  440TCM     h1 2366   3.662   1.811   4.676
  440TCM    cl3 2367   3.510   1.882   4.505
  441TCM     c1 2368   0.471   3.855   4.286
  441TCM    cl1 2369   0.380   4.010   4.287
  441TCM    cl2 2370   0.569   3.844   4.137
  441TCM     h1 2371   0.536   3.851   4.374
  441TCM    cl3 2372   0.355   3.718   4.292
  442TCM     c1 2373   3.320   3.233   0.072
  442TCM    cl1 2374   3.207   3.240  -0.067
  442TCM    cl2 2375   3.243   3.142   0.206
  442TCM     h1 2376   3.412   3.184   0.042
  442TCM    cl3 2377   3.355   3.400   0.127
  443TCM     c1 2378   0.921   2.390   1.428
  443TCM    cl1 2379   0.918   2.279   1.569
  443TCM    cl2 2380   1.034   2.325   1.304
  443TCM     h1 2381   0.821   2.398   1.385
  443TCM    cl3 2382   0.978   2.552   1.480
  444TCM     c1 2383   4.211   0.043   0.309
  444TCM    cl1 2384   4.061  -0.055   0.312
  444TCM    cl2 2385   4.198   0.175   0.430
  444TCM     h1 2386   4.297  -0.020   0.332
  444TCM    cl3 2387   4.230   0.114   0.145
  445TCM     c1 2388   4.604   1.000   0.068
  445TCM    cl1 2389   4.646   0.986  -0.106
  445TCM    cl2 2390   4.480   0.876   0.109
  445TCM     h1 2391   4.693   0.984   0.129
  445TCM    cl3 2392   4.539   1.164   0.101
  446TCM     c1 2393   2.924   0.673   3.272
  446TCM    cl1 2394   2.831   0.820   3.228
  446TCM    cl2 2395   2.866   0.609   3.429
  446TCM     h1 2396   2.911   0.597   3.194
  446TCM    cl3 2397   3.098   0.716   3.285
  447TCM     c1 2398   4.407   1.332   4.808
  447TCM    cl1 2399   4.572   1.400   4.827
  447TCM    cl2 2400   4.412   1.196   4.691
  447TCM     h1 2401   4.371   1.296   4.904
  447TCM    cl3 2402   4.296   1.459   4.747
  448TCM     c1 2403   4.844   1.906   3.447
  448TCM    cl1 2404   4.705   1.935   3.338
  448TCM    cl2 2405   4.930   2.061   3.478
  448TCM     h1 2406   4.808   1.865   3.542
  448TCM    cl3 2407   4.958   1.790   3.371
  449TCM     c1 2408   4.672   4.814   3.694
  449TCM    cl1 2409   4.608   4.682   3.591
  449TCM    cl2 2410   4.827   4.872   3.626
  449TCM     h1 2411   4.600   4.897   3.697
  449TCM    cl3 2412   4.699   4.750   3.860
  450TCM     c1 2413   3.213   0.539   3.752
  450TCM    cl1 2414   3.038   0.561   3.782
  450TCM    cl2 2415   3.246   0.549   3.576
  450TCM     h1 2416   3.269   0.617   3.803
  450TCM    cl3 2417   3.264   0.378   3.814
  451TCM     c1 2418   3.649   3.693   1.591
  451TCM    cl1 2419   3.809   3.758   1.542
  451TCM    cl2 2420   3.523   3.819   1.569
  451TCM     h1 2421   3.625   3.606   1.530
  451TCM    cl3 2422   3.656   3.647   1.764
  452TCM     c1 2423   0.483   4.913   1.131
  452TCM    cl1 2424   0.548   4.886   1.297
  452TCM    cl2 2425   0.487   4.758   1.041
  452TCM     h1 2426   0.381   4.949   1.138
  452TCM    cl3 2427   0.584   5.035   1.046
  453TCM     c1 2428   2.109   3.615   3.481
  453TCM    cl1 2429   2.276   3.625   3.546
  453TCM    cl2 2430   2.115   3.579   3.305
  453TCM     h1 2431   2.055   3.535   3.532
  453TCM    cl3 2432   2.025   3.772   3.507
  454TCM     c1 2433   4.322   3.871   1.434
  454TCM    cl1 2434   4.447   3.812   1.549
  454TCM    cl2 2435   4.333   4.049   1.420
  454TCM     h1 2436   4.338   3.825   1.335
  454TCM    cl3 2437   4.159   3.828   1.496
  455TCM     c1 2438   3.169   4.242   4.419
  455TCM    cl1 2439   3.251   4.296   4.269
  455TCM    cl2 2440   3.272   4.280   4.561
  455TCM     h1 2441   3.073   4.293   4.428
  455TCM    cl3 2442   3.142   4.064   4.411
  456TCM     c1 2443   1.763   2.035   4.735
  456TCM    cl1 2444   1.657   2.177   4.761
  456TCM    cl2 2445   1.895   2.080   4.622
  456TCM     h1 2446   1.805   2.003   4.830
  456TCM    cl3 2447   1.667   1.901   4.664
  457TCM     c1 2448   1.728   3.236   1.572
  457TCM    cl1 2449   1.593   3.338   1.512
  457TCM    cl2 2450   1.703   3.204   1.747
  457TCM     h1 2451   1.731   3.142   1.518
  457TCM    cl3 2452   1.883   3.324   1.549
  458TCM     c1 2453   1.507   4.861   1.663
  458TCM    cl1 2454   1.359   4.760   1.658
  458TCM    cl2 2455   1.609   4.824   1.521
  458TCM     h1 2456   1.480   4.967   1.663
  458TCM    cl3 2457   1.598   4.823   1.813
  459TCM     c1 2458   3.944   4.257   3.600
  459TCM    cl1 2459   3.944   4.434   3.569
  459TCM    cl2 2460   3.828   4.221   3.732
  459TCM     h1 2461   3.916   4.203   3.510
  459TCM    cl3 2462   4.109   4.208   3.651
  460TCM     c1 2463   0.514   0.821   3.706
  460TCM    cl1 2464   0.679   0.881   3.671
  460TCM    cl2 2465   0.495   0.657   3.637
  460TCM     h1 2466   0.499   0.818   3.814
  460TCM    cl3 2467   0.394   0.932   3.631
  461TCM     c1 2468   1.560   4.152   0.434
  461TCM    cl1 2469   1.614   4.207   0.272
  461TCM    cl2 2470   1.421   4.252   0.489
  461TCM     h1 2471   1.529   4.048   0.429
  461TCM    cl3 2472   1.696   4.168   0.551
  462TCM     c1 2473   3.125   0.052   0.091
  462TCM    cl1 2474   2.979   0.157   0.093
  462TCM    cl2 2475   3.123  -0.050  -0.057
  462TCM     h1 2476   3.214   0.115   0.091
  462TCM    cl3 2477   3.123  -0.054   0.235
  463TCM     c1 2478   3.608   0.762   3.076
  463TCM    cl1 2479   3.585   0.609   2.985
  463TCM    cl2 2480   3.703   0.729   3.225
  463TCM     h1 2481   3.662   0.834   3.014
  463TCM    cl3 2482   3.447   0.828   3.119
  464TCM     c1 2483   4.862   4.446   3.773
  464TCM    cl1 2484   4.891   4.296   3.680
  464TCM    cl2 2485   4.997   4.561   3.745
  464TCM     h1 2486   4.768   4.491   3.739
  464TCM    cl3 2487   4.850   4.407   3.947
  465TCM     c1 2488   4.215   1.356   0.298
  465TCM    cl1 2489   4.037   1.378   0.298
  465TCM    cl2 2490   4.282   1.410   0.141
  465TCM     h1 2491   4.259   1.414   0.379
  465TCM    cl3 2492   4.252   1.182   0.322
  466TCM     c1 2493   0.512   0.461   2.707
  466TCM    cl1 2494   0.683   0.437   2.757
  466TCM    cl2 2495   0.503   0.478   2.529
  466TCM     h1 2496   0.452   0.375   2.739
  466TCM    cl3 2497   0.448   0.610   2.785
  467TCM     c1 2498   0.347   1.951   2.101
  467TCM    cl1 2499   0.211   1.864   2.180
  467TCM    cl2 2500   0.304   1.991   1.932
  467TCM     h1 2501   0.368   2.043   2.156
  467TCM    cl3 2502   0.492   1.846   2.102
  468TCM     c1 2503   3.246   2.187   1.591
  468TCM    cl1 2504   3.207   2.189   1.416
  468TCM    cl2 2505   3.190   2.033   1.664
  468TCM     h1 2506   3.354   2.196   1.605
  468TCM    cl3 2507   3.163   2.324   1.673
  469TCM     c1 2508   2.479   0.701   4.215
  469TCM    cl1 2509   2.456   0.856   4.127
  469TCM    cl2 2510   2.331   0.663   4.309
  469TCM     h1 2511   2.498   0.621   4.143
  469TCM    cl3 2512   2.618   0.717   4.327
  470TCM     c1 2513   4.422   2.290   4.731
  470TCM    cl1 2514   4.369   2.446   4.802
  470TCM    cl2 2515   4.409   2.161   4.855
  470TCM     h1 2516   4.358   2.266   4.646
  470TCM    cl3 2517   4.592   2.303   4.676
  471TCM     c1 2518   3.674   0.726   2.660
  471TCM    cl1 2519   3.496   0.718   2.635
  471TCM    cl2 2520   3.715   0.882   2.739
  471TCM     h1 2521   3.706   0.643   2.723
  471TCM    cl3 2522   3.758   0.715   2.502
  472TCM     c1 2523   3.227   1.921   3.116
  472TCM    cl1 2524   3.064   1.849   3.137
  472TCM    cl2 2525   3.303   1.853   2.968
  472TCM     h1 2526   3.218   2.030   3.106
  472TCM    cl3 2527   3.330   1.883   3.257
  473TCM     c1 2528   3.650   1.528   1.394
  473TCM    cl1 2529   3.536   1.641   1.315
  473TCM    cl2 2530   3.572   1.454   1.537
  473TCM     h1 2531   3.679   1.449   1.323
  473TCM    cl3 2532   3.797   1.617   1.446
  474TCM     c1 2533   0.273   3.379   1.478
  474TCM    cl1 2534   0.113   3.422   1.547
  474TCM    cl2 2535   0.360   3.272   1.592
  474TCM     h1 2536   0.259   3.327   1.383
  474TCM    cl3 2537   0.369   3.528   1.450
  475TCM     c1 2538   2.328   3.609   4.466
  475TCM    cl1 2539   2.273   3.451   4.530
  475TCM    cl2 2540   2.243   3.742   4.551
  475TCM     h1 2541   2.436   3.619   4.481
  475TCM    cl3 2542   2.290   3.619   4.292
  476TCM     c1 2543   1.749   1.457   1.846
  476TCM    cl1 2544   1.856   1.482   1.988
  476TCM    cl2 2545   1.786   1.580   1.722
  476TCM     h1 2546   1.765   1.357   1.805
  476TCM    cl3 2547   1.577   1.474   1.897
  477TCM     c1 2548   4.592   2.457   0.175
  477TCM    cl1 2549   4.676   2.411   0.023
  477TCM    cl2 2550   4.680   2.389   0.315
  477TCM     h1 2551   4.588   2.566   0.183
  477TCM    cl3 2552   4.424   2.391   0.172
  478TCM     c1 2553   2.858   4.386   3.480
  478TCM    cl1 2554   2.752   4.529   3.456
  478TCM    cl2 2555   2.926   4.390   3.646
  478TCM     h1 2556   2.800   4.294   3.466
  478TCM    cl3 2557   2.992   4.392   3.361
  479TCM     c1 2558   0.070   3.582   0.091
  479TCM    cl1 2559   0.016   3.488  -0.052
  479TCM    cl2 2560   0.029   3.492   0.241
  479TCM     h1 2561   0.178   3.598   0.086
  479TCM    cl3 2562  -0.012   3.742   0.093
  480TCM     c1 2563   0.920   2.385   3.094
  480TCM    cl1 2564   0.812   2.454   3.220
  480TCM    cl2 2565   0.823   2.292   2.975
  480TCM     h1 2566   0.973   2.466   3.043
  480TCM    cl3 2567   1.040   2.277   3.172
  481TCM     c1 2568   2.427   2.774   1.189
  481TCM    cl1 2569   2.296   2.730   1.075
  481TCM    cl2 2570   2.474   2.631   1.287
  481TCM     h1 2571   2.514   2.810   1.133
  481TCM    cl3 2572   2.369   2.903   1.299
  482TCM     c1 2573   4.788   3.574   3.517
  482TCM    cl1 2574   4.807   3.630   3.348
  482TCM    cl2 2575   4.659   3.450   3.525
  482TCM     h1 2576   4.882   3.531   3.551
  482TCM    cl3 2577   4.745   3.714   3.620
  483TCM     c1 2578   2.371   4.854   2.902
  483TCM    cl1 2579   2.491   4.800   3.024
  483TCM    cl2 2580   2.207   4.848   2.975
  483TCM     h1 2581   2.393   4.957   2.871
  483TCM    cl3 2582   2.376   4.745   2.760
  484TCM     c1 2583   4.967   2.677   3.915
  484TCM    cl1 2584   5.145   2.654   3.920
  484TCM    cl2 2585   4.929   2.852   3.915
  484TCM     h1 2586   4.927   2.631   3.825
  484TCM    cl3 2587   4.894   2.601   4.060
  485TCM     c1 2588   2.464   2.034   3.624
  485TCM    cl1 2589   2.525   1.986   3.785
  485TCM    cl2 2590   2.359   1.903   3.560
  485TCM     h1 2591   2.407   2.127   3.631
  485TCM    cl3 2592   2.603   2.056   3.512
  486TCM     c1 2593   1.811   0.391   3.813
  486TCM    cl1 2594   1.872   0.284   3.943
  486TCM    cl2 2595   1.748   0.543   3.887
  486TCM     h1 2596   1.892   0.415   3.744
  486TCM    cl3 2597   1.677   0.310   3.725
  487TCM     c1 2598   0.832   4.932   0.682
  487TCM    cl1 2599   0.785   5.097   0.733
  487TCM    cl2 2600   0.825   4.920   0.503
  487TCM     h1 2601   0.934   4.910   0.716
  487TCM    cl3 2602   0.718   4.813   0.753
  488TCM     c1 2603   4.021   1.253   3.331
  488TCM    cl1 2604   3.897   1.357   3.408
  488TCM    cl2 2605   3.996   1.083   3.384
  488TCM     h1 2606   4.014   1.260   3.222
  488TCM    cl3 2607   4.184   1.308   3.384
  489TCM     c1 2608   3.048   4.729   3.254
  489TCM    cl1 2609   3.158   4.637   3.146
  489TCM    cl2 2610   2.882   4.727   3.189
  489TCM     h1 2611   3.049   4.684   3.354
  489TCM    cl3 2612   3.105   4.899   3.263
  490TCM     c1 2613   2.209   2.013   3.164
  490TCM    cl1 2614   2.201   2.172   3.081
  490TCM    cl2 2615   2.117   2.023   3.319
  490TCM     h1 2616   2.166   1.936   3.100
  490TCM    cl3 2617   2.381   1.974   3.200
  491TCM     c1 2618   1.483   0.596   4.945
  491TCM    cl1 2619   1.597   0.732   4.969
  491TCM    cl2 2620   1.314   0.656   4.954
  491TCM     h1 2621   1.501   0.551   4.846
  491TCM    cl3 2622   1.510   0.472   5.072
  492TCM     c1 2623   2.041   4.265   4.143
  492TCM    cl1 2624   1.984   4.272   3.973
  492TCM    cl2 2625   1.987   4.412   4.231
  492TCM     h1 2626   2.000   4.176   4.191
  492TCM    cl3 2627   2.220   4.255   4.143
  493TCM     c1 2628   0.776   3.560   4.481
  493TCM    cl1 2629   0.794   3.580   4.304
  493TCM    cl2 2630   0.619   3.631   4.532
  493TCM     h1 2631   0.777   3.454   4.506
  493TCM    cl3 2632   0.910   3.644   4.565
  494TCM     c1 2633   0.054   2.950   1.629
  494TCM    cl1 2634  -0.009   3.053   1.496
  494TCM    cl2 2635   0.029   3.034   1.785
  494TCM     h1 2636   0.000   2.855   1.629
  494TCM    cl3 2637   0.229   2.921   1.604
  495TCM     c1 2638   3.235   1.068   3.296
  495TCM    cl1 2639   3.364   1.030   3.415
  495TCM    cl2 2640   3.301   1.178   3.171
  495TCM     h1 2641   3.200   0.976   3.249
  495TCM    cl3 2642   3.099   1.150   3.379
  496TCM     c1 2643   0.145   1.268   1.841
  496TCM    cl1 2644   0.210   1.128   1.751
  496TCM    cl2 2645   0.045   1.210   1.978
  496TCM     h1 2646   0.227   1.329   1.879
  496TCM    cl3 2647   0.042   1.366   1.730
  497TCM     c1 2648   1.384   4.780   1.216
  497TCM    cl1 2649   1.304   4.752   1.058
  497TCM    cl2 2650   1.360   4.637   1.321
  497TCM     h1 2651   1.491   4.797   1.201
  497TCM    cl3 2652   1.311   4.924   1.294
  498TCM     c1 2653   2.607   2.800   3.526
  498TCM    cl1 2654   2.690   2.757   3.679
  498TCM    cl2 2655   2.676   2.952   3.461
  498TCM     h1 2656   2.621   2.719   3.453
  498TCM    cl3 2657   2.432   2.823   3.558
  499TCM     c1 2658   0.226   3.176   1.133
  499TCM    cl1 2659   0.336   3.312   1.092
  499TCM    cl2 2660   0.070   3.242   1.191
  499TCM     h1 2661   0.210   3.113   1.045
  499TCM    cl3 2662   0.301   3.077   1.263
  500TCM     c1 2663   1.642   0.140   0.133
  500TCM    cl1 2664   1.480   0.094   0.073
  500TCM    cl2 2665   1.763   0.023   0.072
  500TCM     h1 2666   1.668   0.240   0.097
  500TCM    cl3 2667   1.643   0.138   0.312
  501TCM     c1 2668   0.915   1.583   2.799
  501TCM    cl1 2669   0.850   1.439   2.884
  501TCM    cl2 2670   1.084   1.613   2.853
  501TCM     h1 2671   0.915   1.565   2.691
  501TCM    cl3 2672   0.814   1.726   2.837
  502TCM     c1 2673   2.665   3.548   2.180
  502TCM    cl1 2674   2.739   3.405   2.101
  502TCM    cl2 2675   2.725   3.561   2.349
  502TCM     h1 2676   2.692   3.639   2.126
  502TCM    cl3 2677   2.487   3.529   2.181
  503TCM     c1 2678   1.522   0.440   2.807
  503TCM    cl1 2679   1.524   0.489   2.634
  503TCM    cl2 2680   1.369   0.498   2.881
  503TCM     h1 2681   1.528   0.331   2.814
  503TCM    cl3 2682   1.660   0.515   2.892
  504TCM     c1 2683   4.870   0.060   2.692
  504TCM    cl1 2684   4.825  -0.044   2.554
  504TCM    cl2 2685   4.803  -0.009   2.844
  504TCM     h1 2686   4.979   0.065   2.700
  504TCM    cl3 2687   4.803   0.224   2.668
  505TCM     c1 2688   2.502   3.807   3.178
  505TCM    cl1 2689   2.339   3.863   3.228
  505TCM    cl2 2690   2.563   3.912   3.045
  505TCM     h1 2691   2.570   3.813   3.263
  505TCM    cl3 2692   2.492   3.638   3.120
  506TCM     c1 2693   0.137   4.883   4.990
  506TCM    cl1 2694   0.058   4.912   4.832
  506TCM    cl2 2695   0.251   4.745   4.976
  506TCM     h1 2696   0.192   4.972   5.021
  506TCM    cl3 2697   0.012   4.844   5.113
  507TCM     c1 2698   1.396   3.964   0.104
  507TCM    cl1 2699   1.275   3.916  -0.020
  507TCM    cl2 2700   1.548   3.873   0.076
  507TCM     h1 2701   1.415   4.071   0.096
  507TCM    cl3 2702   1.333   3.924   0.267
  508TCM     c1 2703   0.421   1.770   3.371
  508TCM    cl1 2704   0.303   1.654   3.303
  508TCM    cl2 2705   0.489   1.703   3.524
  508TCM     h1 2706   0.502   1.787   3.300
  508TCM    cl3 2707   0.337   1.925   3.406
  509TCM     c1 2708   4.452   0.016   4.689
  509TCM    cl1 2709   4.480   0.184   4.743
  509TCM    cl2 2710   4.362   0.020   4.533
  509TCM     h1 2711   4.547  -0.036   4.675
  509TCM    cl3 2712   4.354  -0.071   4.812
  510TCM     c1 2713   4.038   2.475   2.468
  510TCM    cl1 2714   4.211   2.430   2.462
  510TCM    cl2 2715   3.988   2.497   2.639
  510TCM     h1 2716   4.023   2.569   2.414
  510TCM    cl3 2717   3.939   2.346   2.393
  511TCM     c1 2718   3.153   4.652   1.662
  511TCM    cl1 2719   3.244   4.558   1.784
  511TCM    cl2 2720   3.253   4.792   1.609
  511TCM     h1 2721   3.130   4.589   1.576
  511TCM    cl3 2722   3.001   4.713   1.736
  512TCM     c1 2723   0.130   4.949   0.691
  512TCM    cl1 2724   0.090   5.114   0.630
  512TCM    cl2 2725  -0.020   4.853   0.705
  512TCM     h1 2726   0.199   4.900   0.621
  512TCM    cl3 2727   0.208   4.963   0.852
  513TCM     c1 2728   3.758   0.031   0.002
  513TCM    cl1 2729   3.787  -0.128   0.080
  513TCM    cl2 2730   3.831   0.033  -0.162
  513TCM     h1 2731   3.650   0.049  -0.006
  513TCM    cl3 2732   3.832   0.161   0.102
  514TCM     c1 2733   0.698   0.113   2.172
  514TCM    cl1 2734   0.675   0.248   2.287
  514TCM    cl2 2735   0.705   0.177   2.005
  514TCM     h1 2736   0.791   0.060   2.195
  514TCM    cl3 2737   0.559  -0.001   2.186
  515TCM     c1 2738   2.533   0.066   4.282
  515TCM    cl1 2739   2.616   0.039   4.126
  515TCM    cl2 2740   2.638   0.014   4.418
  515TCM     h1 2741   2.509   0.172   4.293
  515TCM    cl3 2742   2.382  -0.030   4.285
  516TCM     c1 2743   4.472   4.092   1.792
  516TCM    cl1 2744   4.296   4.055   1.789
  516TCM    cl2 2745   4.522   4.130   1.960
  516TCM     h1 2746   4.529   4.005   1.755
  516TCM    cl3 2747   4.505   4.234   1.687
  517TCM     c1 2748   3.069   3.679   4.772
  517TCM    cl1 2749   3.226   3.663   4.857
  517TCM    cl2 2750   2.985   3.520   4.774
  517TCM     h1 2751   3.008   3.754   4.823
  517TCM    cl3 2752   3.097   3.729   4.602
  518TCM     c1 2753   2.830   0.399   4.252
  518TCM    cl1 2754   2.667   0.394   4.179
  518TCM    cl2 2755   2.939   0.498   4.149
  518TCM     h1 2756   2.825   0.443   4.352
  518TCM    cl3 2757   2.895   0.232   4.264
  519TCM     c1 2758   3.474   3.319   1.639
  519TCM    cl1 2759   3.397   3.448   1.540
  519TCM    cl2 2760   3.441   3.351   1.812
  519TCM     h1 2761   3.432   3.222   1.611
  519TCM    cl3 2762   3.651   3.320   1.610
  520TCM     c1 2763   4.856   3.125   3.316
  520TCM    cl1 2764   4.930   3.288   3.319
  520TCM    cl2 2765   4.800   3.083   3.481
  520TCM     h1 2766   4.771   3.125   3.247
  520TCM    cl3 2767   4.979   3.006   3.263
  521TCM     c1 2768   1.745   3.486   3.065
  521TCM    cl1 2769   1.637   3.594   3.160
  521TCM    cl2 2770   1.849   3.585   2.957
  521TCM     h1 2771   1.809   3.429   3.134
  521TCM    cl3 2772   1.646   3.373   2.967
  522TCM     c1 2773   2.695   4.092   1.628
  522TCM    cl1 2774   2.616   3.981   1.513
  522TCM    cl2 2775   2.625   4.071   1.792
  522TCM     h1 2776   2.803   4.072   1.631
  522TCM    cl3 2777   2.668   4.261   1.574
  523TCM     c1 2778   0.189   1.504   2.824
  523TCM    cl1 2779   0.051   1.542   2.715
  523TCM    cl2 2780   0.197   1.328   2.854
  523TCM     h1 2781   0.283   1.538   2.778
  523TCM    cl3 2782   0.164   1.590   2.980
  524TCM     c1 2783   4.270   3.261   3.074
  524TCM    cl1 2784   4.335   3.204   2.916
  524TCM    cl2 2785   4.155   3.141   3.139
  524TCM     h1 2786   4.353   3.274   3.144
  524TCM    cl3 2787   4.186   3.418   3.052
  525TCM     c1 2788   2.771   4.976   2.506
  525TCM    cl1 2789   2.610   4.964   2.584
  525TCM    cl2 2790   2.859   5.118   2.574
  525TCM     h1 2791   2.828   4.885   2.526
  525TCM    cl3 2792   2.750   4.997   2.329
  526TCM     c1 2793   2.833   2.878   2.237
  526TCM    cl1 2794   2.782   2.990   2.106
  526TCM    cl2 2795   3.008   2.903   2.271
  526TCM     h1 2796   2.775   2.897   2.327
  526TCM    cl3 2797   2.808   2.708   2.184
  527TCM     c1 2798   1.741   3.103   4.062
  527TCM    cl1 2799   1.807   3.210   3.934
  527TCM    cl2 2800   1.720   3.197   4.213
  527TCM     h1 2801   1.644   3.063   4.030
  527TCM    cl3 2802   1.855   2.968   4.088
  528TCM     c1 2803   4.995   1.733   0.299
  528TCM    cl1 2804   5.016   1.749   0.121
  528TCM    cl2 2805   4.992   1.559   0.343
  528TCM     h1 2806   5.078   1.782   0.351
  528TCM    cl3 2807   4.840   1.809   0.348
  529TCM     c1 2808   2.014   3.048   1.840
  529TCM    cl1 2809   2.104   2.954   1.963
  529TCM    cl2 2810   1.962   2.938   1.708
  529TCM     h1 2811   1.926   3.095   1.886
  529TCM    cl3 2812   2.121   3.176   1.773
  530TCM     c1 2813   1.837   0.502   4.519
  530TCM    cl1 2814   1.797   0.338   4.460
  530TCM    cl2 2815   1.996   0.498   4.604
  530TCM     h1 2816   1.844   0.571   4.434
  530TCM    cl3 2817   1.710   0.559   4.632
  531TCM     c1 2818   0.105   4.862   3.954
  531TCM    cl1 2819   0.175   4.893   4.117
  531TCM    cl2 2820   0.237   4.861   3.834
  531TCM     h1 2821   0.054   4.765   3.953
  531TCM    cl3 2822  -0.011   4.993   3.916
  532TCM     c1 2823   1.572   4.423   1.534
  532TCM    cl1 2824   1.670   4.464   1.389
  532TCM    cl2 2825   1.661   4.471   1.682
  532TCM     h1 2826   1.476   4.476   1.529
  532TCM    cl3 2827   1.543   4.246   1.537
  533TCM     c1 2828   4.839   0.546   3.957
  533TCM    cl1 2829   4.712   0.555   4.084
  533TCM    cl2 2830   4.857   0.376   3.905
  533TCM     h1 2831   4.810   0.608   3.872
  533TCM    cl3 2832   4.994   0.605   4.024
  534TCM     c1 2833   2.249   3.158   4.976
  534TCM    cl1 2834   2.222   3.272   4.841
  534TCM    cl2 2835   2.148   3.206   5.116
  534TCM     h1 2836   2.221   3.057   4.944
  534TCM    cl3 2837   2.421   3.162   5.024
  535TCM     c1 2838   2.647   4.226   1.202
  535TCM    cl1 2839   2.826   4.210   1.198
  535TCM    cl2 2840   2.580   4.194   1.039
  535TCM     h1 2841   2.605   4.155   1.273
  535TCM    cl3 2842   2.605   4.394   1.251
  536TCM     c1 2843   1.587   0.879   3.967
  536TCM    cl1 2844   1.652   0.874   4.134
  536TCM    cl2 2845   1.723   0.897   3.852
  536TCM     h1 2846   1.532   0.786   3.946
  536TCM    cl3 2847   1.476   1.019   3.949
  537TCM     c1 2848   1.526   0.988   2.684
  537TCM    cl1 2849   1.486   0.967   2.510
  537TCM    cl2 2850   1.499   0.833   2.769
  537TCM     h1 2851   1.630   1.018   2.694
  537TCM    cl3 2852   1.420   1.115   2.755
  538TCM     c1 2853   1.988   3.138   3.624
  538TCM    cl1 2854   1.910   3.049   3.489
  538TCM    cl2 2855   2.113   3.249   3.558
  538TCM     h1 2856   1.912   3.196   3.677
  538TCM    cl3 2857   2.064   3.021   3.737
  539TCM     c1 2858   3.758   4.168   3.022
  539TCM    cl1 2859   3.852   4.092   3.155
  539TCM    cl2 2860   3.799   4.342   3.012
  539TCM     h1 2861   3.782   4.119   2.928
  539TCM    cl3 2862   3.582   4.150   3.057
  540TCM     c1 2863   2.690   4.924   0.328
  540TCM    cl1 2864   2.744   4.759   0.371
  540TCM    cl2 2865   2.802   5.045   0.399
  540TCM     h1 2866   2.689   4.935   0.219
  540TCM    cl3 2867   2.524   4.951   0.392
  541TCM     c1 2868   1.744   3.617   3.801
  541TCM    cl1 2869   1.887   3.522   3.751
  541TCM    cl2 2870   1.640   3.519   3.910
  541TCM     h1 2871   1.776   3.707   3.854
  541TCM    cl3 2872   1.650   3.663   3.655
  542TCM     c1 2873   1.256   2.112   4.459
  542TCM    cl1 2874   1.102   2.022   4.444
  542TCM    cl2 2875   1.332   2.078   4.617
  542TCM     h1 2876   1.324   2.082   4.378
  542TCM    cl3 2877   1.223   2.288   4.446
  543TCM     c1 2878   2.808   4.810   3.680
  543TCM    cl1 2879   2.892   4.902   3.550
  543TCM    cl2 2880   2.719   4.924   3.785
  543TCM     h1 2881   2.738   4.739   3.636
  543TCM    cl3 2882   2.931   4.723   3.776
  544TCM     c1 2883   1.941   1.059   2.045
  544TCM    cl1 2884   1.940   1.137   1.883
  544TCM    cl2 2885   2.021   1.168   2.163
  544TCM     h1 2886   1.839   1.038   2.077
  544TCM    cl3 2887   2.034   0.906   2.036
  545TCM     c1 2888   2.268   2.762   0.204
  545TCM    cl1 2889   2.396   2.659   0.277
  545TCM    cl2 2890   2.319   2.814   0.040
  545TCM     h1 2891   2.175   2.705   0.197
  545TCM    cl3 2892   2.241   2.906   0.308
  546TCM     c1 2893   3.449   2.196   4.334
  546TCM    cl1 2894   3.428   2.290   4.485
  546TCM    cl2 2895   3.624   2.188   4.294
  546TCM     h1 2896   3.410   2.095   4.348
  546TCM    cl3 2897   3.361   2.276   4.200
  547TCM     c1 2898   0.685   0.544   1.884
  547TCM    cl1 2899   0.558   0.449   1.801
  547TCM    cl2 2900   0.649   0.549   2.060
  547TCM     h1 2901   0.783   0.498   1.868
  547TCM    cl3 2902   0.686   0.711   1.819
  548TCM     c1 2903   0.110   2.790   3.517
  548TCM    cl1 2904   0.138   2.935   3.619
  548TCM    cl2 2905  -0.057   2.730   3.544
  548TCM     h1 2906   0.122   2.816   3.412
  548TCM    cl3 2907   0.227   2.661   3.561
  549TCM     c1 2908   4.334   4.720   0.632
  549TCM    cl1 2909   4.301   4.736   0.808
  549TCM    cl2 2910   4.410   4.871   0.572
  549TCM     h1 2911   4.401   4.635   0.615
  549TCM    cl3 2912   4.179   4.694   0.546
  550TCM     c1 2913   0.101   4.036   1.020
  550TCM    cl1 2914  -0.029   3.915   1.043
  550TCM    cl2 2915   0.031   4.188   0.957
  550TCM     h1 2916   0.151   4.055   1.115
  550TCM    cl3 2917   0.220   3.972   0.901
  551TCM     c1 2918   2.111   2.169   3.833
  551TCM    cl1 2919   2.150   2.237   3.671
  551TCM    cl2 2920   2.238   2.217   3.951
  551TCM     h1 2921   2.014   2.207   3.866
  551TCM    cl3 2922   2.106   1.990   3.823
  552TCM     c1 2923   0.515   3.922   1.174
  552TCM    cl1 2924   0.400   3.784   1.168
  552TCM    cl2 2925   0.424   4.073   1.206
  552TCM     h1 2926   0.588   3.905   1.253
  552TCM    cl3 2927   0.600   3.936   1.016
  553TCM     c1 2928   1.451   3.536   0.209
  553TCM    cl1 2929   1.376   3.383   0.152
  553TCM    cl2 2930   1.630   3.517   0.210
  553TCM     h1 2931   1.423   3.618   0.142
  553TCM    cl3 2932   1.396   3.572   0.375
  554TCM     c1 2933   3.212   1.988   2.492
  554TCM    cl1 2934   3.310   1.937   2.350
  554TCM    cl2 2935   3.096   2.116   2.442
  554TCM     h1 2936   3.158   1.903   2.532
  554TCM    cl3 2937   3.322   2.054   2.619
  555TCM     c1 2938   1.770   2.535   2.343
  555TCM    cl1 2939   1.885   2.491   2.473
  555TCM    cl2 2940   1.607   2.564   2.414
  555TCM     h1 2941   1.804   2.626   2.293
  555TCM    cl3 2942   1.760   2.401   2.223
  556TCM     c1 2943   3.040   0.039   1.877
  556TCM    cl1 2944   3.011   0.215   1.864
  556TCM    cl2 2945   2.928  -0.032   1.998
  556TCM     h1 2946   3.024  -0.009   1.780
  556TCM    cl3 2947   3.209   0.010   1.930
  557TCM     c1 2948   0.928   2.473   4.372
  557TCM    cl1 2949   1.009   2.615   4.448
  557TCM    cl2 2950   0.809   2.529   4.251
  557TCM     h1 2951   1.003   2.410   4.323
  557TCM    cl3 2952   0.845   2.378   4.499
  558TCM     c1 2953   4.647   3.632   4.748
  558TCM    cl1 2954   4.801   3.580   4.672
  558TCM    cl2 2955   4.581   3.772   4.658
  558TCM     h1 2956   4.575   3.549   4.746
  558TCM    cl3 2957   4.677   3.680   4.919
  559TCM     c1 2958   0.095   1.731   3.759
  559TCM    cl1 2959   0.152   1.623   3.628
  559TCM    cl2 2960  -0.084   1.731   3.761
  559TCM     h1 2961   0.133   1.696   3.855
  559TCM    cl3 2962   0.154   1.898   3.727
  560TCM     c1 2963   4.090   2.023   2.697
  560TCM    cl1 2964   3.953   2.139   2.696
  560TCM    cl2 2965   4.189   2.046   2.549
  560TCM     h1 2966   4.152   2.039   2.785
  560TCM    cl3 2967   4.024   1.856   2.699
  561TCM     c1 2968   1.287   2.846   0.111
  561TCM    cl1 2969   1.345   2.937   0.255
  561TCM    cl2 2970   1.109   2.825   0.122
  561TCM     h1 2971   1.312   2.901   0.020
  561TCM    cl3 2972   1.365   2.685   0.106
  562TCM     c1 2973   3.576   1.660   2.847
  562TCM    cl1 2974   3.533   1.725   2.685
  562TCM    cl2 2975   3.752   1.625   2.851
  562TCM     h1 2976   3.552   1.733   2.924
  562TCM    cl3 2977   3.484   1.508   2.877
  563TCM     c1 2978   2.774   4.682   0.951
  563TCM    cl1 2979   2.896   4.799   1.013
  563TCM    cl2 2980   2.621   4.703   1.041
  563TCM     h1 2981   2.757   4.700   0.845
  563TCM    cl3 2982   2.835   4.515   0.976
  564TCM     c1 2983   1.648   3.800   0.597
  564TCM    cl1 2984   1.691   3.810   0.424
  564TCM    cl2 2985   1.666   3.631   0.654
  564TCM     h1 2986   1.713   3.866   0.655
  564TCM    cl3 2987   1.477   3.852   0.619
  565TCM     c1 2988   4.975   3.025   4.973
  565TCM    cl1 2989   4.964   3.155   5.095
  565TCM    cl2 2990   4.811   2.967   4.931
  565TCM     h1 2991   5.025   3.063   4.883
  565TCM    cl3 2992   5.070   2.889   5.042
  566TCM     c1 2993   2.967   4.794   2.852
  566TCM    cl1 2994   3.081   4.924   2.900
  566TCM    cl2 2995   3.001   4.744   2.683
  566TCM     h1 2996   2.978   4.709   2.919
  566TCM    cl3 2997   2.800   4.858   2.861
  567TCM     c1 2998   4.401   3.790   3.655
  567TCM    cl1 2999   4.357   3.617   3.677
  567TCM    cl2 3000   4.274   3.894   3.726
  567TCM     h1 3001   4.496   3.809   3.705
  567TCM    cl3 3002   4.417   3.827   3.480
  568TCM     c1 3003   1.474   0.807   3.137
  568TCM    cl1 3004   1.467   0.981   3.094
  568TCM    cl2 3005   1.378   0.781   3.287
  568TCM     h1 3006   1.432   0.747   3.056
  568TCM    cl3 3007   1.644   0.761   3.167
  569TCM     c1 3008   3.092   2.449   4.378
  569TCM    cl1 3009   3.021   2.517   4.229
  569TCM    cl2 3010   3.046   2.276   4.393
  569TCM     h1 3011   3.201   2.457   4.374
  569TCM    cl3 3012   3.031   2.539   4.521
  570TCM     c1 3013   2.324   4.053   0.417
  570TCM    cl1 3014   2.155   3.994   0.431
  570TCM    cl2 3015   2.373   4.134   0.569
  570TCM     h1 3016   2.391   3.969   0.397
  570TCM    cl3 3017   2.333   4.170   0.282
  571TCM     c1 3018   3.132   1.974   0.092
  571TCM    cl1 3019   3.173   1.854  -0.035
  571TCM    cl2 3020   2.994   1.912   0.190
  571TCM     h1 3021   3.218   1.989   0.157
  571TCM    cl3 3022   3.087   2.129   0.015
  572TCM     c1 3023   2.407   1.582   3.747
  572TCM    cl1 3024   2.475   1.462   3.862
  572TCM    cl2 3025   2.260   1.656   3.818
  572TCM     h1 3026   2.481   1.660   3.727
  572TCM    cl3 3027   2.363   1.499   3.594
  573TCM     c1 3028   1.197   0.695   2.607
  573TCM    cl1 3029   1.244   0.677   2.435
  573TCM    cl2 3030   1.072   0.572   2.648
  573TCM     h1 3031   1.285   0.681   2.671
  573TCM    cl3 3032   1.129   0.859   2.635
  574TCM     c1 3033   2.611   4.178   4.936
  574TCM    cl1 3034   2.506   4.046   4.996
  574TCM    cl2 3035   2.545   4.240   4.780
  574TCM     h1 3036   2.613   4.259   5.009
  574TCM    cl3 3037   2.777   4.115   4.911
  575TCM     c1 3038   2.273   4.285   1.642
  575TCM    cl1 3039   2.279   4.109   1.674
  575TCM    cl2 3040   2.327   4.316   1.474
  575TCM     h1 3041   2.170   4.321   1.654
  575TCM    cl3 3042   2.381   4.371   1.757
  576TCM     c1 3043   0.895   2.495   0.034
  576TCM    cl1 3044   0.813   2.628   0.120
  576TCM    cl2 3045   0.812   2.466  -0.123
  576TCM     h1 3046   1.000   2.521   0.016
  576TCM    cl3 3047   0.888   2.346   0.133
  577TCM     c1 3048   1.558   0.972   1.716
  577TCM    cl1 3049   1.590   1.148   1.732
  577TCM    cl2 3050   1.394   0.936   1.780
  577TCM     h1 3051   1.564   0.943   1.611
  577TCM    cl3 3052   1.680   0.881   1.811
  578TCM     c1 3053   0.148   3.469   3.668
  578TCM    cl1 3054   0.054   3.580   3.772
  578TCM    cl2 3055   0.157   3.538   3.502
  578TCM     h1 3056   0.249   3.456   3.708
  578TCM    cl3 3057   0.065   3.310   3.660
  579TCM     c1 3058   0.506   0.208   3.707
  579TCM    cl1 3059   0.568   0.290   3.559
  579TCM    cl2 3060   0.564   0.038   3.708
  579TCM     h1 3061   0.543   0.260   3.796
  579TCM    cl3 3062   0.327   0.210   3.706
  580TCM     c1 3063   4.216   0.056   3.061
  580TCM    cl1 3064   4.320   0.202   3.058
  580TCM    cl2 3065   4.127   0.042   2.906
  580TCM     h1 3066   4.279  -0.033   3.076
  580TCM    cl3 3067   4.099   0.069   3.197
  581TCM     c1 3068   3.157   3.926   1.463
  581TCM    cl1 3069   3.271   3.990   1.340
  581TCM    cl2 3070   3.163   3.747   1.463
  581TCM     h1 3071   3.184   3.964   1.562
  581TCM    cl3 3072   2.990   3.980   1.422
  582TCM     c1 3073   4.485   4.213   3.664
  582TCM    cl1 3074   4.510   4.362   3.762
  582TCM    cl2 3075   4.599   4.086   3.719
  582TCM     h1 3076   4.382   4.179   3.676
  582TCM    cl3 3077   4.518   4.250   3.492
  583TCM     c1 3078   1.005   3.321   0.416
  583TCM    cl1 3079   1.178   3.283   0.448
  583TCM    cl2 3080   0.994   3.435   0.278
  583TCM     h1 3081   0.952   3.228   0.391
  583TCM    cl3 3082   0.932   3.395   0.562
  584TCM     c1 3083   0.104   2.294   4.900
  584TCM    cl1 3084   0.157   2.136   4.967
  584TCM    cl2 3085   0.199   2.327   4.751
  584TCM     h1 3086  -0.002   2.291   4.876
  584TCM    cl3 3087   0.134   2.424   5.021
  585TCM     c1 3088   0.871   4.847   2.432
  585TCM    cl1 3089   0.757   4.962   2.509
  585TCM    cl2 3090   0.993   4.940   2.338
  585TCM     h1 3091   0.922   4.788   2.508
  585TCM    cl3 3092   0.781   4.739   2.321
  586TCM     c1 3093   0.921   1.211   4.033
  586TCM    cl1 3094   0.831   1.309   4.154
  586TCM    cl2 3095   0.812   1.165   3.898
  586TCM     h1 3096   1.005   1.270   3.995
  586TCM    cl3 3097   0.983   1.063   4.113
  587TCM     c1 3098   3.588   2.626   4.231
  587TCM    cl1 3099   3.603   2.526   4.082
  587TCM    cl2 3100   3.690   2.555   4.361
  587TCM     h1 3101   3.622   2.728   4.210
  587TCM    cl3 3102   3.417   2.628   4.285
  588TCM     c1 3103   1.985   3.531   4.954
  588TCM    cl1 3104   2.001   3.560   4.778
  588TCM    cl2 3105   1.877   3.390   4.982
  588TCM     h1 3106   2.083   3.512   4.997
  588TCM    cl3 3107   1.912   3.676   5.031
  589TCM     c1 3108   0.927   0.408   0.643
  589TCM    cl1 3109   0.948   0.336   0.480
  589TCM    cl2 3110   0.932   0.587   0.630
  589TCM     h1 3111   0.830   0.377   0.684
  589TCM    cl3 3112   1.058   0.352   0.751
  590TCM     c1 3113   0.526   3.679   0.328
  590TCM    cl1 3114   0.582   3.748   0.172
  590TCM    cl2 3115   0.660   3.589   0.404
  590TCM     h1 3116   0.494   3.761   0.394
  590TCM    cl3 3117   0.388   3.569   0.298
  591TCM     c1 3118   3.087   1.459   3.173
  591TCM    cl1 3119   3.208   1.527   3.286
  591TCM    cl2 3120   3.126   1.511   3.006
  591TCM     h1 3121   3.089   1.350   3.178
  591TCM    cl3 3122   2.924   1.517   3.218
  592TCM     c1 3123   2.572   4.573   0.093
  592TCM    cl1 3124   2.503   4.739   0.091
  592TCM    cl2 3125   2.664   4.545  -0.058
  592TCM     h1 3126   2.638   4.562   0.180
  592TCM    cl3 3127   2.439   4.454   0.102
  593TCM     c1 3128   3.683   3.410   3.201
  593TCM    cl1 3129   3.799   3.463   3.327
  593TCM    cl2 3130   3.738   3.471   3.042
  593TCM     h1 3131   3.678   3.301   3.199
  593TCM    cl3 3132   3.520   3.477   3.239
  594TCM     c1 3133   2.950   3.817   0.808
  594TCM    cl1 3134   2.990   3.902   0.961
  594TCM    cl2 3135   2.898   3.936   0.685
  594TCM     h1 3136   3.038   3.763   0.771
  594TCM    cl3 3137   2.816   3.701   0.838
  595TCM     c1 3138   4.371   4.327   1.075
  595TCM    cl1 3139   4.460   4.392   0.933
  595TCM    cl2 3140   4.487   4.301   1.210
  595TCM     h1 3141   4.295   4.399   1.106
  595TCM    cl3 3142   4.293   4.171   1.034
  596TCM     c1 3143   4.383   2.896   4.964
  596TCM    cl1 3144   4.348   3.002   5.104
  596TCM    cl2 3145   4.497   2.767   5.015
  596TCM     h1 3146   4.290   2.850   4.928
  596TCM    cl3 3147   4.458   2.993   4.833
  597TCM     c1 3148   2.760   0.884   2.202
  597TCM    cl1 3149   2.705   0.717   2.167
  597TCM    cl2 3150   2.727   0.988   2.059
  597TCM     h1 3151   2.707   0.923   2.289
  597TCM    cl3 3152   2.936   0.883   2.236
  598TCM     c1 3153   3.174   4.392   2.809
  598TCM    cl1 3154   3.277   4.539   2.814
  598TCM    cl2 3155   3.016   4.427   2.886
  598TCM     h1 3156   3.158   4.362   2.705
  598TCM    cl3 3157   3.256   4.260   2.898
  599TCM     c1 3158   3.534   3.586   3.770
  599TCM    cl1 3159   3.680   3.516   3.847
  599TCM    cl2 3160   3.397   3.472   3.789
  599TCM     h1 3161   3.509   3.682   3.817
  599TCM    cl3 3162   3.566   3.613   3.595
  600TCM     c1 3163   4.095   0.339   4.891
  600TCM    cl1 3164   4.237   0.445   4.916
  600TCM    cl2 3165   4.126   0.228   4.753
  600TCM     h1 3166   4.076   0.281   4.981
  600TCM    cl3 3167   3.951   0.439   4.853
  601TCM     c1 3168   3.032   2.903   3.421
  601TCM    cl1 3169   3.056   2.805   3.569
  601TCM    cl2 3170   3.158   2.861   3.301
  601TCM     h1 3171   2.933   2.882   3.379
  601TCM    cl3 3172   3.044   3.077   3.463
  602TCM     c1 3173   0.636   2.454   1.871
  602TCM    cl1 3174   0.785   2.531   1.808
  602TCM    cl2 3175   0.576   2.333   1.753
  602TCM     h1 3176   0.657   2.405   1.966
  602TCM    cl3 3177   0.510   2.581   1.896
  603TCM     c1 3178   0.092   4.224   3.055
  603TCM    cl1 3179   0.208   4.282   2.930
  603TCM    cl2 3180   0.172   4.097   3.154
  603TCM     h1 3181   0.063   4.307   3.119
  603TCM    cl3 3182  -0.052   4.154   2.975
  604TCM     c1 3183   2.445   3.356   1.359
  604TCM    cl1 3184   2.559   3.232   1.297
  604TCM    cl2 3185   2.532   3.467   1.470
  604TCM     h1 3186   2.403   3.412   1.276
  604TCM    cl3 3187   2.313   3.275   1.451
  605TCM     c1 3188   0.180   1.474   2.385
  605TCM    cl1 3189   0.204   1.450   2.209
  605TCM    cl2 3190   0.291   1.602   2.443
  605TCM     h1 3191   0.076   1.504   2.404
  605TCM    cl3 3192   0.213   1.319   2.471
  606TCM     c1 3193   3.672   3.043   3.845
  606TCM    cl1 3194   3.586   3.164   3.946
  606TCM    cl2 3195   3.694   2.892   3.939
  606TCM     h1 3196   3.614   3.023   3.755
  606TCM    cl3 3197   3.833   3.108   3.798
  607TCM     c1 3198   1.633   3.356   3.465
  607TCM    cl1 3199   1.800   3.404   3.421
  607TCM    cl2 3200   1.636   3.265   3.620
  607TCM     h1 3201   1.570   3.445   3.476
  607TCM    cl3 3202   1.566   3.251   3.336
  608TCM     c1 3203   2.526   3.187   2.330
  608TCM    cl1 3204   2.479   3.014   2.314
  608TCM    cl2 3205   2.687   3.196   2.409
  608TCM     h1 3206   2.531   3.233   2.231
  608TCM    cl3 3207   2.404   3.272   2.430
  609TCM     c1 3208   1.836   3.021   4.965
  609TCM    cl1 3209   1.947   2.911   5.054
  609TCM    cl2 3210   1.679   2.937   4.937
  609TCM     h1 3211   1.820   3.112   5.023
  609TCM    cl3 3212   1.910   3.063   4.807
  610TCM     c1 3213   4.786   0.740   2.724
  610TCM    cl1 3214   4.873   0.584   2.743
  610TCM    cl2 3215   4.801   0.795   2.554
  610TCM     h1 3216   4.680   0.726   2.749
  610TCM    cl3 3217   4.857   0.863   2.834
  611TCM     c1 3218   0.149   2.078   1.065
  611TCM    cl1 3219   0.215   2.092   0.899
  611TCM    cl2 3220   0.261   2.158   1.180
  611TCM     h1 3221   0.051   2.125   1.070
  611TCM    cl3 3222   0.134   1.904   1.110
  612TCM     c1 3223   3.077   3.808   0.250
  612TCM    cl1 3224   3.237   3.738   0.208
  612TCM    cl2 3225   2.993   3.859   0.100
  612TCM     h1 3226   3.017   3.733   0.302
  612TCM    cl3 3227   3.102   3.951   0.355
  613TCM     c1 3228   2.722   3.906   3.556
  613TCM    cl1 3229   2.783   4.035   3.664
  613TCM    cl2 3230   2.812   3.911   3.400
  613TCM     h1 3231   2.736   3.808   3.603
  613TCM    cl3 3232   2.547   3.931   3.523
  614TCM     c1 3233   2.112   4.427   1.993
  614TCM    cl1 3234   2.131   4.250   2.010
  614TCM    cl2 3235   2.022   4.491   2.135
  614TCM     h1 3236   2.210   4.474   1.987
  614TCM    cl3 3237   2.018   4.462   1.844
  615TCM     c1 3238   1.380   1.528   0.468
  615TCM    cl1 3239   1.321   1.552   0.636
  615TCM    cl2 3240   1.554   1.569   0.459
  615TCM     h1 3241   1.365   1.424   0.438
  615TCM    cl3 3242   1.288   1.636   0.359
  616TCM     c1 3243   0.550   2.786   4.275
  616TCM    cl1 3244   0.483   2.950   4.305
  616TCM    cl2 3245   0.496   2.728   4.114
  616TCM     h1 3246   0.659   2.789   4.278
  616TCM    cl3 3247   0.490   2.672   4.401
  617TCM     c1 3248   0.401   1.472   4.412
  617TCM    cl1 3249   0.430   1.634   4.485
  617TCM    cl2 3250   0.554   1.380   4.409
  617TCM     h1 3251   0.326   1.418   4.472
  617TCM    cl3 3252   0.341   1.493   4.245
  618TCM     c1 3253   0.164   2.669   0.595
  618TCM    cl1 3254   0.064   2.711   0.738
  618TCM    cl2 3255   0.057   2.609   0.464
  618TCM     h1 3256   0.218   2.758   0.560
  618TCM    cl3 3257   0.280   2.540   0.639
  619TCM     c1 3258   2.069   4.079   4.640
  619TCM    cl1 3259   2.072   4.069   4.461
  619TCM    cl2 3260   2.237   4.074   4.702
  619TCM     h1 3261   2.022   4.173   4.671
  619TCM    cl3 3262   1.975   3.942   4.707
  620TCM     c1 3263   2.959   3.220   3.132
  620TCM    cl1 3264   2.876   3.325   3.012
  620TCM    cl2 3265   3.131   3.199   3.086
  620TCM     h1 3266   2.954   3.267   3.230
  620TCM    cl3 3267   2.877   3.060   3.136
  621TCM     c1 3268   2.841   4.185   0.300
  621TCM    cl1 3269   2.893   4.240   0.463
  621TCM    cl2 3270   2.811   4.329   0.197
  621TCM     h1 3271   2.919   4.123   0.255
  621TCM    cl3 3272   2.689   4.090   0.314
  622TCM     c1 3273   3.442   4.371   0.327
  622TCM    cl1 3274   3.469   4.331   0.154
  622TCM    cl2 3275   3.580   4.311   0.424
  622TCM     h1 3276   3.431   4.479   0.339
  622TCM    cl3 3277   3.292   4.289   0.382
  623TCM     c1 3278   2.289   3.636   0.757
  623TCM    cl1 3279   2.305   3.804   0.697
  623TCM    cl2 3280   2.350   3.628   0.926
  623TCM     h1 3281   2.183   3.607   0.755
  623TCM    cl3 3282   2.384   3.526   0.653
  624TCM     c1 3283   3.960   3.737   3.499
  624TCM    cl1 3284   4.097   3.644   3.432
  624TCM    cl2 3285   3.986   3.912   3.468
  624TCM     h1 3286   3.866   3.705   3.452
  624TCM    cl3 3287   3.950   3.710   3.676
  625TCM     c1 3288   0.333   4.522   4.125
  625TCM    cl1 3289   0.161   4.535   4.080
  625TCM    cl2 3290   0.361   4.623   4.271
  625TCM     h1 3291   0.359   4.418   4.146
  625TCM    cl3 3292   0.435   4.584   3.991
  626TCM     c1 3293   4.052   0.080   3.553
  626TCM    cl1 3294   4.223   0.132   3.543
  626TCM    cl2 3295   3.970   0.174   3.683
  626TCM     h1 3296   4.001   0.097   3.458
  626TCM    cl3 3297   4.046  -0.095   3.593
  627TCM     c1 3298   2.336   2.458   3.305
  627TCM    cl1 3299   2.476   2.567   3.280
  627TCM    cl2 3300   2.217   2.536   3.414
  627TCM     h1 3301   2.289   2.436   3.209
  627TCM    cl3 3302   2.392   2.305   3.381
  628TCM     c1 3303   0.038   4.361   2.561
  628TCM    cl1 3304  -0.056   4.407   2.706
  628TCM    cl2 3305   0.046   4.182   2.550
  628TCM     h1 3306  -0.012   4.401   2.472
  628TCM    cl3 3307   0.204   4.428   2.572
  629TCM     c1 3308   2.374   0.611   2.109
  629TCM    cl1 3309   2.372   0.760   2.010
  629TCM    cl2 3310   2.442   0.476   2.013
  629TCM     h1 3311   2.435   0.627   2.198
  629TCM    cl3 3312   2.207   0.571   2.160
  630TCM     c1 3313   0.166   2.313   2.832
  630TCM    cl1 3314   0.227   2.237   2.681
  630TCM    cl2 3315   0.240   2.233   2.973
  630TCM     h1 3316   0.192   2.420   2.832
  630TCM    cl3 3317  -0.012   2.295   2.840
  631TCM     c1 3318   1.132   3.716   0.679
  631TCM    cl1 3319   1.095   3.730   0.504
  631TCM    cl2 3320   1.229   3.568   0.708
  631TCM     h1 3321   1.189   3.803   0.711
  631TCM    cl3 3322   0.978   3.706   0.771
  632TCM     c1 3323   2.400   3.216   0.413
  632TCM    cl1 3324   2.457   3.366   0.331
  632TCM    cl2 3325   2.233   3.240   0.475
  632TCM     h1 3326   2.401   3.133   0.343
  632TCM    cl3 3327   2.508   3.180   0.552
  633TCM     c1 3328   0.581   0.716   0.644
  633TCM    cl1 3329   0.574   0.538   0.663
  633TCM    cl2 3330   0.541   0.794   0.800
  633TCM     h1 3331   0.681   0.746   0.613
  633TCM    cl3 3332   0.461   0.766   0.520
  634TCM     c1 3333   4.994   1.900   3.022
  634TCM    cl1 3334   4.951   2.055   3.102
  634TCM    cl2 3335   5.043   1.931   2.853
  634TCM     h1 3336   5.076   1.853   3.077
  634TCM    cl3 3337   4.851   1.792   3.023
  635TCM     c1 3338   2.293   0.699   3.291
  635TCM    cl1 3339   2.295   0.595   3.145
  635TCM    cl2 3340   2.460   0.727   3.349
  635TCM     h1 3341   2.246   0.795   3.267
  635TCM    cl3 3342   2.198   0.617   3.419
  636TCM     c1 3343   0.208   0.821   2.128
  636TCM    cl1 3344   0.164   0.962   2.231
  636TCM    cl2 3345   0.386   0.813   2.110
  636TCM     h1 3346   0.171   0.729   2.174
  636TCM    cl3 3347   0.133   0.840   1.965
  637TCM     c1 3348   3.937   0.168   4.396
  637TCM    cl1 3349   3.822   0.227   4.520
  637TCM    cl2 3350   4.082   0.274   4.391
  637TCM     h1 3351   3.967   0.066   4.420
  637TCM    cl3 3352   3.858   0.171   4.235
  638TCM     c1 3353   0.014   0.874   4.939
  638TCM    cl1 3354   0.058   0.719   4.859
  638TCM    cl2 3355   0.163   0.966   4.979
  638TCM     h1 3356  -0.050   0.933   4.873
  638TCM    cl3 3357  -0.074   0.838   5.091
  639TCM     c1 3358   2.802   0.179   1.220
  639TCM    cl1 3359   2.806   0.274   1.372
  639TCM    cl2 3360   2.678   0.050   1.234
  639TCM     h1 3361   2.778   0.244   1.136
  639TCM    cl3 3362   2.963   0.104   1.193
  640TCM     c1 3363   1.951   1.208   3.791
  640TCM    cl1 3364   1.930   1.177   3.967
  640TCM    cl2 3365   2.007   1.057   3.711
  640TCM     h1 3366   1.856   1.239   3.748
  640TCM    cl3 3367   2.074   1.337   3.768
   5.00000   5.00000   5.00000
