GROtesk MACabre and Sinister
 3367
    1MOP     C1    1   2.826   1.724   0.503
    1MOP     O2    2   2.868   1.804   0.584
    1MOP     C3    3   2.731   1.614   0.534
    1MOP     C4    4   2.680   1.530   0.433
    1MOP     C5    5   2.575   1.444   0.462
    1MOP     C6    6   2.521   1.437   0.591
    1MOP     C7    7   2.410   1.348   0.620
    1MOP     C8    8   2.420   1.207   0.612
    1MOP     C9    9   2.308   1.132   0.654
    1MOP    C10   10   2.192   1.193   0.704
    1MOP    O11   11   2.097   1.110   0.757
    1MOP    C12   12   2.030   1.169   0.869
    1MOP    C13   13   2.179   1.331   0.698
    1MOP    C14   14   2.287   1.408   0.658
    1MOP    C15   15   2.541   1.137   0.563
    1MOP    C16   16   2.667   1.155   0.623
    1MOP    C17   17   2.778   1.082   0.584
    1MOP    C18   18   2.768   0.991   0.479
    1MOP    C19   19   2.645   0.973   0.411
    1MOP    C20   20   2.535   1.048   0.454
    1MOP    C21   21   2.640   0.882   0.288
    1MOP    N22   22   2.506   0.851   0.237
    1MOP    C23   23   2.730   0.759   0.290
    1MOP    C24   24   2.578   1.517   0.693
    1MOP    C25   25   2.681   1.605   0.665
    1MOP    H26   26   2.717   1.535   0.332
    1MOP    H27   27   2.534   1.382   0.382
    1MOP    H28   28   2.315   1.024   0.655
    1MOP    H29   29   1.981   1.090   0.926
    1MOP    H30   30   1.954   1.239   0.835
    1MOP    H31   31   2.100   1.218   0.937
    1MOP    H32   32   2.087   1.381   0.726
    1MOP    H33   33   2.278   1.516   0.659
    1MOP    H34   34   2.679   1.227   0.705
    1MOP    H35   35   2.873   1.095   0.635
    1MOP    H36   36   2.857   0.936   0.449
    1MOP    H37   37   2.440   1.041   0.401
    1MOP    H38   38   2.681   0.947   0.208
    1MOP    H39   39   2.490   0.876   0.140
    1MOP    H40   40   2.684   0.673   0.240
    1MOP    H41   41   2.759   0.727   0.391
    1MOP    H42   42   2.823   0.779   0.237
    1MOP    H43   43   2.539   1.511   0.794
    1MOP    H44   44   2.721   1.669   0.744
    2MOP    C45   45   2.393   0.794   0.291
    2MOP    O46   46   2.293   0.785   0.221
    2MOP    C47   47   2.385   0.754   0.433
    2MOP    C48   48   2.486   0.682   0.495
    2MOP    C49   49   2.481   0.658   0.632
    2MOP    C50   50   2.372   0.699   0.708
    2MOP    C51   51   2.365   0.665   0.850
    2MOP    C52   52   2.456   0.716   0.947
    2MOP    C53   53   2.436   0.673   1.080
    2MOP    C54   54   2.334   0.586   1.120
    2MOP    O55   55   2.326   0.564   1.254
    2MOP    C56   56   2.199   0.524   1.304
    2MOP    C57   57   2.250   0.534   1.023
    2MOP    C58   58   2.266   0.573   0.890
    2MOP    C59   59   2.561   0.819   0.926
    2MOP    C60   60   2.526   0.948   0.889
    2MOP    C61   61   2.612   1.055   0.913
    2MOP    C62   62   2.742   1.035   0.960
    2MOP    C63   63   2.786   0.904   0.986
    2MOP    C64   64   2.694   0.798   0.968
    2MOP    C65   65   2.930   0.879   1.028
    2MOP    N66   66   2.952   0.752   1.098
    2MOP    C67   67   3.012   0.990   1.096
    2MOP    C68   68   2.264   0.763   0.642
    2MOP    C69   69   2.272   0.791   0.506
    2MOP    H70   70   2.569   0.642   0.439
    2MOP    H71   71   2.564   0.604   0.680
    2MOP    H72   72   2.499   0.717   1.157
    2MOP    H73   73   2.196   0.546   1.411
    2MOP    H74   74   2.186   0.416   1.291
    2MOP    H75   75   2.116   0.578   1.257
    2MOP    H76   76   2.172   0.463   1.049
    2MOP    H77   77   2.198   0.531   0.816
    2MOP    H78   78   2.427   0.968   0.852
    2MOP    H79   79   2.577   1.156   0.895
    2MOP    H80   80   2.805   1.121   0.971
    2MOP    H81   81   2.725   0.696   0.992
    2MOP    H82   82   2.980   0.863   0.930
    2MOP    H83   83   3.024   0.692   1.059
    2MOP    H84   84   3.037   0.965   1.200
    2MOP    H85   85   2.966   1.089   1.096
    2MOP    H86   86   3.110   0.999   1.046
    2MOP    H87   87   2.176   0.793   0.698
    2MOP    H88   88   2.190   0.844   0.456
    3MOP    C89   89   2.899   0.697   1.212
    3MOP    O90   90   2.941   0.587   1.246
    3MOP    C91   91   2.787   0.758   1.289
    3MOP    C92   92   2.771   0.894   1.313
    3MOP    C93   93   2.657   0.943   1.380
    3MOP    C94   94   2.557   0.857   1.426
    3MOP    C95   95   2.434   0.909   1.492
    3MOP    C96   96   2.366   1.027   1.452
    3MOP    C97   97   2.251   1.065   1.526
    3MOP    C98   98   2.196   0.988   1.627
    3MOP    O99   99   2.080   1.034   1.680
    3MOP   C100  100   1.986   0.934   1.720
    3MOP   C101  101   2.261   0.872   1.664
    3MOP   C102  102   2.379   0.834   1.600
    3MOP   C103  103   2.382   1.097   1.321
    3MOP   C104  104   2.357   1.022   1.207
    3MOP   C105  105   2.327   1.082   1.086
    3MOP   C106  106   2.339   1.220   1.071
    3MOP   C107  107   2.368   1.301   1.181
    3MOP   C108  108   2.390   1.237   1.306
    3MOP   C109  109   2.375   1.452   1.163
    3MOP   N110  110   2.343   1.528   1.283
    3MOP   C111  111   2.303   1.518   1.044
    3MOP   C112  112   2.579   0.719   1.407
    3MOP   C113  113   2.692   0.670   1.341
    3MOP   H114  114   2.844   0.966   1.281
    3MOP   H115  115   2.649   1.051   1.395
    3MOP   H116  116   2.197   1.154   1.494
    3MOP   H117  117   1.890   0.982   1.735
    3MOP   H118  118   2.016   0.890   1.816
    3MOP   H119  119   1.975   0.856   1.643
    3MOP   H120  120   2.222   0.808   1.743
    3MOP   H121  121   2.428   0.744   1.634
    3MOP   H122  122   2.353   0.914   1.214
    3MOP   H123  123   2.294   1.021   1.003
    3MOP   H124  124   2.324   1.259   0.972
    3MOP   H125  125   2.409   1.297   1.394
    3MOP   H126  126   2.482   1.470   1.147
    3MOP   H127  127   2.402   1.607   1.301
    3MOP   H128  128   2.212   1.570   1.074
    3MOP   H129  129   2.276   1.452   0.963
    3MOP   H130  130   2.368   1.596   1.001
    3MOP   H131  131   2.504   0.646   1.440
    3MOP   H132  132   2.701   0.563   1.325
    4MOP   C133  133   2.228   1.536   1.359
    4MOP   O134  134   2.220   1.629   1.439
    4MOP   C135  135   2.122   1.432   1.360
    4MOP   C136  136   2.062   1.371   1.248
    4MOP   C137  137   1.963   1.271   1.263
    4MOP   C138  138   1.918   1.232   1.390
    4MOP   C139  139   1.808   1.134   1.414
    4MOP   C140  140   1.788   1.007   1.350
    4MOP   C141  141   1.682   0.925   1.395
    4MOP   C142  142   1.595   0.963   1.497
    4MOP   O143  143   1.502   0.869   1.531
    4MOP   C144  144   1.428   0.893   1.650
    4MOP   C145  145   1.610   1.087   1.556
    4MOP   C146  146   1.713   1.171   1.513
    4MOP   C147  147   1.873   0.948   1.244
    4MOP   C148  148   2.006   0.914   1.269
    4MOP   C149  149   2.080   0.846   1.173
    4MOP   C150  150   2.027   0.818   1.048
    4MOP   C151  151   1.894   0.847   1.018
    4MOP   C152  152   1.819   0.909   1.120
    4MOP   C153  153   1.839   0.813   0.881
    4MOP   N154  154   1.791   0.933   0.811
    4MOP   C155  155   1.742   0.696   0.881
    4MOP   C156  156   1.978   1.296   1.500
    4MOP   C157  157   2.076   1.395   1.487
    4MOP   H158  158   2.091   1.400   1.148
    4MOP   H159  159   1.920   1.227   1.174
    4MOP   H160  160   1.668   0.827   1.349
    4MOP   H161  161   1.364   0.805   1.669
    4MOP   H162  162   1.363   0.980   1.640
    4MOP   H163  163   1.495   0.904   1.736
    4MOP   H164  164   1.544   1.123   1.634
    4MOP   H165  165   1.720   1.268   1.561
    4MOP   H166  166   2.051   0.935   1.366
    4MOP   H167  167   2.180   0.814   1.197
    4MOP   H168  168   2.091   0.771   0.974
    4MOP   H169  169   1.712   0.926   1.103
    4MOP   H170  170   1.924   0.782   0.818
    4MOP   H171  171   1.864   0.994   0.778
    4MOP   H172  172   1.654   0.715   0.943
    4MOP   H173  173   1.792   0.607   0.922
    4MOP   H174  174   1.709   0.672   0.780
    4MOP   H175  175   1.950   1.268   1.603
    4MOP   H176  176   2.119   1.440   1.576
    5CAP   C177  177   2.865   1.862   0.319
    5CAP   O178  178   2.839   1.732   0.368
    5CAP   H179  179   2.779   1.926   0.339
    5CAP   H180  180   2.878   1.856   0.210
    5CAP   H181  181   2.956   1.905   0.364
    6CAP   C182  182   1.709   1.357   0.927
    6CAP   C183  183   1.626   1.228   0.922
    6CAP   C184  184   1.597   1.187   1.066
    6CAP   C185  185   1.497   1.253   0.844
    6CAP   O186  186   1.710   1.133   0.851
    6CAP   C187  187   1.681   1.001   0.851
    6CAP   O188  188   1.577   0.950   0.892
    6CAP   H189  189   1.655   1.438   0.976
    6CAP   H190  190   1.802   1.341   0.982
    6CAP   H191  191   1.738   1.390   0.827
    6CAP   H192  192   1.690   1.166   1.120
    6CAP   H193  193   1.535   1.097   1.074
    6CAP   H194  194   1.546   1.266   1.122
    6CAP   H195  195   1.520   1.285   0.741
    6CAP   H196  196   1.437   1.162   0.835
    6CAP   H197  197   1.436   1.329   0.891
    1TCM     c1  198   4.339   0.335   2.673
    1TCM    cl1  199   4.464   0.360   2.548
    1TCM    cl2  200   4.243   0.484   2.690
    1TCM     h1  201   4.273   0.252   2.642
    1TCM    cl3  202   4.417   0.296   2.828
    1TCM     c1  203   1.613   2.539   4.562
    1TCM    cl1  204   1.481   2.437   4.503
    1TCM    cl2  205   1.546   2.689   4.632
    1TCM     h1  206   1.670   2.485   4.640
    1TCM    cl3  207   1.722   2.580   4.427
    1TCM     c1  208   1.744   2.277   1.168
    1TCM    cl1  209   1.735   2.137   1.059
    1TCM    cl2  210   1.734   2.427   1.072
    1TCM     h1  211   1.660   2.274   1.240
    1TCM    cl3  212   1.898   2.274   1.256
    1TCM     c1  213   2.651   0.611   3.810
    1TCM    cl1  214   2.714   0.514   3.674
    1TCM    cl2  215   2.687   0.527   3.963
    1TCM     h1  216   2.700   0.710   3.810
    1TCM    cl3  217   2.475   0.630   3.793
    1TCM     c1  218   2.177   1.767   2.856
    1TCM    cl1  219   2.072   1.878   2.763
    1TCM    cl2  220   2.121   1.760   3.025
    1TCM     h1  221   2.172   1.666   2.811
    1TCM    cl3  222   2.344   1.826   2.851
    1TCM     c1  223   5.038   1.289   0.555
    1TCM    cl1  224   5.175   1.233   0.457
    1TCM    cl2  225   5.085   1.289   0.727
    1TCM     h1  226   5.010   1.391   0.524
    1TCM    cl3  227   4.900   1.179   0.532
    1TCM     c1  228   2.903   0.791   2.573
    1TCM    cl1  229   2.760   0.890   2.535
    1TCM    cl2  230   2.854   0.621   2.589
    1TCM     h1  231   2.977   0.801   2.491
    1TCM    cl3  232   2.975   0.847   2.725
    1TCM     c1  233   3.775   4.021   4.741
    1TCM    cl1  234   3.712   3.937   4.598
    1TCM    cl2  235   3.651   4.131   4.806
    1TCM     h1  236   3.802   3.946   4.819
    1TCM    cl3  237   3.920   4.114   4.697
    1TCM     c1  238   0.770   4.148   3.478
    1TCM    cl1  239   0.814   3.983   3.429
    1TCM    cl2  240   0.831   4.264   3.357
    1TCM     h1  241   0.659   4.156   3.484
    1TCM    cl3  242   0.841   4.184   3.636
    1TCM     c1  243   3.902   1.342   2.586
    1TCM    cl1  244   3.883   1.340   2.763
    1TCM    cl2  245   4.052   1.258   2.542
    1TCM     h1  246   3.816   1.291   2.539
    1TCM    cl3  247   3.910   1.510   2.530
    1TCM     c1  248   4.918   3.092   4.463
    1TCM    cl1  249   4.742   3.074   4.483
    1TCM    cl2  250   4.987   2.936   4.412
    1TCM     h1  251   4.938   3.168   4.385
    1TCM    cl3  252   4.991   3.142   4.616
    1TCM     c1  253   0.577   2.830   1.448
    1TCM    cl1  254   0.555   3.005   1.470
    1TCM    cl2  255   0.418   2.753   1.428
    1TCM     h1  256   0.638   2.812   1.357
    1TCM    cl3  257   0.659   2.762   1.589
    1TCM     c1  258   1.504   1.965   2.430
    1TCM    cl1  259   1.395   1.860   2.522
    1TCM    cl2  260   1.471   1.947   2.256
    1TCM     h1  261   1.488   2.071   2.459
    1TCM    cl3  262   1.673   1.920   2.463
    1TCM     c1  263   4.283   4.436   0.720
    1TCM    cl1  264   4.451   4.426   0.776
    1TCM    cl2  265   4.248   4.299   0.613
    1TCM     h1  266   4.214   4.433   0.808
    1TCM    cl3  267   4.259   4.588   0.632
    1TCM     c1  268   2.572   5.232   3.818
    1TCM    cl1  269   2.671   5.087   3.845
    1TCM    cl2  270   2.586   5.340   3.959
    1TCM     h1  271   2.607   5.285   3.727
    1TCM    cl3  272   2.401   5.185   3.796
    1TCM     c1  273   2.882   1.888   3.066
    1TCM    cl1  274   3.036   1.814   3.016
    1TCM    cl2  275   2.793   1.774   3.169
    1TCM     h1  276   2.902   1.981   3.123
    1TCM    cl3  277   2.785   1.926   2.922
    1TCM     c1  278   0.684   3.113   5.018
    1TCM    cl1  279   0.814   3.198   4.932
    1TCM    cl2  280   0.694   2.939   4.984
    1TCM     h1  281   0.694   3.130   5.127
    1TCM    cl3  282   0.526   3.175   4.963
    1TCM     c1  283   4.599   3.536   2.146
    1TCM    cl1  284   4.542   3.648   2.020
    1TCM    cl2  285   4.460   3.455   2.221
    1TCM     h1  286   4.666   3.460   2.100
    1TCM    cl3  287   4.689   3.627   2.270
    1TCM     c1  288   5.245   3.665   4.905
    1TCM    cl1  289   5.095   3.745   4.853
    1TCM    cl2  290   5.340   3.777   5.005
    1TCM     h1  291   5.220   3.574   4.964
    1TCM    cl3  292   5.340   3.618   4.762
    1TCM     c1  293   2.175   1.156   3.522
    1TCM    cl1  294   2.305   1.276   3.547
    1TCM    cl2  295   2.199   1.076   3.365
    1TCM     h1  296   2.179   1.081   3.604
    1TCM    cl3  297   2.018   1.238   3.524
    1TCM     c1  298   1.324   2.061   2.764
    1TCM    cl1  299   1.367   1.888   2.763
    1TCM    cl2  300   1.173   2.084   2.673
    1TCM     h1  301   1.309   2.095   2.869
    1TCM    cl3  302   1.454   2.155   2.689
    1TCM     c1  303   3.125   4.696   4.814
    1TCM    cl1  304   3.185   4.707   4.647
    1TCM    cl2  305   3.153   4.532   4.876
    1TCM     h1  306   3.179   4.770   4.878
    1TCM    cl3  307   2.951   4.732   4.817
    1TCM     c1  308   2.706   2.467   2.023
    1TCM    cl1  309   2.625   2.437   1.868
    1TCM    cl2  310   2.661   2.628   2.083
    1TCM     h1  311   2.675   2.390   2.097
    1TCM    cl3  312   2.882   2.460   2.000
    1TCM     c1  313   2.732   2.026   5.067
    1TCM    cl1  314   2.834   1.933   5.179
    1TCM    cl2  315   2.829   2.077   4.927
    1TCM     h1  316   2.648   1.963   5.033
    1TCM    cl3  317   2.669   2.170   5.151
    1TCM     c1  318   4.931   0.262   1.255
    1TCM    cl1  319   4.782   0.167   1.239
    1TCM    cl2  320   4.915   0.376   1.390
    1TCM     h1  321   5.016   0.193   1.275
    1TCM    cl3  322   4.961   0.352   1.105
    1TCM     c1  323   3.171   0.866   1.313
    1TCM    cl1  324   3.005   0.873   1.374
    1TCM    cl2  325   3.236   1.031   1.297
    1TCM     h1  326   3.234   0.808   1.383
    1TCM    cl3  327   3.173   0.786   1.154
    1TCM     c1  328   3.964   3.278   1.868
    1TCM    cl1  329   3.957   3.107   1.820
    1TCM    cl2  330   3.971   3.289   2.046
    1TCM     h1  331   4.054   3.325   1.824
    1TCM    cl3  332   3.819   3.362   1.809
    1TCM     c1  333   1.028   0.850   3.700
    1TCM    cl1  334   0.897   0.892   3.587
    1TCM    cl2  335   0.983   0.902   3.864
    1TCM     h1  336   1.044   0.741   3.699
    1TCM    cl3  337   1.178   0.933   3.650
    1TCM     c1  338   0.702   5.166   4.127
    1TCM    cl1  339   0.599   5.300   4.181
    1TCM    cl2  340   0.857   5.171   4.213
    1TCM     h1  341   0.651   5.069   4.149
    1TCM    cl3  342   0.730   5.179   3.952
    1TCM     c1  343   2.809   3.634   3.434
    1TCM    cl1  344   2.957   3.601   3.526
    1TCM    cl2  345   2.852   3.672   3.265
    1TCM     h1  346   2.743   3.545   3.436
    1TCM    cl3  347   2.724   3.773   3.506
    1TCM     c1  348   0.306   0.962   2.475
    1TCM    cl1  349   0.139   0.973   2.535
    1TCM    cl2  350   0.313   0.845   2.341
    1TCM     h1  351   0.338   1.062   2.439
    1TCM    cl3  352   0.412   0.908   2.607
    1TCM     c1  353   4.982   1.982   2.119
    1TCM    cl1  354   5.094   2.018   2.253
    1TCM    cl2  355   4.976   2.121   2.008
    1TCM     h1  356   5.018   1.893   2.064
    1TCM    cl3  357   4.819   1.952   2.184
    1TCM     c1  358   1.255   3.562   2.330
    1TCM    cl1  359   1.330   3.401   2.345
    1TCM    cl2  360   1.153   3.566   2.185
    1TCM     h1  361   1.192   3.582   2.420
    1TCM    cl3  362   1.382   3.686   2.318
    1TCM     c1  363   3.908   1.415   2.029
    1TCM    cl1  364   3.797   1.278   2.008
    1TCM    cl2  365   3.900   1.473   2.197
    1TCM     h1  366   4.012   1.383   2.006
    1TCM    cl3  367   3.862   1.547   1.919
    1TCM     c1  368   0.862   2.231   2.086
    1TCM    cl1  369   0.720   2.240   2.192
    1TCM    cl2  370   0.822   2.303   1.928
    1TCM     h1  371   0.946   2.287   2.132
    1TCM    cl3  372   0.909   2.061   2.063
    1TCM     c1  373   2.182   3.841   1.754
    1TCM    cl1  374   2.350   3.793   1.721
    1TCM    cl2  375   2.093   3.854   1.601
    1TCM     h1  376   2.134   3.765   1.819
    1TCM    cl3  377   2.181   3.999   1.837
    1TCM     c1  378   1.047   4.557   1.143
    1TCM    cl1  379   0.904   4.551   1.038
    1TCM    cl2  380   1.119   4.395   1.155
    1TCM     h1  381   1.122   4.627   1.101
    1TCM    cl3  382   0.999   4.612   1.306
    1TCM     c1  383   0.240   1.267   4.841
    1TCM    cl1  384   0.071   1.317   4.818
    1TCM    cl2  385   0.325   1.389   4.938
    1TCM     h1  386   0.243   1.169   4.894
    1TCM    cl3  387   0.318   1.251   4.682
    1TCM     c1  388   1.322   3.897   4.779
    1TCM    cl1  389   1.460   4.009   4.787
    1TCM    cl2  390   1.344   3.768   4.900
    1TCM     h1  391   1.228   3.952   4.800
    1TCM    cl3  392   1.314   3.825   4.617
    1TCM     c1  393   0.310   0.744   4.846
    1TCM    cl1  394   0.397   0.700   4.995
    1TCM    cl2  395   0.372   0.647   4.710
    1TCM     h1  396   0.202   0.724   4.859
    1TCM    cl3  397   0.335   0.917   4.812
    1TCM     c1  398   1.066   4.310   2.235
    1TCM    cl1  399   0.948   4.274   2.364
    1TCM    cl2  400   0.986   4.403   2.107
    1TCM     h1  401   1.150   4.368   2.277
    1TCM    cl3  402   1.127   4.157   2.168
    1TCM     c1  403   3.691   4.130   0.168
    1TCM    cl1  404   3.769   4.012   0.060
    1TCM    cl2  405   3.751   4.108   0.334
    1TCM     h1  406   3.715   4.233   0.134
    1TCM    cl3  407   3.515   4.106   0.165
    1TCM     c1  408   1.561   1.556   1.443
    1TCM    cl1  409   1.417   1.651   1.485
    1TCM    cl2  410   1.707   1.650   1.483
    1TCM     h1  411   1.562   1.462   1.501
    1TCM    cl3  412   1.560   1.519   1.270
    1TCM     c1  413   3.469   0.654   2.305
    1TCM    cl1  414   3.297   0.606   2.306
    1TCM    cl2  415   3.564   0.536   2.399
    1TCM     h1  416   3.506   0.657   2.201
    1TCM    cl3  417   3.485   0.815   2.378
    1TCM     c1  418   0.137   0.611   1.986
    1TCM    cl1  419   0.031   0.633   2.127
    1TCM    cl2  420   0.283   0.710   2.005
    1TCM     h1  421   0.165   0.504   1.977
    1TCM    cl3  422   0.051   0.661   1.839
    1TCM     c1  423   3.856   2.613   1.099
    1TCM    cl1  424   3.925   2.476   1.189
    1TCM    cl2  425   3.986   2.695   1.009
    1TCM     h1  426   3.779   2.576   1.029
    1TCM    cl3  427   3.783   2.728   1.214
    1TCM     c1  428   4.174   0.090   0.792
    1TCM    cl1  429   4.057   0.000   0.692
    1TCM    cl2  430   4.200   0.251   0.722
    1TCM     h1  431   4.133   0.100   0.895
    1TCM    cl3  432   4.327   0.001   0.797
    1TCM     c1  433   4.954   1.743   3.392
    1TCM    cl1  434   4.827   1.768   3.270
    1TCM    cl2  435   4.883   1.664   3.535
    1TCM     h1  436   5.034   1.679   3.350
    1TCM    cl3  437   5.022   1.900   3.440
    1TCM     c1  438   1.987   3.586   2.404
    1TCM    cl1  439   2.068   3.525   2.258
    1TCM    cl2  440   1.894   3.732   2.363
    1TCM     h1  441   1.919   3.508   2.444
    1TCM    cl3  442   2.109   3.626   2.527
    1TCM     c1  443   0.572   0.261   4.868
    1TCM    cl1  444   0.458   0.290   5.002
    1TCM    cl2  445   0.562   0.090   4.819
    1TCM     h1  446   0.545   0.326   4.782
    1TCM    cl3  447   0.737   0.297   4.922
    1TCM     c1  448   4.534   0.694   4.561
    1TCM    cl1  449   4.521   0.858   4.495
    1TCM    cl2  450   4.493   0.696   4.734
    1TCM     h1  451   4.464   0.627   4.507
    1TCM    cl3  452   4.701   0.635   4.541
    1TCM     c1  453   3.846   4.615   1.567
    1TCM    cl1  454   3.740   4.742   1.632
    1TCM    cl2  455   3.882   4.650   1.396
    1TCM     h1  456   3.940   4.613   1.625
    1TCM    cl3  457   3.764   4.458   1.579
    1TCM     c1  458   4.494   4.567   4.892
    1TCM    cl1  459   4.330   4.525   4.945
    1TCM    cl2  460   4.608   4.441   4.943
    1TCM     h1  461   4.496   4.576   4.781
    1TCM    cl3  462   4.542   4.723   4.964
    1TCM     c1  463   3.973   4.325   1.753
    1TCM    cl1  464   3.867   4.221   1.654
    1TCM    cl2  465   4.065   4.225   1.867
    1TCM     h1  466   4.043   4.380   1.687
    1TCM    cl3  467   3.873   4.442   1.844
    1TCM     c1  468   3.857   4.070   3.372
    1TCM    cl1  469   3.740   3.937   3.357
    1TCM    cl2  470   3.927   4.069   3.536
    1TCM     h1  471   3.938   4.056   3.298
    1TCM    cl3  472   3.776   4.225   3.343
    1TCM     c1  473   0.368   0.896   3.404
    1TCM    cl1  474   0.275   1.047   3.380
    1TCM    cl2  475   0.409   0.879   3.576
    1TCM     h1  476   0.306   0.810   3.372
    1TCM    cl3  477   0.517   0.902   3.307
    1TCM     c1  478   3.052   2.654   2.848
    1TCM    cl1  479   3.095   2.668   3.020
    1TCM    cl2  480   2.985   2.808   2.791
    1TCM     h1  481   3.144   2.629   2.790
    1TCM    cl3  482   2.932   2.525   2.827
    1TCM     c1  483   3.701   2.448   2.416
    1TCM    cl1  484   3.633   2.458   2.252
    1TCM    cl2  485   3.617   2.321   2.508
    1TCM     h1  486   3.809   2.424   2.410
    1TCM    cl3  487   3.680   2.604   2.498
    1TCM     c1  488   5.013   0.663   2.431
    1TCM    cl1  489   5.118   0.619   2.568
    1TCM    cl2  490   5.105   0.653   2.280
    1TCM     h1  491   4.927   0.593   2.427
    1TCM    cl3  492   4.952   0.829   2.453
    1TCM     c1  493   0.354   0.174   3.011
    1TCM    cl1  494   0.467   0.057   2.939
    1TCM    cl2  495   0.187   0.118   2.986
    1TCM     h1  496   0.374   0.182   3.120
    1TCM    cl3  497   0.376   0.333   2.934
    1TCM     c1  498   5.214   3.673   1.366
    1TCM    cl1  499   5.072   3.686   1.260
    1TCM    cl2  500   5.163   3.629   1.530
    1TCM     h1  501   5.282   3.595   1.326
    1TCM    cl3  502   5.299   3.829   1.370
    1TCM     c1  503   1.558   3.299   0.951
    1TCM    cl1  504   1.519   3.472   0.967
    1TCM    cl2  505   1.678   3.277   0.822
    1TCM     h1  506   1.599   3.261   1.047
    1TCM    cl3  507   1.410   3.208   0.910
    1TCM     c1  508   2.742   4.420   4.200
    1TCM    cl1  509   2.576   4.484   4.206
    1TCM    cl2  510   2.832   4.502   4.070
    1TCM     h1  511   2.792   4.437   4.297
    1TCM    cl3  512   2.736   4.245   4.167
    1TCM     c1  513   4.639   1.694   0.405
    1TCM    cl1  514   4.496   1.643   0.313
    1TCM    cl2  515   4.610   1.855   0.475
    1TCM     h1  516   4.659   1.621   0.486
    1TCM    cl3  517   4.780   1.702   0.297
    1TCM     c1  518   2.930   4.763   4.496
    1TCM    cl1  519   3.007   4.603   4.493
    1TCM    cl2  520   2.816   4.777   4.360
    1TCM     h1  521   2.875   4.775   4.592
    1TCM    cl3  522   3.055   4.889   4.482
    1TCM     c1  523   3.857   4.164   2.051
    1TCM    cl1  524   3.779   4.252   1.917
    1TCM    cl2  525   3.737   4.128   2.177
    1TCM     h1  526   3.899   4.069   2.012
    1TCM    cl3  527   3.987   4.264   2.119
    1TCM     c1  528   0.935   0.234   3.412
    1TCM    cl1  529   0.786   0.236   3.509
    1TCM    cl2  530   0.897   0.272   3.243
    1TCM     h1  531   1.007   0.309   3.452
    1TCM    cl3  532   1.008   0.072   3.421
    1TCM     c1  533   0.968   1.366   2.632
    1TCM    cl1  534   0.904   1.457   2.493
    1TCM    cl2  535   0.833   1.320   2.739
    1TCM     h1  536   1.018   1.274   2.595
    1TCM    cl3  537   1.083   1.467   2.721
    1TCM     c1  538   1.165   0.797   2.302
    1TCM    cl1  539   1.047   0.739   2.182
    1TCM    cl2  540   1.267   0.923   2.228
    1TCM     h1  541   1.112   0.839   2.389
    1TCM    cl3  542   1.268   0.661   2.354
    1TCM     c1  543   2.888   1.136   3.968
    1TCM    cl1  544   2.732   1.130   4.054
    1TCM    cl2  545   2.870   1.231   3.819
    1TCM     h1  546   2.964   1.183   4.034
    1TCM    cl3  547   2.940   0.971   3.927
    1TCM     c1  548   4.625   5.147   1.269
    1TCM    cl1  549   4.752   5.227   1.174
    1TCM    cl2  550   4.640   5.194   1.439
    1TCM     h1  551   4.526   5.177   1.230
    1TCM    cl3  552   4.643   4.971   1.255
    1TCM     c1  553   0.538   4.428   0.330
    1TCM    cl1  554   0.394   4.518   0.383
    1TCM    cl2  555   0.539   4.418   0.153
    1TCM     h1  556   0.629   4.480   0.365
    1TCM    cl3  557   0.534   4.264   0.399
    1TCM     c1  558   2.397   3.425   2.228
    1TCM    cl1  559   2.508   3.550   2.167
    1TCM    cl2  560   2.419   3.408   2.404
    1TCM     h1  561   2.293   3.455   2.207
    1TCM    cl3  562   2.433   3.270   2.149
    1TCM     c1  563   0.361   3.168   1.120
    1TCM    cl1  564   0.531   3.188   1.074
    1TCM    cl2  565   0.331   3.250   1.276
    1TCM     h1  566   0.296   3.213   1.042
    1TCM    cl3  567   0.323   2.995   1.137
    1TCM     c1  568   3.391   3.631   1.045
    1TCM    cl1  569   3.291   3.577   1.181
    1TCM    cl2  570   3.347   3.798   1.002
    1TCM     h1  571   3.498   3.627   1.073
    1TCM    cl3  572   3.363   3.525   0.905
    1TCM     c1  573   3.171   3.035   4.986
    1TCM    cl1  574   3.300   3.029   4.864
    1TCM    cl2  575   3.243   3.048   5.148
    1TCM     h1  576   3.106   3.123   4.967
    1TCM    cl3  577   3.074   2.887   4.976
    1TCM     c1  578   1.135   1.274   1.932
    1TCM    cl1  579   1.265   1.223   1.821
    1TCM    cl2  580   1.202   1.295   2.095
    1TCM     h1  581   1.093   1.370   1.897
    1TCM    cl3  582   1.008   1.150   1.934
    1TCM     c1  583   1.997   2.688   4.759
    1TCM    cl1  584   1.964   2.659   4.587
    1TCM    cl2  585   2.127   2.580   4.814
    1TCM     h1  586   2.028   2.794   4.774
    1TCM    cl3  587   1.849   2.656   4.853
    1TCM     c1  588   2.245   4.129   4.185
    1TCM    cl1  589   2.229   4.040   4.032
    1TCM    cl2  590   2.369   4.052   4.286
    1TCM     h1  591   2.274   4.234   4.164
    1TCM    cl3  592   2.089   4.128   4.271
    1TCM     c1  593   0.854   0.379   0.078
    1TCM    cl1  594   1.002   0.318   0.000
    1TCM    cl2  595   0.895   0.511   0.189
    1TCM     h1  596   0.784   0.416   0.000
    1TCM    cl3  597   0.776   0.248   0.169
    1TCM     c1  598   1.107   0.654   2.966
    1TCM    cl1  599   1.086   0.823   2.913
    1TCM    cl2  600   0.960   0.598   3.048
    1TCM     h1  601   1.127   0.590   2.877
    1TCM    cl3  602   1.245   0.644   3.078
    1TCM     c1  603   4.493   3.213   3.272
    1TCM    cl1  604   4.448   3.165   3.107
    1TCM    cl2  605   4.627   3.330   3.266
    1TCM     h1  606   4.406   3.260   3.322
    1TCM    cl3  607   4.544   3.069   3.364
    1TCM     c1  608   3.214   4.776   5.188
    1TCM    cl1  609   3.209   4.868   5.340
    1TCM    cl2  610   3.244   4.886   5.052
    1TCM     h1  611   3.295   4.700   5.193
    1TCM    cl3  612   3.058   4.693   5.164
    1TCM     c1  613   1.869   0.124   3.628
    1TCM    cl1  614   1.858   0.130   3.451
    1TCM    cl2  615   1.835   0.285   3.695
    1TCM     h1  616   1.795   0.051   3.668
    1TCM    cl3  617   2.033   0.074   3.676
    1TCM     c1  618   0.979   0.816   4.098
    1TCM    cl1  619   1.011   0.726   4.248
    1TCM    cl2  620   0.832   0.914   4.118
    1TCM     h1  621   1.065   0.882   4.075
    1TCM    cl3  622   0.955   0.702   3.964
    1TCM     c1  623   2.061   5.148   2.408
    1TCM    cl1  624   1.942   5.226   2.514
    1TCM    cl2  625   2.034   5.203   2.240
    1TCM     h1  626   2.163   5.176   2.440
    1TCM    cl3  627   2.042   4.972   2.416
    1TCM     c1  628   1.208   1.273   2.383
    1TCM    cl1  629   1.168   1.100   2.364
    1TCM    cl2  630   1.069   1.372   2.335
    1TCM     h1  631   1.233   1.293   2.489
    1TCM    cl3  632   1.348   1.313   2.280
    1TCM     c1  633   1.671   1.589   0.082
    1TCM    cl1  634   1.713   1.713   0.203
    1TCM    cl2  635   1.510   1.624   0.016
    1TCM     h1  636   1.746   1.591   0.000
    1TCM    cl3  637   1.671   1.429   0.159
    1TCM     c1  638   4.228   3.115   2.466
    1TCM    cl1  639   4.397   3.171   2.458
    1TCM    cl2  640   4.152   3.179   2.613
    1TCM     h1  641   4.173   3.152   2.377
    1TCM    cl3  642   4.224   2.938   2.468
    1TCM     c1  643   2.941   4.880   1.403
    1TCM    cl1  644   2.875   5.035   1.345
    1TCM    cl2  645   2.820   4.752   1.378
    1TCM     h1  646   3.033   4.856   1.346
    1TCM    cl3  647   2.980   4.893   1.576
    1TCM     c1  648   4.331   2.470   3.326
    1TCM    cl1  649   4.427   2.531   3.463
    1TCM    cl2  650   4.166   2.432   3.382
    1TCM     h1  651   4.326   2.548   3.247
    1TCM    cl3  652   4.407   2.324   3.260
    1TCM     c1  653   4.280   0.787   3.720
    1TCM    cl1  654   4.346   0.731   3.875
    1TCM    cl2  655   4.299   0.659   3.598
    1TCM     h1  656   4.172   0.811   3.732
    1TCM    cl3  657   4.367   0.933   3.668
    1TCM     c1  658   4.268   0.995   3.310
    1TCM    cl1  659   4.135   0.984   3.193
    1TCM    cl2  660   4.218   0.919   3.463
    1TCM     h1  661   4.357   0.944   3.270
    1TCM    cl3  662   4.306   1.166   3.340
    1TCM     c1  663   2.072   0.287   3.322
    1TCM    cl1  664   1.945   0.387   3.248
    1TCM    cl2  665   2.229   0.326   3.249
    1TCM     h1  666   2.076   0.307   3.431
    1TCM    cl3  667   2.036   0.115   3.295
    1TCM     c1  668   0.508   4.495   3.660
    1TCM    cl1  669   0.572   4.639   3.742
    1TCM    cl2  670   0.412   4.399   3.775
    1TCM     h1  671   0.444   4.526   3.575
    1TCM    cl3  672   0.643   4.397   3.599
    1TCM     c1  673   0.292   1.934   4.820
    1TCM    cl1  674   0.349   1.840   4.959
    1TCM    cl2  675   0.305   1.835   4.672
    1TCM     h1  676   0.186   1.963   4.835
    1TCM    cl3  677   0.392   2.080   4.802
    1TCM     c1  678   1.117   5.108   5.241
    1TCM    cl1  679   1.249   5.193   5.325
    1TCM    cl2  680   1.156   5.095   5.068
    1TCM     h1  681   1.105   5.006   5.284
    1TCM    cl3  682   0.965   5.199   5.261
    1TCM     c1  683   0.864   2.252   1.200
    1TCM    cl1  684   0.711   2.190   1.266
    1TCM    cl2  685   0.998   2.205   1.306
    1TCM     h1  686   0.880   2.209   1.099
    1TCM    cl3  687   0.856   2.429   1.188
    1TCM     c1  688   4.807   1.725   2.326
    1TCM    cl1  689   4.963   1.809   2.317
    1TCM    cl2  690   4.834   1.552   2.358
    1TCM     h1  691   4.746   1.769   2.409
    1TCM    cl3  692   4.720   1.744   2.172
    1TCM     c1  693   2.937   1.335   2.600
    1TCM    cl1  694   2.787   1.364   2.691
    1TCM    cl2  695   2.934   1.429   2.449
    1TCM     h1  696   3.024   1.367   2.661
    1TCM    cl3  697   2.951   1.162   2.562
    1TCM     c1  698   3.211   0.572   2.658
    1TCM    cl1  699   3.059   0.596   2.746
    1TCM    cl2  700   3.309   0.720   2.666
    1TCM     h1  701   3.267   0.488   2.704
    1TCM    cl3  702   3.176   0.534   2.487
    1TCM     c1  703   2.368   4.657   1.101
    1TCM    cl1  704   2.460   4.766   1.207
    1TCM    cl2  705   2.449   4.646   0.942
    1TCM     h1  706   2.364   4.556   1.147
    1TCM    cl3  707   2.204   4.720   1.079
    1TCM     c1  708   0.576   3.421   4.110
    1TCM    cl1  709   0.612   3.595   4.110
    1TCM    cl2  710   0.595   3.357   3.946
    1TCM     h1  711   0.646   3.369   4.179
    1TCM    cl3  712   0.409   3.395   4.166
    1TCM     c1  713   2.531   0.155   1.750
    1TCM    cl1  714   2.485   0.199   1.916
    1TCM    cl2  715   2.454   0.000   1.707
    1TCM     h1  716   2.497   0.234   1.680
    1TCM    cl3  717   2.707   0.139   1.740
    1TCM     c1  718   2.676   4.936   3.620
    1TCM    cl1  719   2.526   4.946   3.524
    1TCM    cl2  720   2.638   4.870   3.781
    1TCM     h1  721   2.748   4.870   3.569
    1TCM    cl3  722   2.746   5.098   3.638
    1TCM     c1  723   3.664   3.678   4.832
    1TCM    cl1  724   3.594   3.842   4.834
    1TCM    cl2  725   3.815   3.679   4.738
    1TCM     h1  726   3.686   3.646   4.936
    1TCM    cl3  727   3.549   3.565   4.758
    1TCM     c1  728   1.715   0.252   4.771
    1TCM    cl1  729   1.560   0.216   4.851
    1TCM    cl2  730   1.694   0.242   4.595
    1TCM     h1  731   1.747   0.355   4.798
    1TCM    cl3  732   1.838   0.135   4.823
    1TCM     c1  733   3.458   3.772   1.891
    1TCM    cl1  734   3.408   3.628   1.982
    1TCM    cl2  735   3.608   3.838   1.962
    1TCM     h1  736   3.476   3.745   1.785
    1TCM    cl3  737   3.329   3.895   1.901
    1TCM     c1  738   0.240   2.769   2.136
    1TCM    cl1  739   0.313   2.907   2.222
    1TCM    cl2  740   0.279   2.779   1.963
    1TCM     h1  741   0.281   2.674   2.178
    1TCM    cl3  742   0.064   2.772   2.157
    1TCM     c1  743   1.850   0.920   3.532
    1TCM    cl1  744   1.882   1.013   3.384
    1TCM    cl2  745   1.807   0.753   3.490
    1TCM     h1  746   1.941   0.920   3.596
    1TCM    cl3  747   1.715   0.995   3.621
    1TCM     c1  748   1.460   4.572   3.680
    1TCM    cl1  749   1.317   4.677   3.695
    1TCM    cl2  750   1.494   4.543   3.508
    1TCM     h1  751   1.547   4.622   3.727
    1TCM    cl3  752   1.428   4.417   3.761
    1TCM     c1  753   1.300   3.253   3.568
    1TCM    cl1  754   1.327   3.386   3.682
    1TCM    cl2  755   1.394   3.282   3.419
    1TCM     h1  756   1.334   3.157   3.614
    1TCM    cl3  757   1.127   3.242   3.528
    1TCM     c1  758   4.868   2.334   2.484
    1TCM    cl1  759   4.726   2.381   2.387
    1TCM    cl2  760   4.818   2.310   2.653
    1TCM     h1  761   4.910   2.240   2.444
    1TCM    cl3  762   4.990   2.463   2.476
    1TCM     c1  763   2.481   1.658   1.900
    1TCM    cl1  764   2.640   1.583   1.876
    1TCM    cl2  765   2.380   1.629   1.756
    1TCM     h1  766   2.432   1.612   1.989
    1TCM    cl3  767   2.500   1.832   1.925
    1TCM     c1  768   1.354   0.150   3.736
    1TCM    cl1  769   1.177   0.163   3.743
    1TCM    cl2  770   1.404   0.106   3.571
    1TCM     h1  771   1.399   0.247   3.764
    1TCM    cl3  772   1.409   0.025   3.850
    1TCM     c1  773   4.303   3.799   2.734
    1TCM    cl1  774   4.471   3.740   2.741
    1TCM    cl2  775   4.195   3.678   2.805
    1TCM     h1  776   4.295   3.894   2.791
    1TCM    cl3  777   4.257   3.828   2.564
    1TCM     c1  778   4.428   1.294   4.028
    1TCM    cl1  779   4.466   1.151   3.930
    1TCM    cl2  780   4.480   1.266   4.196
    1TCM     h1  781   4.482   1.382   3.987
    1TCM    cl3  782   4.253   1.324   4.024
    1TCM     c1  783   3.747   2.057   2.673
    1TCM    cl1  784   3.688   2.123   2.827
    1TCM    cl2  785   3.895   2.143   2.624
    1TCM     h1  786   3.770   1.949   2.685
    1TCM    cl3  787   3.623   2.077   2.547
    1TCM     c1  788   4.963   4.009   3.376
    1TCM    cl1  789   5.066   3.890   3.459
    1TCM    cl2  790   4.978   3.987   3.200
    1TCM     h1  791   4.858   3.994   3.407
    1TCM    cl3  792   5.015   4.173   3.420
    1TCM     c1  793   0.496   1.871   0.631
    1TCM    cl1  794   0.545   1.846   0.800
    1TCM    cl2  795   0.493   2.045   0.595
    1TCM     h1  796   0.569   1.821   0.563
    1TCM    cl3  797   0.334   1.802   0.605
    1TCM     c1  798   3.708   1.698   3.654
    1TCM    cl1  799   3.869   1.747   3.712
    1TCM    cl2  800   3.701   1.717   3.477
    1TCM     h1  801   3.690   1.592   3.681
    1TCM    cl3  802   3.584   1.800   3.730
    1TCM     c1  803   1.456   2.412   2.973
    1TCM    cl1  804   1.384   2.387   2.813
    1TCM    cl2  805   1.430   2.266   3.073
    1TCM     h1  806   1.565   2.430   2.963
    1TCM    cl3  807   1.380   2.552   3.052
    1TCM     c1  808   0.303   3.047   0.164
    1TCM    cl1  809   0.310   3.224   0.150
    1TCM    cl2  810   0.378   2.997   0.317
    1TCM     h1  811   0.197   3.014   0.163
    1TCM    cl3  812   0.390   2.973   0.028
    1TCM     c1  813   0.830   4.669   5.025
    1TCM    cl1  814   0.702   4.621   5.139
    1TCM    cl2  815   0.761   4.773   4.899
    1TCM     h1  816   0.909   4.724   5.079
    1TCM    cl3  817   0.900   4.524   4.950
    1TCM     c1  818   4.710   4.854   0.138
    1TCM    cl1  819   4.856   4.834   0.039
    1TCM    cl2  820   4.756   4.873   0.309
    1TCM     h1  821   4.655   4.945   0.105
    1TCM    cl3  822   4.605   4.712   0.120
    1TCM     c1  823   0.810   1.685   0.785
    1TCM    cl1  824   0.744   1.849   0.772
    1TCM    cl2  825   0.844   1.622   0.622
    1TCM     h1  826   0.904   1.688   0.844
    1TCM    cl3  827   0.693   1.580   0.867
    1TCM     c1  828   2.434   0.380   3.525
    1TCM    cl1  829   2.369   0.514   3.622
    1TCM    cl2  830   2.468   0.437   3.360
    1TCM     h1  831   2.528   0.343   3.571
    1TCM    cl3  832   2.316   0.248   3.519
    1TCM     c1  833   0.526   1.539   3.322
    1TCM    cl1  834   0.540   1.540   3.500
    1TCM    cl2  835   0.677   1.477   3.252
    1TCM     h1  836   0.442   1.475   3.292
    1TCM    cl3  837   0.498   1.705   3.264
    1TCM     c1  838   0.342   4.408   4.977
    1TCM    cl1  839   0.316   4.264   4.877
    1TCM    cl2  840   0.374   4.359   5.145
    1TCM     h1  841   0.429   4.465   4.938
    1TCM    cl3  842   0.197   4.511   4.972
    1TCM     c1  843   4.298   1.434   2.195
    1TCM    cl1  844   4.463   1.490   2.228
    1TCM    cl2  845   4.187   1.499   2.318
    1TCM     h1  846   4.266   1.468   2.095
    1TCM    cl3  847   4.293   1.256   2.201
    1TCM     c1  848   1.462   0.660   1.814
    1TCM    cl1  849   1.484   0.517   1.918
    1TCM    cl2  850   1.426   0.606   1.648
    1TCM     h1  851   1.378   0.721   1.852
    1TCM    cl3  852   1.611   0.757   1.814
    1TCM     c1  853   2.021   1.887   3.561
    1TCM    cl1  854   2.000   2.010   3.435
    1TCM    cl2  855   1.964   1.951   3.717
    1TCM     h1  856   1.962   1.796   3.535
    1TCM    cl3  857   2.193   1.844   3.574
    1TCM     c1  858   2.649   3.611   3.826
    1TCM    cl1  859   2.765   3.695   3.932
    1TCM    cl2  860   2.580   3.472   3.913
    1TCM     h1  861   2.568   3.681   3.798
    1TCM    cl3  862   2.732   3.554   3.680
    1TCM     c1  863   0.858   1.374   3.740
    1TCM    cl1  864   0.824   1.318   3.575
    1TCM    cl2  865   0.706   1.421   3.819
    1TCM     h1  866   0.905   1.292   3.798
    1TCM    cl3  867   0.967   1.514   3.734
    1TCM     c1  868   0.794   4.414   1.928
    1TCM    cl1  869   0.663   4.401   1.809
    1TCM    cl2  870   0.728   4.386   2.091
    1TCM     h1  871   0.872   4.338   1.906
    1TCM    cl3  872   0.866   4.576   1.921
    1TCM     c1  873   3.719   4.173   2.603
    1TCM    cl1  874   3.872   4.189   2.514
    1TCM    cl2  875   3.674   4.001   2.612
    1TCM     h1  876   3.731   4.214   2.705
    1TCM    cl3  877   3.591   4.263   2.518
    1TCM     c1  878   0.683   2.569   3.588
    1TCM    cl1  879   0.682   2.585   3.411
    1TCM    cl2  880   0.789   2.435   3.635
    1TCM     h1  881   0.720   2.664   3.633
    1TCM    cl3  882   0.518   2.537   3.646
    1TCM     c1  883   1.777   3.879   1.750
    1TCM    cl1  884   1.790   3.947   1.587
    1TCM    cl2  885   1.630   3.940   1.829
    1TCM     h1  886   1.773   3.768   1.745
    1TCM    cl3  887   1.919   3.928   1.846
    1TCM     c1  888   1.613   1.618   2.618
    1TCM    cl1  889   1.480   1.707   2.697
    1TCM    cl2  890   1.551   1.465   2.551
    1TCM     h1  891   1.655   1.680   2.536
    1TCM    cl3  892   1.740   1.584   2.737
    1TCM     c1  893   3.955   0.135   4.034
    1TCM    cl1  894   4.038   0.039   3.909
    1TCM    cl2  895   4.049   0.129   4.185
    1TCM     h1  896   3.947   0.240   4.000
    1TCM    cl3  897   3.793   0.069   4.063
    1TCM     c1  898   0.162   4.542   4.580
    1TCM    cl1  899   0.311   4.619   4.520
    1TCM    cl2  900   0.047   4.667   4.632
    1TCM     h1  901   0.117   4.481   4.498
    1TCM    cl3  902   0.202   4.436   4.717
    1TCM     c1  903   1.093   1.923   0.736
    1TCM    cl1  904   0.921   1.952   0.772
    1TCM    cl2  905   1.108   1.844   0.578
    1TCM     h1  906   1.147   2.020   0.734
    1TCM    cl3  907   1.163   1.819   0.862
    1TCM     c1  908   2.721   2.851   0.295
    1TCM    cl1  909   2.659   2.939   0.153
    1TCM    cl2  910   2.689   2.677   0.276
    1TCM     h1  911   2.831   2.868   0.304
    1TCM    cl3  912   2.640   2.911   0.442
    1TCM     c1  913   3.615   1.424   3.445
    1TCM    cl1  914   3.493   1.384   3.323
    1TCM    cl2  915   3.767   1.470   3.364
    1TCM     h1  916   3.579   1.509   3.507
    1TCM    cl3  917   3.645   1.283   3.549
    1TCM     c1  918   3.529   0.282   1.972
    1TCM    cl1  919   3.581   0.423   2.068
    1TCM    cl2  920   3.554   0.316   1.799
    1TCM     h1  921   3.588   0.193   2.002
    1TCM    cl3  922   3.356   0.251   2.002
    1TCM     c1  923   4.128   2.685   1.506
    1TCM    cl1  924   4.086   2.770   1.656
    1TCM    cl2  925   4.109   2.510   1.529
    1TCM     h1  926   4.061   2.719   1.424
    1TCM    cl3  927   4.296   2.721   1.463
    1TCM     c1  928   3.014   4.244   2.679
    1TCM    cl1  929   2.866   4.146   2.663
    1TCM    cl2  930   3.080   4.226   2.843
    1TCM     h1  931   3.089   4.211   2.605
    1TCM    cl3  932   2.974   4.415   2.650
    1TCM     c1  933   4.439   1.113   2.776
    1TCM    cl1  934   4.529   1.006   2.885
    1TCM    cl2  935   4.438   1.043   2.612
    1TCM     h1  936   4.335   1.124   2.812
    1TCM    cl3  937   4.517   1.273   2.771
    1TCM     c1  938   1.092   2.084   4.986
    1TCM    cl1  939   1.067   2.259   4.999
    1TCM    cl2  940   1.086   2.011   5.149
    1TCM     h1  941   1.013   2.039   4.923
    1TCM    cl3  942   1.251   2.052   4.913
    1TCM     c1  943   2.381   4.587   4.599
    1TCM    cl1  944   2.542   4.635   4.658
    1TCM    cl2  945   2.364   4.411   4.611
    1TCM     h1  946   2.303   4.636   4.661
    1TCM    cl3  947   2.363   4.637   4.430
    1TCM     c1  948   2.309   5.079   5.104
    1TCM    cl1  949   2.280   5.175   5.251
    1TCM    cl2  950   2.478   5.099   5.053
    1TCM     h1  951   2.288   4.972   5.125
    1TCM    cl3  952   2.201   5.135   4.974
    1TCM     c1  953   2.035   1.287   3.016
    1TCM    cl1  954   2.080   1.308   3.186
    1TCM    cl2  955   1.973   1.122   2.990
    1TCM     h1  956   1.956   1.360   2.989
    1TCM    cl3  957   2.177   1.313   2.912
    1TCM     c1  958   1.946   2.210   5.154
    1TCM    cl1  959   1.869   2.354   5.224
    1TCM    cl2  960   2.026   2.255   5.001
    1TCM     h1  961   2.022   2.170   5.224
    1TCM    cl3  962   1.822   2.087   5.122
    1TCM     c1  963   2.250   1.832   1.711
    1TCM    cl1  964   2.225   1.735   1.857
    1TCM    cl2  965   2.328   1.732   1.586
    1TCM     h1  966   2.152   1.868   1.673
    1TCM    cl3  967   2.354   1.971   1.749
    1TCM     c1  968   2.674   2.711   0.840
    1TCM    cl1  969   2.742   2.555   0.893
    1TCM    cl2  970   2.767   2.771   0.701
    1TCM     h1  971   2.568   2.697   0.811
    1TCM    cl3  972   2.683   2.828   0.973
    1TCM     c1  973   3.074   1.880   2.012
    1TCM    cl1  974   2.980   2.015   1.946
    1TCM    cl2  975   3.129   1.776   1.878
    1TCM     h1  976   3.162   1.919   2.066
    1TCM    cl3  977   2.973   1.785   2.122
    1TCM     c1  978   4.636   4.633   2.717
    1TCM    cl1  979   4.627   4.582   2.888
    1TCM    cl2  980   4.751   4.767   2.701
    1TCM     h1  981   4.669   4.547   2.655
    1TCM    cl3  982   4.475   4.686   2.663
    1TCM     c1  983   3.220   0.416   4.909
    1TCM    cl1  984   3.361   0.478   4.997
    1TCM    cl2  985   3.145   0.549   4.818
    1TCM     h1  986   3.251   0.336   4.839
    1TCM    cl3  987   3.102   0.350   5.025
    1TCM     c1  988   3.967   3.997   4.136
    1TCM    cl1  989   3.955   3.820   4.130
    1TCM    cl2  990   4.047   4.047   4.287
    1TCM     h1  991   4.027   4.033   4.049
    1TCM    cl3  992   3.804   4.068   4.129
    1TCM     c1  993   1.969   1.396   2.615
    1TCM    cl1  994   1.854   1.333   2.736
    1TCM    cl2  995   2.050   1.540   2.680
    1TCM     h1  996   2.044   1.318   2.592
    1TCM    cl3  997   1.881   1.440   2.467
    1TCM     c1  998   2.711   0.470   0.056
    1TCM    cl1  999   2.589   0.350   0.007
    1TCM    cl2 1000   2.742   0.454   0.230
    1TCM     h1 1001   2.805   0.452  -0.000
    1TCM    cl3 1002   2.651   0.633   0.021
    1TCM     c1 1003   2.454   2.908   2.030
    1TCM    cl1 1004   2.485   3.056   2.124
    1TCM    cl2 1005   2.453   2.947   1.857
    1TCM     h1 1006   2.534   2.834   2.051
    1TCM    cl3 1007   2.297   2.840   2.077
    1TCM     c1 1008   1.116   4.963   1.638
    1TCM    cl1 1009   1.099   5.140   1.639
    1TCM    cl2 1010   1.288   4.920   1.649
    1TCM     h1 1011   1.061   4.921   1.725
    1TCM    cl3 1012   1.048   4.898   1.488
    1TCM     c1 1013   4.251   2.316   4.401
    1TCM    cl1 1014   4.126   2.435   4.443
    1TCM    cl2 1015   4.183   2.152   4.414
    1TCM     h1 1016   4.286   2.334   4.298
    1TCM    cl3 1017   4.388   2.333   4.513
    1TCM     c1 1018   1.933   5.127   5.147
    1TCM    cl1 1019   1.847   5.007   5.047
    1TCM    cl2 1020   1.859   5.131   5.309
    1TCM     h1 1021   2.039   5.099   5.155
    1TCM    cl3 1022   1.919   5.287   5.072
    1TCM     c1 1023   3.465   3.798   0.637
    1TCM    cl1 1024   3.350   3.702   0.541
    1TCM    cl2 1025   3.516   3.704   0.779
    1TCM     h1 1026   3.553   3.822   0.575
    1TCM    cl3 1027   3.387   3.948   0.690
    1TCM     c1 1028   4.668   0.982   1.074
    1TCM    cl1 1029   4.704   1.033   1.240
    1TCM    cl2 1030   4.575   1.109   0.992
    1TCM     h1 1031   4.763   0.965   1.019
    1TCM    cl3 1032   4.574   0.831   1.077
    1TCM     c1 1033   4.136   1.839   1.942
    1TCM    cl1 1034   4.188   1.900   1.783
    1TCM    cl2 1035   4.045   1.966   2.027
    1TCM     h1 1036   4.071   1.750   1.928
    1TCM    cl3 1037   4.279   1.794   2.037
    1TCM     c1 1038   4.134   1.741   0.167
    1TCM    cl1 1039   4.197   1.577   0.199
    1TCM    cl2 1040   3.961   1.731   0.130
    1TCM     h1 1041   4.149   1.804   0.257
    1TCM    cl3 1042   4.221   1.812   0.029
    1TCM     c1 1043   3.991   3.240   4.817
    1TCM    cl1 1044   3.940   3.396   4.748
    1TCM    cl2 1045   4.153   3.258   4.888
    1TCM     h1 1046   3.919   3.209   4.896
    1TCM    cl3 1047   3.996   3.117   4.689
    1TCM     c1 1048   1.224   0.545   3.842
    1TCM    cl1 1049   1.230   0.564   4.019
    1TCM    cl2 1050   1.279   0.695   3.764
    1TCM     h1 1051   1.291   0.461   3.812
    1TCM    cl3 1052   1.058   0.509   3.792
    1TCM     c1 1053   3.584   0.361   1.433
    1TCM    cl1 1054   3.407   0.353   1.442
    1TCM    cl2 1055   3.635   0.367   1.263
    1TCM     h1 1056   3.620   0.452   1.485
    1TCM    cl3 1057   3.655   0.218   1.511
    1TCM     c1 1058   1.287   0.323   4.100
    1TCM    cl1 1059   1.419   0.441   4.083
    1TCM    cl2 1060   1.174   0.378   4.226
    1TCM     h1 1061   1.233   0.314   4.003
    1TCM    cl3 1062   1.354   0.165   4.146
    1TCM     c1 1063   3.134   5.264   3.617
    1TCM    cl1 1064   3.230   5.286   3.469
    1TCM    cl2 1065   2.974   5.340   3.596
    1TCM     h1 1066   3.121   5.156   3.637
    1TCM    cl3 1067   3.218   5.340   3.754
    1TCM     c1 1068   2.290   1.132   4.306
    1TCM    cl1 1069   2.281   1.034   4.159
    1TCM    cl2 1070   2.429   1.243   4.295
    1TCM     h1 1071   2.197   1.191   4.318
    1TCM    cl3 1072   2.310   1.026   4.448
    1TCM     c1 1073   3.293   0.744   0.359
    1TCM    cl1 1074   3.462   0.795   0.382
    1TCM    cl2 1075   3.276   0.573   0.404
    1TCM     h1 1076   3.227   0.806   0.422
    1TCM    cl3 1077   3.248   0.765   0.188
    1TCM     c1 1078   1.689   2.111   2.723
    1TCM    cl1 1079   1.616   2.181   2.869
    1TCM    cl2 1080   1.866   2.103   2.743
    1TCM     h1 1081   1.649   2.009   2.706
    1TCM    cl3 1082   1.651   2.214   2.582
    1TCM     c1 1083   5.006   4.021   4.679
    1TCM    cl1 1084   5.077   3.891   4.581
    1TCM    cl2 1085   4.916   4.132   4.573
    1TCM     h1 1086   4.937   3.977   4.754
    1TCM    cl3 1087   5.135   4.110   4.762
    1TCM     c1 1088   0.909   0.938   2.730
    1TCM    cl1 1089   0.855   1.102   2.771
    1TCM    cl2 1090   0.848   0.895   2.568
    1TCM     h1 1091   1.020   0.934   2.730
    1TCM    cl3 1092   0.845   0.823   2.850
    1TCM     c1 1093   4.739   0.997   3.653
    1TCM    cl1 1094   4.787   0.857   3.751
    1TCM    cl2 1095   4.794   0.973   3.485
    1TCM     h1 1096   4.628   1.006   3.654
    1TCM    cl3 1097   4.812   1.144   3.720
    1TCM     c1 1098   5.109   4.815   0.644
    1TCM    cl1 1099   5.238   4.896   0.735
    1TCM    cl2 1100   5.166   4.776   0.481
    1TCM     h1 1101   5.080   4.721   0.697
    1TCM    cl3 1102   4.967   4.922   0.634
    1TCM     c1 1103   0.722   3.399   0.367
    1TCM    cl1 1104   0.802   3.491   0.496
    1TCM    cl2 1105   0.552   3.369   0.411
    1TCM     h1 1106   0.725   3.457   0.272
    1TCM    cl3 1107   0.805   3.244   0.344
    1TCM     c1 1108   1.250   2.536   4.790
    1TCM    cl1 1109   1.110   2.460   4.869
    1TCM    cl2 1110   1.375   2.413   4.760
    1TCM     h1 1111   1.219   2.581   4.694
    1TCM    cl3 1112   1.316   2.663   4.896
    1TCM     c1 1113   0.716   3.245   0.709
    1TCM    cl1 1114   0.681   3.126   0.837
    1TCM    cl2 1115   0.686   3.172   0.550
    1TCM     h1 1116   0.651   3.333   0.722
    1TCM    cl3 1117   0.887   3.295   0.720
    1TCM     c1 1118   4.249   1.630   2.604
    1TCM    cl1 1119   4.321   1.747   2.490
    1TCM    cl2 1120   4.244   1.703   2.766
    1TCM     h1 1121   4.147   1.605   2.571
    1TCM    cl3 1122   4.349   1.483   2.608
    1TCM     c1 1123   2.140   0.584   4.332
    1TCM    cl1 1124   2.185   0.477   4.198
    1TCM    cl2 1125   2.138   0.752   4.275
    1TCM     h1 1126   2.039   0.557   4.369
    1TCM    cl3 1127   2.259   0.567   4.464
    1TCM     c1 1128   0.443   0.158   2.659
    1TCM    cl1 1129   0.521   0.000   2.635
    1TCM    cl2 1130   0.527   0.247   2.788
    1TCM     h1 1131   0.447   0.216   2.565
    1TCM    cl3 1132   0.273   0.133   2.706
    1TCM     c1 1133   1.879   4.549   4.438
    1TCM    cl1 1134   1.914   4.412   4.330
    1TCM    cl2 1135   1.957   4.523   4.595
    1TCM     h1 1136   1.918   4.643   4.392
    1TCM    cl3 1137   1.703   4.563   4.460
    1TCM     c1 1138   4.297   4.633   1.530
    1TCM    cl1 1139   4.191   4.693   1.401
    1TCM    cl2 1140   4.430   4.538   1.458
    1TCM     h1 1141   4.340   4.719   1.585
    1TCM    cl3 1142   4.204   4.531   1.641
    1TCM     c1 1143   1.135   2.612   0.558
    1TCM    cl1 1144   1.305   2.636   0.604
    1TCM    cl2 1145   1.123   2.474   0.446
    1TCM     h1 1146   1.075   2.590   0.649
    1TCM    cl3 1147   1.073   2.758   0.479
    1TCM     c1 1148   1.318   0.960   4.260
    1TCM    cl1 1149   1.217   1.075   4.350
    1TCM    cl2 1150   1.330   1.011   4.090
    1TCM     h1 1151   1.420   0.957   4.305
    1TCM    cl3 1152   1.245   0.798   4.269
    1TCM     c1 1153   1.821   1.749   0.820
    1TCM    cl1 1154   1.710   1.854   0.910
    1TCM    cl2 1155   1.948   1.689   0.929
    1TCM     h1 1156   1.765   1.663   0.777
    1TCM    cl3 1157   1.896   1.842   0.688
    1TCM     c1 1158   1.228   4.576   1.451
    1TCM    cl1 1159   1.232   4.407   1.396
    1TCM    cl2 1160   1.242   4.685   1.311
    1TCM     h1 1161   1.132   4.596   1.504
    1TCM    cl3 1162   1.364   4.606   1.562
    1TCM     c1 1163   5.113   2.791   2.639
    1TCM    cl1 1164   5.043   2.672   2.752
    1TCM    cl2 1165   5.055   2.757   2.474
    1TCM     h1 1166   5.082   2.893   2.669
    1TCM    cl3 1167   5.290   2.779   2.644
    1TCM     c1 1168   0.864   2.456   0.238
    1TCM    cl1 1169   0.826   2.405   0.072
    1TCM    cl2 1170   0.713   2.476   0.329
    1TCM     h1 1171   0.927   2.379   0.287
    1TCM    cl3 1172   0.952   2.611   0.234
    1TCM     c1 1173   3.685   4.704   3.438
    1TCM    cl1 1174   3.774   4.804   3.321
    1TCM    cl2 1175   3.796   4.589   3.515
    1TCM     h1 1176   3.640   4.769   3.516
    1TCM    cl3 1177   3.556   4.615   3.354
    1TCM     c1 1178   2.178   1.033   2.402
    1TCM    cl1 1179   2.347   0.977   2.399
    1TCM    cl2 1180   2.175   1.210   2.387
    1TCM     h1 1181   2.123   0.988   2.318
    1TCM    cl3 1182   2.103   0.985   2.556
    1TCM     c1 1183   0.716   4.619   4.518
    1TCM    cl1 1184   0.621   4.603   4.668
    1TCM    cl2 1185   0.606   4.633   4.379
    1TCM     h1 1186   0.780   4.709   4.524
    1TCM    cl3 1187   0.819   4.475   4.498
    1TCM     c1 1188   2.053   4.832   3.931
    1TCM    cl1 1189   2.097   4.950   4.056
    1TCM    cl2 1190   2.181   4.826   3.807
    1TCM     h1 1191   2.041   4.732   3.977
    1TCM    cl3 1192   1.899   4.881   3.855
    1TCM     c1 1193   1.223   0.247   1.329
    1TCM    cl1 1194   1.167   0.085   1.282
    1TCM    cl2 1195   1.164   0.285   1.492
    1TCM     h1 1196   1.334   0.249   1.328
    1TCM    cl3 1197   1.161   0.368   1.214
    1TCM     c1 1198   2.468   3.131   1.101
    1TCM    cl1 1199   2.445   3.130   1.277
    1TCM    cl2 1200   2.633   3.076   1.063
    1TCM     h1 1201   2.395   3.063   1.054
    1TCM    cl3 1202   2.446   3.296   1.039
    1TCM     c1 1203   1.024   3.620   1.108
    1TCM    cl1 1204   1.067   3.737   0.982
    1TCM    cl2 1205   0.926   3.490   1.036
    1TCM     h1 1206   1.117   3.576   1.151
    1TCM    cl3 1207   0.931   3.701   1.235
    1TCM     c1 1208   3.763   2.390   2.044
    1TCM    cl1 1209   3.842   2.538   2.102
    1TCM    cl2 1210   3.795   2.257   2.158
    1TCM     h1 1211   3.653   2.407   2.037
    1TCM    cl3 1212   3.826   2.348   1.884
    1TCM     c1 1213   2.782   2.485   1.272
    1TCM    cl1 1214   2.722   2.457   1.107
    1TCM    cl2 1215   2.904   2.615   1.270
    1TCM     h1 1216   2.698   2.515   1.338
    1TCM    cl3 1217   2.856   2.336   1.334
    1TCM     c1 1218   2.754   3.505   4.297
    1TCM    cl1 1219   2.727   3.626   4.170
    1TCM    cl2 1220   2.906   3.418   4.265
    1TCM     h1 1221   2.760   3.556   4.396
    1TCM    cl3 1222   2.619   3.389   4.299
    1TCM     c1 1223   1.191   2.797   4.173
    1TCM    cl1 1224   1.196   2.806   4.350
    1TCM    cl2 1225   1.021   2.787   4.119
    1TCM     h1 1226   1.238   2.887   4.129
    1TCM    cl3 1227   1.278   2.652   4.117
    1TCM     c1 1228   1.516   2.929   3.466
    1TCM    cl1 1229   1.539   2.780   3.560
    1TCM    cl2 1230   1.466   2.887   3.300
    1TCM     h1 1231   1.438   2.992   3.513
    1TCM    cl3 1232   1.669   3.020   3.460
    1TCM     c1 1233   3.799   4.793   3.860
    1TCM    cl1 1234   3.738   4.698   3.722
    1TCM    cl2 1235   3.791   4.695   4.008
    1TCM     h1 1236   3.904   4.823   3.841
    1TCM    cl3 1237   3.699   4.939   3.880
    1TCM     c1 1238   0.160   3.224   0.516
    1TCM    cl1 1239   0.238   3.236   0.675
    1TCM    cl2 1240   0.152   3.053   0.467
    1TCM     h1 1241   0.058   3.266   0.522
    1TCM    cl3 1242   0.255   3.316   0.397
    1TCM     c1 1243   1.462   2.286   5.093
    1TCM    cl1 1244   1.490   2.118   5.144
    1TCM    cl2 1245   1.551   2.396   5.200
    1TCM     h1 1246   1.497   2.299   4.989
    1TCM    cl3 1247   1.288   2.322   5.101
    1TCM     c1 1248   0.255   1.947   3.022
    1TCM    cl1 1249   0.285   1.780   2.969
    1TCM    cl2 1250   0.386   2.052   2.964
    1TCM     h1 1251   0.158   1.981   2.981
    1TCM    cl3 1252   0.249   1.952   3.200
    1TCM     c1 1253   3.695   0.231   4.947
    1TCM    cl1 1254   3.634   0.321   4.806
    1TCM    cl2 1255   3.566   0.128   5.011
    1TCM     h1 1256   3.781   0.168   4.916
    1TCM    cl3 1257   3.747   0.346   5.072
    1TCM     c1 1258   1.827   2.781   2.163
    1TCM    cl1 1259   1.738   2.897   2.265
    1TCM    cl2 1260   1.832   2.842   1.996
    1TCM     h1 1261   1.930   2.770   2.201
    1TCM    cl3 1262   1.745   2.624   2.167
    1TCM     c1 1263   4.177   0.701   4.244
    1TCM    cl1 1264   4.214   0.573   4.125
    1TCM    cl2 1265   4.002   0.713   4.267
    1TCM     h1 1266   4.226   0.676   4.341
    1TCM    cl3 1267   4.240   0.857   4.184
    1TCM     c1 1268   0.328   3.833   1.609
    1TCM    cl1 1269   0.365   3.955   1.485
    1TCM    cl2 1270   0.171   3.871   1.684
    1TCM     h1 1271   0.323   3.733   1.562
    1TCM    cl3 1272   0.455   3.835   1.733
    1TCM     c1 1273   0.211   1.638   0.893
    1TCM    cl1 1274   0.158   1.620   1.062
    1TCM    cl2 1275   0.205   1.810   0.847
    1TCM     h1 1276   0.315   1.601   0.883
    1TCM    cl3 1277   0.103   1.545   0.787
    1TCM     c1 1278   3.731   2.546   2.847
    1TCM    cl1 1279   3.648   2.697   2.889
    1TCM    cl2 1280   3.612   2.423   2.800
    1TCM     h1 1281   3.800   2.565   2.762
    1TCM    cl3 1282   3.823   2.489   2.988
    1TCM     c1 1283   0.290   4.832   2.861
    1TCM    cl1 1284   0.371   4.677   2.829
    1TCM    cl2 1285   0.141   4.803   2.953
    1TCM     h1 1286   0.358   4.898   2.919
    1TCM    cl3 1287   0.250   4.911   2.707
    1TCM     c1 1288   0.132   4.655   2.492
    1TCM    cl1 1289   0.067   4.687   2.654
    1TCM    cl2 1290   0.210   4.802   2.429
    1TCM     h1 1291   0.207   4.573   2.497
    1TCM    cl3 1292   0.000   4.607   2.383
    1TCM     c1 1293   0.480   2.507   2.420
    1TCM    cl1 1294   0.303   2.518   2.421
    1TCM    cl2 1295   0.540   2.530   2.254
    1TCM     h1 1296   0.523   2.585   2.486
    1TCM    cl3 1297   0.530   2.346   2.479
    1TCM     c1 1298   0.642   4.030   2.890
    1TCM    cl1 1299   0.474   3.999   2.937
    1TCM    cl2 1300   0.705   3.890   2.800
    1TCM     h1 1301   0.647   4.120   2.826
    1TCM    cl3 1302   0.741   4.055   3.036
    1TCM     c1 1303   2.390   0.721   4.079
    1TCM    cl1 1304   2.365   0.696   4.253
    1TCM    cl2 1305   2.233   0.735   3.998
    1TCM     h1 1306   2.449   0.814   4.063
    1TCM    cl3 1307   2.479   0.583   4.011
    1TCM     c1 1308   1.843   1.941   2.205
    1TCM    cl1 1309   1.801   1.936   2.033
    1TCM    cl2 1310   1.820   1.780   2.277
    1TCM     h1 1311   1.949   1.972   2.217
    1TCM    cl3 1312   1.738   2.058   2.288
    1TCM     c1 1313   0.960   3.191   2.348
    1TCM    cl1 1314   1.026   3.204   2.513
    1TCM    cl2 1315   0.963   3.352   2.271
    1TCM     h1 1316   1.021   3.121   2.289
    1TCM    cl3 1317   0.793   3.133   2.356
    1TCM     c1 1318   4.766   3.759   3.072
    1TCM    cl1 1319   4.720   3.856   2.930
    1TCM    cl2 1320   4.811   3.595   3.020
    1TCM     h1 1321   4.853   3.806   3.122
    1TCM    cl3 1322   4.630   3.750   3.185
    1TCM     c1 1323   4.308   1.066   4.577
    1TCM    cl1 1324   4.397   1.106   4.726
    1TCM    cl2 1325   4.416   1.083   4.437
    1TCM     h1 1326   4.271   0.961   4.583
    1TCM    cl3 1327   4.169   1.176   4.559
    1TCM     c1 1328   0.144   3.112   4.633
    1TCM    cl1 1329   0.312   3.066   4.601
    1TCM    cl2 1330   0.130   3.175   4.799
    1TCM     h1 1331   0.112   3.190   4.561
    1TCM    cl3 1332   0.039   2.969   4.615
    1TCM     c1 1333   0.822   2.098   0.146
    1TCM    cl1 1334   0.754   1.934   0.142
    1TCM    cl2 1335   0.948   2.106   0.271
    1TCM     h1 1336   0.866   2.122   0.047
    1TCM    cl3 1337   0.694   2.215   0.184
    1TCM     c1 1338   1.912   2.174   1.813
    1TCM    cl1 1339   1.794   2.147   1.943
    1TCM    cl2 1340   1.830   2.159   1.655
    1TCM     h1 1341   1.954   2.276   1.822
    1TCM    cl3 1342   2.042   2.054   1.824
    1TCM     c1 1343   2.578   4.472   3.879
    1TCM    cl1 1344   2.418   4.541   3.912
    1TCM    cl2 1345   2.672   4.585   3.779
    1TCM     h1 1346   2.632   4.455   3.975
    1TCM    cl3 1347   2.560   4.317   3.793
    1TCM     c1 1348   3.301   0.533   1.665
    1TCM    cl1 1349   3.193   0.434   1.766
    1TCM    cl2 1350   3.236   0.541   1.500
    1TCM     h1 1351   3.308   0.635   1.707
    1TCM    cl3 1352   3.463   0.459   1.661
    1TCM     c1 1353   2.479   4.818   4.877
    1TCM    cl1 1354   2.361   4.686   4.874
    1TCM    cl2 1355   2.538   4.848   4.712
    1TCM     h1 1356   2.430   4.910   4.916
    1TCM    cl3 1357   2.616   4.774   4.981
    1TCM     c1 1358   2.660   1.885   3.414
    1TCM    cl1 1359   2.731   1.825   3.566
    1TCM    cl2 1360   2.611   1.748   3.313
    1TCM     h1 1361   2.572   1.948   3.437
    1TCM    cl3 1362   2.781   1.983   3.327
    1TCM     c1 1363   0.841   1.810   4.962
    1TCM    cl1 1364   0.851   1.722   5.116
    1TCM    cl2 1365   0.997   1.799   4.877
    1TCM     h1 1366   0.762   1.766   4.899
    1TCM    cl3 1367   0.804   1.981   4.994
    1TCM     c1 1368   3.149   1.169   3.109
    1TCM    cl1 1369   3.198   1.036   3.216
    1TCM    cl2 1370   3.281   1.206   2.996
    1TCM     h1 1371   3.058   1.140   3.052
    1TCM    cl3 1372   3.113   1.314   3.207
    1TCM     c1 1373   3.710   0.765   1.662
    1TCM    cl1 1374   3.806   0.769   1.513
    1TCM    cl2 1375   3.630   0.922   1.686
    1TCM     h1 1376   3.633   0.685   1.654
    1TCM    cl3 1377   3.817   0.731   1.800
    1TCM     c1 1378   2.127   2.688   3.694
    1TCM    cl1 1379   2.108   2.599   3.847
    1TCM    cl2 1380   2.258   2.615   3.599
    1TCM     h1 1381   2.033   2.684   3.637
    1TCM    cl3 1382   2.167   2.858   3.730
    1TCM     c1 1383   0.843   3.830   3.732
    1TCM    cl1 1384   0.891   3.975   3.824
    1TCM    cl2 1385   0.830   3.691   3.843
    1TCM     h1 1386   0.745   3.848   3.684
    1TCM    cl3 1387   0.966   3.796   3.608
    1TCM     c1 1388   5.171   4.208   4.465
    1TCM    cl1 1389   5.282   4.260   4.594
    1TCM    cl2 1390   5.251   4.228   4.307
    1TCM     h1 1391   5.144   4.102   4.480
    1TCM    cl3 1392   5.024   4.308   4.470
    1TCM     c1 1393   3.751   1.790   0.935
    1TCM    cl1 1394   3.657   1.935   0.892
    1TCM    cl2 1395   3.784   1.791   1.110
    1TCM     h1 1396   3.693   1.699   0.909
    1TCM    cl3 1397   3.905   1.791   0.846
    1TCM     c1 1398   3.410   4.550   3.821
    1TCM    cl1 1399   3.332   4.400   3.876
    1TCM    cl2 1400   3.428   4.545   3.644
    1TCM     h1 1401   3.347   4.637   3.849
    1TCM    cl3 1402   3.570   4.565   3.897
    1TCM     c1 1403   1.683   4.734   3.218
    1TCM    cl1 1404   1.715   4.561   3.194
    1TCM    cl2 1405   1.809   4.830   3.136
    1TCM     h1 1406   1.584   4.760   3.175
    1TCM    cl3 1407   1.684   4.771   3.392
    1TCM     c1 1408   2.587   0.509   2.619
    1TCM    cl1 1409   2.650   0.613   2.749
    1TCM    cl2 1410   2.450   0.590   2.540
    1TCM     h1 1411   2.667   0.490   2.544
    1TCM    cl3 1412   2.533   0.354   2.688
    1TCM     c1 1413   3.330   2.126   4.220
    1TCM    cl1 1414   3.350   2.014   4.357
    1TCM    cl2 1415   3.464   2.243   4.219
    1TCM     h1 1416   3.330   2.068   4.126
    1TCM    cl3 1417   3.175   2.213   4.237
    1TCM     c1 1418   2.964   2.443   0.630
    1TCM    cl1 1419   2.878   2.569   0.539
    1TCM    cl2 1420   3.136   2.485   0.641
    1TCM     h1 1421   2.920   2.435   0.732
    1TCM    cl3 1422   2.946   2.287   0.545
    1TCM     c1 1423   1.604   0.448   5.025
    1TCM    cl1 1424   1.603   0.525   4.864
    1TCM    cl2 1425   1.436   0.422   5.078
    1TCM     h1 1426   1.657   0.351   5.019
    1TCM    cl3 1427   1.687   0.555   5.140
    1TCM     c1 1428   0.765   1.627   1.651
    1TCM    cl1 1429   0.688   1.640   1.811
    1TCM    cl2 1430   0.802   1.456   1.617
    1TCM     h1 1431   0.696   1.665   1.573
    1TCM    cl3 1432   0.915   1.722   1.649
    1TCM     c1 1433   5.009   3.162   0.358
    1TCM    cl1 1434   4.969   3.005   0.285
    1TCM    cl2 1435   4.879   3.213   0.468
    1TCM     h1 1436   5.104   3.154   0.415
    1TCM    cl3 1437   5.028   3.283   0.229
    1TCM     c1 1438   0.676   1.726   3.995
    1TCM    cl1 1439   0.725   1.592   4.101
    1TCM    cl2 1440   0.654   1.874   4.092
    1TCM     h1 1441   0.754   1.744   3.919
    1TCM    cl3 1442   0.522   1.685   3.915
    1TCM     c1 1443   1.897   2.247   0.797
    1TCM    cl1 1444   2.033   2.134   0.780
    1TCM    cl2 1445   1.864   2.324   0.640
    1TCM     h1 1446   1.807   2.192   0.831
    1TCM    cl3 1447   1.939   2.372   0.916
    1TCM     c1 1448   3.506   4.945   4.930
    1TCM    cl1 1449   3.473   4.982   5.101
    1TCM    cl2 1450   3.496   4.769   4.904
    1TCM     h1 1451   3.431   4.997   4.866
    1TCM    cl3 1452   3.670   5.001   4.887
    1TCM     c1 1453   3.133   3.871   3.647
    1TCM    cl1 1454   2.972   3.810   3.690
    1TCM    cl2 1455   3.150   3.873   3.470
    1TCM     h1 1456   3.145   3.974   3.687
    1TCM    cl3 1457   3.257   3.766   3.718
    1TCM     c1 1458   2.819   4.330   3.323
    1TCM    cl1 1459   2.776   4.450   3.199
    1TCM    cl2 1460   2.795   4.401   3.484
    1TCM     h1 1461   2.755   4.240   3.312
    1TCM    cl3 1462   2.990   4.284   3.304
    1TCM     c1 1463   3.500   1.336   2.704
    1TCM    cl1 1464   3.355   1.435   2.677
    1TCM    cl2 1465   3.496   1.270   2.869
    1TCM     h1 1466   3.501   1.253   2.631
    1TCM    cl3 1467   3.645   1.436   2.683
    1TCM     c1 1468   4.571   2.111   5.139
    1TCM    cl1 1469   4.692   2.099   5.269
    1TCM    cl2 1470   4.469   1.965   5.140
    1TCM     h1 1471   4.508   2.200   5.156
    1TCM    cl3 1472   4.653   2.124   4.982
    1TCM     c1 1473   3.175   2.185   0.795
    1TCM    cl1 1474   3.267   2.252   0.658
    1TCM    cl2 1475   3.210   2.278   0.942
    1TCM     h1 1476   3.066   2.191   0.773
    1TCM    cl3 1477   3.221   2.015   0.819
    1TCM     c1 1478   4.609   4.819   1.566
    1TCM    cl1 1479   4.675   4.654   1.552
    1TCM    cl2 1480   4.497   4.826   1.704
    1TCM     h1 1481   4.692   4.890   1.582
    1TCM    cl3 1482   4.523   4.861   1.416
    1TCM     c1 1483   4.630   0.718   3.261
    1TCM    cl1 1484   4.653   0.546   3.299
    1TCM    cl2 1485   4.576   0.734   3.093
    1TCM     h1 1486   4.553   0.761   3.329
    1TCM    cl3 1487   4.783   0.805   3.283
    1TCM     c1 1488   3.557   2.212   0.447
    1TCM    cl1 1489   3.674   2.346   0.435
    1TCM    cl2 1490   3.638   2.068   0.510
    1TCM     h1 1491   3.474   2.241   0.515
    1TCM    cl3 1492   3.492   2.177   0.285
    1TCM     c1 1493   1.772   0.143   2.733
    1TCM    cl1 1494   1.670   0.210   2.862
    1TCM    cl2 1495   1.921   0.239   2.719
    1TCM     h1 1496   1.798   0.038   2.757
    1TCM    cl3 1497   1.683   0.149   2.579
    1TCM     c1 1498   1.217   4.690   5.049
    1TCM    cl1 1499   1.393   4.708   5.069
    1TCM    cl2 1500   1.143   4.660   5.208
    1TCM     h1 1501   1.176   4.784   5.006
    1TCM    cl3 1502   1.183   4.554   4.941
    1TCM     c1 1503   5.131   0.296   4.512
    1TCM    cl1 1504   5.185   0.215   4.364
    1TCM    cl2 1505   5.165   0.192   4.653
    1TCM     h1 1506   5.184   0.392   4.524
    1TCM    cl3 1507   4.956   0.326   4.502
    1TCM     c1 1508   4.381   4.857   0.244
    1TCM    cl1 1509   4.216   4.886   0.303
    1TCM    cl2 1510   4.491   4.838   0.383
    1TCM     h1 1511   4.383   4.765   0.183
    1TCM    cl3 1512   4.434   4.995   0.145
    1TCM     c1 1513   0.575   2.530   3.928
    1TCM    cl1 1514   0.676   2.670   3.884
    1TCM    cl2 1515   0.571   2.515   4.105
    1TCM     h1 1516   0.472   2.545   3.890
    1TCM    cl3 1517   0.644   2.382   3.858
    1TCM     c1 1518   4.072   1.349   1.712
    1TCM    cl1 1519   4.164   1.382   1.563
    1TCM    cl2 1520   4.091   1.487   1.823
    1TCM     h1 1521   3.965   1.336   1.687
    1TCM    cl3 1522   4.135   1.202   1.789
    1TCM     c1 1523   1.435   4.922   0.402
    1TCM    cl1 1524   1.566   5.039   0.378
    1TCM    cl2 1525   1.424   4.881   0.575
    1TCM     h1 1526   1.339   4.967   0.369
    1TCM    cl3 1527   1.468   4.775   0.308
    1TCM     c1 1528   3.324   1.127   4.018
    1TCM    cl1 1529   3.297   1.150   3.844
    1TCM    cl2 1530   3.451   1.006   4.043
    1TCM     h1 1531   3.355   1.224   4.064
    1TCM    cl3 1532   3.173   1.071   4.095
    1TCM     c1 1533   4.657   3.549   3.718
    1TCM    cl1 1534   4.765   3.482   3.593
    1TCM    cl2 1535   4.555   3.419   3.784
    1TCM     h1 1536   4.717   3.594   3.799
    1TCM    cl3 1537   4.553   3.674   3.646
    1TCM     c1 1538   1.178   0.817   0.801
    1TCM    cl1 1539   1.029   0.767   0.717
    1TCM    cl2 1540   1.192   0.726   0.954
    1TCM     h1 1541   1.265   0.795   0.737
    1TCM    cl3 1542   1.171   0.991   0.836
    1TCM     c1 1543   1.218   2.013   1.197
    1TCM    cl1 1544   1.349   1.945   1.297
    1TCM    cl2 1545   1.220   1.937   1.036
    1TCM     h1 1546   1.120   1.994   1.246
    1TCM    cl3 1547   1.242   2.188   1.180
    1TCM     c1 1548   3.485   3.094   2.412
    1TCM    cl1 1549   3.649   3.080   2.343
    1TCM    cl2 1550   3.473   3.243   2.507
    1TCM     h1 1551   3.411   3.096   2.330
    1TCM    cl3 1552   3.453   2.954   2.517
    1TCM     c1 1553   3.253   3.558   2.834
    1TCM    cl1 1554   3.130   3.686   2.825
    1TCM    cl2 1555   3.174   3.400   2.851
    1TCM     h1 1556   3.314   3.559   2.741
    1TCM    cl3 1557   3.359   3.587   2.974
    1TCM     c1 1558   1.271   1.111   0.518
    1TCM    cl1 1559   1.373   1.184   0.645
    1TCM    cl2 1560   1.317   1.177   0.360
    1TCM     h1 1561   1.286   1.001   0.518
    1TCM    cl3 1562   1.100   1.148   0.551
    1TCM     c1 1563   3.149   0.132   0.834
    1TCM    cl1 1564   3.269   0.009   0.880
    1TCM    cl2 1565   3.126   0.129   0.658
    1TCM     h1 1566   3.053   0.110   0.885
    1TCM    cl3 1567   3.207   0.293   0.884
    1TCM     c1 1568   1.916   3.344   1.032
    1TCM    cl1 1569   1.806   3.476   0.989
    1TCM    cl2 1570   1.944   3.344   1.208
    1TCM     h1 1571   1.871   3.247   1.002
    1TCM    cl3 1572   2.071   3.366   0.948
    1TCM     c1 1573   2.932   3.798   2.003
    1TCM    cl1 1574   3.062   3.917   2.024
    1TCM    cl2 1575   2.863   3.758   2.162
    1TCM     h1 1576   2.853   3.841   1.939
    1TCM    cl3 1577   2.997   3.650   1.929
    1TCM     c1 1578   4.565   0.510   4.119
    1TCM    cl1 1579   4.682   0.380   4.150
    1TCM    cl2 1580   4.635   0.665   4.169
    1TCM     h1 1581   4.541   0.513   4.010
    1TCM    cl3 1582   4.416   0.479   4.211
    1TCM     c1 1583   4.669   3.018   4.764
    1TCM    cl1 1584   4.820   2.976   4.681
    1TCM    cl2 1585   4.664   2.938   4.923
    1TCM     h1 1586   4.664   3.128   4.778
    1TCM    cl3 1587   4.530   2.965   4.667
    1TCM     c1 1588   1.115   4.674   2.409
    1TCM    cl1 1589   1.026   4.755   2.278
    1TCM    cl2 1590   1.164   4.795   2.530
    1TCM     h1 1591   1.050   4.598   2.456
    1TCM    cl3 1592   1.260   4.595   2.342
    1TCM     c1 1593   5.137   0.238   0.368
    1TCM    cl1 1594   4.964   0.204   0.342
    1TCM    cl2 1595   5.210   0.291   0.215
    1TCM     h1 1596   5.148   0.318   0.444
    1TCM    cl3 1597   5.218   0.091   0.425
    1TCM     c1 1598   4.579   0.469   3.655
    1TCM    cl1 1599   4.593   0.367   3.510
    1TCM    cl2 1600   4.616   0.637   3.613
    1TCM     h1 1601   4.476   0.463   3.695
    1TCM    cl3 1602   4.694   0.412   3.779
    1TCM     c1 1603   3.611   5.098   4.455
    1TCM    cl1 1604   3.568   5.222   4.575
    1TCM    cl2 1605   3.788   5.078   4.451
    1TCM     h1 1606   3.564   5.002   4.482
    1TCM    cl3 1607   3.554   5.149   4.294
    1TCM     c1 1608   1.462   1.873   1.595
    1TCM    cl1 1609   1.524   1.852   1.429
    1TCM    cl2 1610   1.285   1.872   1.592
    1TCM     h1 1611   1.499   1.790   1.659
    1TCM    cl3 1612   1.520   2.028   1.660
    1TCM     c1 1613   5.272   0.242   1.507
    1TCM    cl1 1614   5.113   0.254   1.584
    1TCM    cl2 1615   5.255   0.267   1.331
    1TCM     h1 1616   5.340   0.319   1.549
    1TCM    cl3 1617   5.340   0.080   1.537
    1TCM     c1 1618   3.319   1.766   2.802
    1TCM    cl1 1619   3.204   1.758   2.667
    1TCM    cl2 1620   3.242   1.846   2.941
    1TCM     h1 1621   3.350   1.664   2.831
    1TCM    cl3 1622   3.462   1.860   2.753
    1TCM     c1 1623   3.631   0.404   0.550
    1TCM    cl1 1624   3.704   0.563   0.519
    1TCM    cl2 1625   3.689   0.287   0.429
    1TCM     h1 1626   3.660   0.369   0.652
    1TCM    cl3 1627   3.454   0.417   0.540
    1TCM     c1 1628   0.666   1.400   2.001
    1TCM    cl1 1629   0.529   1.506   1.961
    1TCM    cl2 1630   0.605   1.240   2.049
    1TCM     h1 1631   0.731   1.389   1.912
    1TCM    cl3 1632   0.759   1.471   2.134
    1TCM     c1 1633   2.789   3.852   1.340
    1TCM    cl1 1634   2.761   3.745   1.201
    1TCM    cl2 1635   2.697   3.791   1.480
    1TCM     h1 1636   2.897   3.852   1.365
    1TCM    cl3 1637   2.735   4.016   1.301
    1TCM     c1 1638   2.415   2.574   4.423
    1TCM    cl1 1639   2.516   2.515   4.289
    1TCM    cl2 1640   2.454   2.484   4.571
    1TCM     h1 1641   2.435   2.682   4.440
    1TCM    cl3 1642   2.244   2.550   4.383
    1TCM     c1 1643   0.605   2.322   0.857
    1TCM    cl1 1644   0.738   2.426   0.803
    1TCM    cl2 1645   0.465   2.342   0.749
    1TCM     h1 1646   0.637   2.216   0.856
    1TCM    cl3 1647   0.558   2.367   1.023
    1TCM     c1 1648   2.624   0.431   1.657
    1TCM    cl1 1649   2.747   0.307   1.626
    1TCM    cl2 1650   2.539   0.394   1.809
    1TCM     h1 1651   2.672   0.530   1.665
    1TCM    cl3 1652   2.506   0.433   1.523
    1TCM     c1 1653   2.481   3.636   0.165
    1TCM    cl1 1654   2.424   3.593   0.002
    1TCM    cl2 1655   2.410   3.525   0.284
    1TCM     h1 1656   2.591   3.629   0.169
    1TCM    cl3 1657   2.431   3.803   0.203
    1TCM     c1 1658   0.151   3.441   4.970
    1TCM    cl1 1659   0.257   3.306   5.018
    1TCM    cl2 1660   0.143   3.450   4.793
    1TCM     h1 1661   0.049   3.424   5.011
    1TCM    cl3 1662   0.216   3.593   5.034
    1TCM     c1 1663   3.937   1.949   1.694
    1TCM    cl1 1664   3.793   1.878   1.773
    1TCM    cl2 1665   4.023   2.051   1.811
    1TCM     h1 1666   4.004   1.867   1.660
    1TCM    cl3 1667   3.886   2.047   1.555
    1TCM     c1 1668   2.238   2.809   2.755
    1TCM    cl1 1669   2.122   2.943   2.739
    1TCM    cl2 1670   2.280   2.747   2.594
    1TCM     h1 1671   2.330   2.846   2.805
    1TCM    cl3 1672   2.166   2.679   2.852
    1TCM     c1 1673   4.439   2.778   0.693
    1TCM    cl1 1674   4.591   2.827   0.615
    1TCM    cl2 1675   4.422   2.866   0.847
    1TCM     h1 1676   4.354   2.802   0.627
    1TCM    cl3 1677   4.443   2.603   0.725
    1TCM     c1 1678   5.126   4.284   1.792
    1TCM    cl1 1679   4.991   4.167   1.791
    1TCM    cl2 1680   5.130   4.371   1.638
    1TCM     h1 1681   5.111   4.356   1.875
    1TCM    cl3 1682   5.279   4.197   1.816
    1TCM     c1 1683   3.272   1.765   3.805
    1TCM    cl1 1684   3.229   1.592   3.797
    1TCM    cl2 1685   3.425   1.784   3.894
    1TCM     h1 1686   3.284   1.804   3.701
    1TCM    cl3 1687   3.143   1.855   3.888
    1TCM     c1 1688   0.935   3.789   2.391
    1TCM    cl1 1689   0.976   3.733   2.228
    1TCM    cl2 1690   0.985   3.666   2.510
    1TCM     h1 1691   0.988   3.884   2.412
    1TCM    cl3 1692   0.760   3.815   2.403
    1TCM     c1 1693   3.036   4.172   2.310
    1TCM    cl1 1694   3.013   4.103   2.148
    1TCM    cl2 1695   3.122   4.055   2.413
    1TCM     h1 1696   3.096   4.265   2.303
    1TCM    cl3 1697   2.878   4.208   2.382
    1TCM     c1 1698   1.321   3.068   2.334
    1TCM    cl1 1699   1.476   3.157   2.343
    1TCM    cl2 1700   1.224   3.105   2.477
    1TCM     h1 1701   1.266   3.099   2.243
    1TCM    cl3 1702   1.354   2.894   2.327
    1TCM     c1 1703   4.602   0.155   5.160
    1TCM    cl1 1704   4.697   0.272   5.066
    1TCM    cl2 1705   4.520   0.238   5.294
    1TCM     h1 1706   4.526   0.108   5.094
    1TCM    cl3 1707   4.710   0.030   5.225
    1TCM     c1 1708   4.157   4.924   2.378
    1TCM    cl1 1709   4.003   4.905   2.464
    1TCM    cl2 1710   4.126   4.973   2.210
    1TCM     h1 1711   4.219   5.001   2.429
    1TCM    cl3 1712   4.245   4.769   2.379
    1TCM     c1 1713   1.431   5.024   3.124
    1TCM    cl1 1714   1.307   5.144   3.167
    1TCM    cl2 1715   1.571   5.043   3.232
    1TCM     h1 1716   1.389   4.922   3.135
    1TCM    cl3 1717   1.482   5.049   2.956
    1TCM     c1 1718   3.401   5.015   3.751
    1TCM    cl1 1719   3.422   5.190   3.773
    1TCM    cl2 1720   3.465   4.929   3.893
    1TCM     h1 1721   3.293   4.991   3.740
    1TCM    cl3 1722   3.488   4.962   3.605
    1TCM     c1 1723   3.636   2.204   4.863
    1TCM    cl1 1724   3.799   2.167   4.801
    1TCM    cl2 1725   3.648   2.265   5.029
    1TCM     h1 1726   3.588   2.280   4.798
    1TCM    cl3 1727   3.538   2.055   4.861
    1TCM     c1 1728   4.865   4.221   2.576
    1TCM    cl1 1729   4.811   4.390   2.563
    1TCM    cl2 1730   4.785   4.123   2.451
    1TCM     h1 1731   4.975   4.216   2.562
    1TCM    cl3 1732   4.823   4.158   2.737
    1TCM     c1 1733   5.019   3.140   2.468
    1TCM    cl1 1734   5.185   3.076   2.461
    1TCM    cl2 1735   4.996   3.230   2.620
    1TCM     h1 1736   5.002   3.209   2.382
    1TCM    cl3 1737   4.903   3.006   2.460
    1TCM     c1 1738   1.444   2.378   0.930
    1TCM    cl1 1739   1.528   2.412   1.082
    1TCM    cl2 1740   1.549   2.284   0.823
    1TCM     h1 1741   1.351   2.320   0.951
    1TCM    cl3 1742   1.401   2.532   0.851
    1TCM     c1 1743   1.110   1.987   4.049
    1TCM    cl1 1744   1.199   1.842   4.101
    1TCM    cl2 1745   1.216   2.090   3.950
    1TCM     h1 1746   1.021   1.957   3.989
    1TCM    cl3 1747   1.055   2.078   4.192
    1TCM     c1 1748   4.131   3.590   1.303
    1TCM    cl1 1749   4.082   3.758   1.334
    1TCM    cl2 1750   4.023   3.519   1.181
    1TCM     h1 1751   4.235   3.588   1.265
    1TCM    cl3 1752   4.121   3.495   1.453
    1TCM     c1 1753   0.262   5.173   2.131
    1TCM    cl1 1754   0.313   5.017   2.062
    1TCM    cl2 1755   0.310   5.180   2.302
    1TCM     h1 1756   0.311   5.256   2.075
    1TCM    cl3 1757   0.086   5.189   2.118
    1TCM     c1 1758   1.321   2.547   1.754
    1TCM    cl1 1759   1.439   2.527   1.622
    1TCM    cl2 1760   1.407   2.548   1.910
    1TCM     h1 1761   1.267   2.643   1.741
    1TCM    cl3 1762   1.206   2.412   1.751
    1TCM     c1 1763   0.860   2.386   4.137
    1TCM    cl1 1764   0.877   2.543   4.055
    1TCM    cl2 1765   1.013   2.296   4.127
    1TCM     h1 1766   0.835   2.403   4.244
    1TCM    cl3 1767   0.731   2.292   4.059
    1TCM     c1 1768   1.107   0.888   5.165
    1TCM    cl1 1769   0.934   0.920   5.142
    1TCM    cl2 1770   1.147   0.896   5.338
    1TCM     h1 1771   1.132   0.787   5.125
    1TCM    cl3 1772   1.202   1.011   5.077
    1TCM     c1 1773   3.701   2.960   1.029
    1TCM    cl1 1774   3.554   2.983   1.127
    1TCM    cl2 1775   3.704   3.081   0.898
    1TCM     h1 1776   3.791   2.973   1.093
    1TCM    cl3 1777   3.701   2.797   0.959
    1TCM     c1 1778   3.685   5.010   3.027
    1TCM    cl1 1779   3.665   5.184   3.060
    1TCM    cl2 1780   3.765   4.990   2.869
    1TCM     h1 1781   3.747   4.964   3.106
    1TCM    cl3 1782   3.526   4.931   3.023
    1TCM     c1 1783   4.624   3.195   5.179
    1TCM    cl1 1784   4.513   3.298   5.086
    1TCM    cl2 1785   4.555   3.164   5.340
    1TCM     h1 1786   4.639   3.099   5.126
    1TCM    cl3 1787   4.781   3.277   5.197
    1TCM     c1 1788   4.467   2.820   2.968
    1TCM    cl1 1789   4.373   2.866   2.824
    1TCM    cl2 1790   4.358   2.757   3.093
    1TCM     h1 1791   4.540   2.741   2.940
    1TCM    cl3 1792   4.554   2.962   3.030
    1TCM     c1 1793   2.324   4.450   3.609
    1TCM    cl1 1794   2.465   4.350   3.567
    1TCM    cl2 1795   2.379   4.601   3.683
    1TCM     h1 1796   2.266   4.472   3.517
    1TCM    cl3 1797   2.222   4.361   3.724
    1TCM     c1 1798   3.574   2.261   0.944
    1TCM    cl1 1799   3.521   2.328   1.100
    1TCM    cl2 1800   3.516   2.364   0.812
    1TCM     h1 1801   3.685   2.257   0.942
    1TCM    cl3 1802   3.508   2.097   0.924
    1TCM     c1 1803   2.400   2.063   2.659
    1TCM    cl1 1804   2.488   2.176   2.763
    1TCM    cl2 1805   2.453   2.083   2.491
    1TCM     h1 1806   2.420   1.959   2.692
    1TCM    cl3 1807   2.225   2.095   2.671
    1TCM     c1 1808   2.942   2.914   3.471
    1TCM    cl1 1809   2.843   3.056   3.432
    1TCM    cl2 1810   2.847   2.766   3.443
    1TCM     h1 1811   3.032   2.912   3.406
    1TCM    cl3 1812   2.992   2.921   3.641
    1TCM     c1 1813   5.021   1.906   1.684
    1TCM    cl1 1814   4.893   1.936   1.564
    1TCM    cl2 1815   4.986   1.755   1.771
    1TCM     h1 1816   5.119   1.897   1.632
    1TCM    cl3 1817   5.027   2.041   1.799
    1TCM     c1 1818   1.655   1.365   3.584
    1TCM    cl1 1819   1.544   1.264   3.680
    1TCM    cl2 1820   1.817   1.358   3.656
    1TCM     h1 1821   1.659   1.327   3.480
    1TCM    cl3 1822   1.597   1.533   3.583
    1TCM     c1 1823   3.434   4.199   2.243
    1TCM    cl1 1824   3.412   4.130   2.405
    1TCM    cl2 1825   3.307   4.320   2.213
    1TCM     h1 1826   3.533   4.247   2.236
    1TCM    cl3 1827   3.422   4.070   2.121
    1TCM     c1 1828   2.064   3.572   0.471
    1TCM    cl1 1829   2.214   3.571   0.375
    1TCM    cl2 1830   2.035   3.736   0.532
    1TCM     h1 1831   1.980   3.540   0.407
    1TCM    cl3 1832   2.080   3.459   0.607
    1TCM     c1 1833   4.609   2.138   3.264
    1TCM    cl1 1834   4.757   2.156   3.167
    1TCM    cl2 1835   4.467   2.136   3.156
    1TCM     h1 1836   4.613   2.043   3.321
    1TCM    cl3 1837   4.595   2.275   3.376
    1TCM     c1 1838   2.428   3.912   1.422
    1TCM    cl1 1839   2.555   3.958   1.539
    1TCM    cl2 1840   2.504   3.872   1.266
    1TCM     h1 1841   2.374   3.823   1.460
    1TCM    cl3 1842   2.315   4.047   1.401
    1TCM     c1 1843   1.050   4.903   4.753
    1TCM    cl1 1844   1.214   4.963   4.787
    1TCM    cl2 1845   0.942   4.948   4.887
    1TCM     h1 1846   1.013   4.948   4.659
    1TCM    cl3 1847   1.054   4.726   4.737
    1TCM     c1 1848   3.630   3.220   3.695
    1TCM    cl1 1849   3.541   3.096   3.786
    1TCM    cl2 1850   3.560   3.236   3.532
    1TCM     h1 1851   3.622   3.318   3.748
    1TCM    cl3 1852   3.801   3.173   3.682
    1TCM     c1 1853   3.763   3.877   1.237
    1TCM    cl1 1854   3.874   3.833   1.105
    1TCM    cl2 1855   3.856   3.928   1.379
    1TCM     h1 1856   3.697   3.960   1.204
    1TCM    cl3 1857   3.662   3.736   1.279
    1TCM     c1 1858   2.514   1.282   3.875
    1TCM    cl1 1859   2.374   1.293   3.984
    1TCM    cl2 1860   2.466   1.333   3.711
    1TCM     h1 1861   2.595   1.349   3.912
    1TCM    cl3 1862   2.573   1.115   3.870
    1TCM     c1 1863   2.188   3.616   4.835
    1TCM    cl1 1864   2.068   3.506   4.906
    1TCM    cl2 1865   2.345   3.592   4.916
    1TCM     h1 1866   2.199   3.595   4.727
    1TCM    cl3 1867   2.136   3.784   4.858
    1TCM     c1 1868   4.330   3.837   3.203
    1TCM    cl1 1869   4.444   3.965   3.158
    1TCM    cl2 1870   4.223   3.896   3.332
    1TCM     h1 1871   4.269   3.809   3.115
    1TCM    cl3 1872   4.420   3.694   3.261
    1TCM     c1 1873   2.482   5.225   4.724
    1TCM    cl1 1874   2.657   5.225   4.756
    1TCM    cl2 1875   2.453   5.275   4.556
    1TCM     h1 1876   2.441   5.123   4.740
    1TCM    cl3 1877   2.402   5.340   4.834
    1TCM     c1 1878   3.077   1.578   5.020
    1TCM    cl1 1879   3.069   1.449   4.897
    1TCM    cl2 1880   2.936   1.684   5.003
    1TCM     h1 1881   3.078   1.533   5.121
    1TCM    cl3 1882   3.226   1.673   4.997
    1TCM     c1 1883   0.648   0.648   4.128
    1TCM    cl1 1884   0.557   0.565   4.256
    1TCM    cl2 1885   0.595   0.587   3.969
    1TCM     h1 1886   0.629   0.757   4.133
    1TCM    cl3 1887   0.821   0.616   4.148
    1TCM     c1 1888   3.534   0.953   2.021
    1TCM    cl1 1889   3.675   0.929   1.915
    1TCM    cl2 1890   3.583   0.932   2.190
    1TCM     h1 1891   3.494   1.055   2.006
    1TCM    cl3 1892   3.409   0.834   1.980
    1TCM     c1 1893   2.834   0.086   2.585
    1TCM    cl1 1894   3.007   0.125   2.574
    1TCM    cl2 1895   2.781   0.013   2.431
    1TCM     h1 1896   2.817   0.014   2.667
    1TCM    cl3 1897   2.741   0.234   2.615
    1TCM     c1 1898   2.697   4.552   2.488
    1TCM    cl1 1899   2.760   4.521   2.651
    1TCM    cl2 1900   2.640   4.400   2.416
    1TCM     h1 1901   2.612   4.624   2.494
    1TCM    cl3 1902   2.825   4.622   2.387
    1TCM     c1 1903   0.849   1.039   2.204
    1TCM    cl1 1904   1.027   1.044   2.199
    1TCM    cl2 1905   0.788   0.966   2.054
    1TCM     h1 1906   0.816   0.979   2.290
    1TCM    cl3 1907   0.786   1.205   2.218
    1TCM     c1 1908   2.376   4.400   3.128
    1TCM    cl1 1909   2.201   4.379   3.152
    1TCM    cl2 1910   2.405   4.484   2.975
    1TCM     h1 1911   2.418   4.459   3.212
    1TCM    cl3 1912   2.454   4.240   3.123
    1TCM     c1 1913   4.250   1.859   4.758
    1TCM    cl1 1914   4.370   1.789   4.648
    1TCM    cl2 1915   4.087   1.805   4.710
    1TCM     h1 1916   4.271   1.824   4.862
    1TCM    cl3 1917   4.258   2.036   4.752
    1TCM     c1 1918   0.105   0.649   0.312
    1TCM    cl1 1919   0.057   0.820   0.307
    1TCM    cl2 1920   0.247   0.631   0.418
    1TCM     h1 1921   0.022   0.587   0.352
    1TCM    cl3 1922   0.146   0.594   0.148
    1TCM     c1 1923   3.909   3.857   5.187
    1TCM    cl1 1924   3.975   3.764   5.050
    1TCM    cl2 1925   3.958   3.779   5.340
    1TCM     h1 1926   3.948   3.960   5.184
    1TCM    cl3 1927   3.732   3.860   5.176
    1TCM     c1 1928   1.968   2.419   2.777
    1TCM    cl1 1929   1.892   2.357   2.629
    1TCM    cl2 1930   1.951   2.596   2.782
    1TCM     h1 1931   1.918   2.375   2.866
    1TCM    cl3 1932   2.140   2.376   2.779
    1TCM     c1 1933   2.123   4.130   1.632
    1TCM    cl1 1934   2.091   4.213   1.478
    1TCM    cl2 1935   2.142   4.250   1.761
    1TCM     h1 1936   2.038   4.063   1.656
    1TCM    cl3 1937   2.272   4.034   1.618
    1TCM     c1 1938   4.092   3.629   1.886
    1TCM    cl1 1939   4.252   3.582   1.823
    1TCM    cl2 1940   4.107   3.781   1.976
    1TCM     h1 1941   4.022   3.643   1.801
    1TCM    cl3 1942   4.031   3.501   1.993
    1TCM     c1 1943   2.575   4.597   0.584
    1TCM    cl1 1944   2.505   4.568   0.744
    1TCM    cl2 1945   2.751   4.577   0.592
    1TCM     h1 1946   2.533   4.524   0.511
    1TCM    cl3 1947   2.536   4.762   0.531
    1TCM     c1 1948   2.787   2.374   4.754
    1TCM    cl1 1949   2.819   2.228   4.658
    1TCM    cl2 1950   2.793   2.517   4.649
    1TCM     h1 1951   2.686   2.366   4.800
    1TCM    cl3 1952   2.910   2.388   4.882
    1TCM     c1 1953   1.558   3.355   2.679
    1TCM    cl1 1954   1.568   3.214   2.572
    1TCM    cl2 1955   1.600   3.307   2.845
    1TCM     h1 1956   1.630   3.433   2.644
    1TCM    cl3 1957   1.393   3.421   2.676
    1TCM     c1 1958   0.676   4.229   4.942
    1TCM    cl1 1959   0.749   4.253   5.103
    1TCM    cl2 1960   0.755   4.092   4.861
    1TCM     h1 1961   0.567   4.207   4.954
    1TCM    cl3 1962   0.697   4.376   4.845
    1TCM     c1 1963   0.223   2.460   1.775
    1TCM    cl1 1964   0.105   2.524   1.892
    1TCM    cl2 1965   0.252   2.580   1.648
    1TCM     h1 1966   0.318   2.437   1.827
    1TCM    cl3 1967   0.159   2.310   1.702
    1TCM     c1 1968   4.492   0.946   4.176
    1TCM    cl1 1969   4.360   1.065   4.171
    1TCM    cl2 1970   4.438   0.801   4.263
    1TCM     h1 1971   4.521   0.919   4.072
    1TCM    cl3 1972   4.632   1.017   4.260
    1TCM     c1 1973   3.997   1.128   0.467
    1TCM    cl1 1974   3.989   0.979   0.370
    1TCM    cl2 1975   4.018   1.087   0.638
    1TCM     h1 1976   4.083   1.189   0.433
    1TCM    cl3 1977   3.847   1.221   0.446
    1TCM     c1 1978   1.954   1.733   3.961
    1TCM    cl1 1979   1.979   1.877   4.062
    1TCM    cl2 1980   2.031   1.758   3.802
    1TCM     h1 1981   1.999   1.644   4.010
    1TCM    cl3 1982   1.779   1.705   3.938
    1TCM     c1 1983   0.294   1.874   2.008
    1TCM    cl1 1984   0.129   1.880   1.942
    1TCM    cl2 1985   0.400   1.976   1.908
    1TCM     h1 1986   0.294   1.912   2.112
    1TCM    cl3 1987   0.353   1.707   2.005
    1TCM     c1 1988   1.645   0.555   3.467
    1TCM    cl1 1989   1.696   0.590   3.300
    1TCM    cl2 1990   1.591   0.705   3.545
    1TCM     h1 1991   1.561   0.482   3.466
    1TCM    cl3 1992   1.782   0.487   3.557
    1TCM     c1 1993   2.305   4.217   1.180
    1TCM    cl1 1994   2.365   4.244   1.015
    1TCM    cl2 1995   2.239   4.053   1.193
    1TCM     h1 1996   2.389   4.229   1.252
    1TCM    cl3 1997   2.178   4.336   1.217
    1TCM     c1 1998   3.479   1.777   4.386
    1TCM    cl1 1999   3.335   1.735   4.481
    1TCM    cl2 2000   3.431   1.824   4.222
    1TCM     h1 2001   3.532   1.862   4.435
    1TCM    cl3 2002   3.588   1.637   4.378
    1TCM     c1 2003   2.233   3.788   4.153
    1TCM    cl1 2004   2.243   3.611   4.157
    1TCM    cl2 2005   2.270   3.854   4.314
    1TCM     h1 2006   2.306   3.828   4.080
    1TCM    cl3 2007   2.069   3.838   4.106
    1TCM     c1 2008   3.182   0.984   4.950
    1TCM    cl1 2009   3.147   0.858   4.830
    1TCM    cl2 2010   3.131   0.928   5.111
    1TCM     h1 2011   3.291   1.005   4.951
    1TCM    cl3 2012   3.093   1.132   4.908
    1TCM     c1 2013   3.146   2.832   2.464
    1TCM    cl1 2014   3.239   2.930   2.580
    1TCM    cl2 2015   3.129   2.922   2.311
    1TCM     h1 2016   3.199   2.737   2.445
    1TCM    cl3 2017   2.984   2.798   2.531
    1TCM     c1 2018   4.714   4.220   0.887
    1TCM    cl1 2019   4.793   4.278   0.739
    1TCM    cl2 2020   4.726   4.345   1.014
    1TCM     h1 2021   4.607   4.199   0.866
    1TCM    cl3 2022   4.793   4.071   0.943
    1TCM     c1 2023   2.133   2.856   4.422
    1TCM    cl1 2024   2.063   3.004   4.353
    1TCM    cl2 2025   2.279   2.897   4.515
    1TCM     h1 2026   2.059   2.807   4.489
    1TCM    cl3 2027   2.176   2.744   4.291
    1TCM     c1 2028   2.593   4.151   4.506
    1TCM    cl1 2029   2.654   4.305   4.441
    1TCM    cl2 2030   2.621   4.146   4.681
    1TCM     h1 2031   2.484   4.143   4.485
    1TCM    cl3 2032   2.679   4.016   4.428
    1TCM     c1 2033   4.428   5.187   2.673
    1TCM    cl1 2034   4.575   5.271   2.620
    1TCM    cl2 2035   4.366   5.263   2.821
    1TCM     h1 2036   4.351   5.193   2.593
    1TCM    cl3 2037   4.465   5.016   2.706
    1TCM     c1 2038   1.873   3.699   2.068
    1TCM    cl1 2039   1.866   3.617   1.910
    1TCM    cl2 2040   2.042   3.728   2.112
    1TCM     h1 2041   1.819   3.795   2.062
    1TCM    cl3 2042   1.797   3.596   2.191
    1TCM     c1 2043   3.500   0.775   1.041
    1TCM    cl1 2044   3.492   0.765   1.219
    1TCM    cl2 2045   3.361   0.688   0.971
    1TCM     h1 2046   3.497   0.881   1.010
    1TCM    cl3 2047   3.651   0.701   0.985
    1TCM     c1 2048   0.296   3.750   2.997
    1TCM    cl1 2049   0.137   3.679   2.964
    1TCM    cl2 2050   0.395   3.635   3.089
    1TCM     h1 2051   0.346   3.774   2.901
    1TCM    cl3 2052   0.275   3.899   3.092
    1TCM     c1 2053   2.932   2.706   4.820
    1TCM    cl1 2054   2.978   2.674   4.989
    1TCM    cl2 2055   2.755   2.697   4.804
    1TCM     h1 2056   2.967   2.807   4.791
    1TCM    cl3 2057   3.007   2.584   4.715
    1TCM     c1 2058   2.333   0.491   0.511
    1TCM    cl1 2059   2.457   0.467   0.386
    1TCM    cl2 2060   2.408   0.476   0.672
    1TCM     h1 2061   2.289   0.592   0.500
    1TCM    cl3 2062   2.206   0.368   0.493
    1TCM     c1 2063   2.913   0.313   2.230
    1TCM    cl1 2064   2.992   0.249   2.085
    1TCM    cl2 2065   2.925   0.194   2.362
    1TCM     h1 2066   2.963   0.407   2.261
    1TCM    cl3 2067   2.742   0.345   2.195
    1TCM     c1 2068   1.784   3.541   4.680
    1TCM    cl1 2069   1.778   3.523   4.503
    1TCM    cl2 2070   1.661   3.435   4.753
    1TCM     h1 2071   1.884   3.512   4.717
    1TCM    cl3 2072   1.750   3.710   4.724
    1TCM     c1 2073   0.818   2.842   0.699
    1TCM    cl1 2074   0.949   2.938   0.771
    1TCM    cl2 2075   0.666   2.875   0.787
    1TCM     h1 2076   0.805   2.870   0.593
    1TCM    cl3 2077   0.857   2.669   0.712
    1TCM     c1 2078   2.925   0.201   3.317
    1TCM    cl1 2079   3.077   0.270   3.378
    1TCM    cl2 2080   2.925   0.025   3.343
    1TCM     h1 2081   2.840   0.247   3.370
    1TCM    cl3 2082   2.911   0.234   3.143
    1TCM     c1 2083   2.103   3.016   1.117
    1TCM    cl1 2084   2.229   2.893   1.090
    1TCM    cl2 2085   2.172   3.155   1.202
    1TCM     h1 2086   2.062   3.049   1.019
    1TCM    cl3 2087   1.972   2.945   1.214
    1TCM     c1 2088   3.125   5.170   4.040
    1TCM    cl1 2089   2.989   5.223   4.142
    1TCM    cl2 2090   3.085   5.013   3.966
    1TCM     h1 2091   3.143   5.245   3.960
    1TCM    cl3 2092   3.271   5.153   4.140
    1TCM     c1 2093   0.271   0.413   4.166
    1TCM    cl1 2094   0.315   0.420   4.338
    1TCM    cl2 2095   0.101   0.367   4.150
    1TCM     h1 2096   0.287   0.513   4.120
    1TCM    cl3 2097   0.373   0.293   4.084
    1TCM     c1 2098   2.508   2.646   4.032
    1TCM    cl1 2099   2.632   2.682   4.154
    1TCM    cl2 2100   2.581   2.653   3.870
    1TCM     h1 2101   2.467   2.545   4.050
    1TCM    cl3 2102   2.377   2.766   4.043
    1TCM     c1 2103   0.395   1.779   0.248
    1TCM    cl1 2104   0.243   1.699   0.295
    1TCM    cl2 2105   0.523   1.657   0.227
    1TCM     h1 2106   0.380   1.834   0.153
    1TCM    cl3 2107   0.443   1.893   0.375
    1TCM     c1 2108   4.678   2.993   1.932
    1TCM    cl1 2109   4.650   2.818   1.921
    1TCM    cl2 2110   4.719   3.037   2.099
    1TCM     h1 2111   4.762   3.021   1.865
    1TCM    cl3 2112   4.531   3.079   1.882
    1TCM     c1 2113   3.117   3.235   0.594
    1TCM    cl1 2114   3.011   3.354   0.516
    1TCM    cl2 2115   3.125   3.268   0.769
    1TCM     h1 2116   3.077   3.133   0.578
    1TCM    cl3 2117   3.280   3.247   0.524
    1TCM     c1 2118   2.596   4.878   1.562
    1TCM    cl1 2119   2.442   4.928   1.635
    1TCM    cl2 2120   2.565   4.788   1.412
    1TCM     h1 2121   2.657   4.968   1.539
    1TCM    cl3 2122   2.685   4.774   1.676
    1TCM     c1 2123   2.698   4.037   4.914
    1TCM    cl1 2124   2.639   3.901   4.814
    1TCM    cl2 2125   2.723   3.981   5.081
    1TCM     h1 2126   2.793   4.075   4.872
    1TCM    cl3 2127   2.577   4.167   4.913
    1TCM     c1 2128   3.993   3.980   2.774
    1TCM    cl1 2129   4.004   4.156   2.796
    1TCM    cl2 2130   4.094   3.898   2.895
    1TCM     h1 2131   3.887   3.948   2.786
    1TCM    cl3 2132   4.050   3.937   2.611
    1TCM     c1 2133   2.396   1.508   2.445
    1TCM    cl1 2134   2.483   1.516   2.600
    1TCM    cl2 2135   2.490   1.593   2.320
    1TCM     h1 2136   2.384   1.401   2.415
    1TCM    cl3 2137   2.236   1.584   2.462
    1TCM     c1 2138   4.909   2.379   0.643
    1TCM    cl1 2139   4.865   2.241   0.539
    1TCM    cl2 2140   4.799   2.386   0.782
    1TCM     h1 2141   5.013   2.366   0.678
    1TCM    cl3 2142   4.896   2.529   0.549
    1TCM     c1 2143   4.232   0.556   3.197
    1TCM    cl1 2144   4.199   0.664   3.334
    1TCM    cl2 2145   4.241   0.651   3.047
    1TCM     h1 2146   4.328   0.503   3.214
    1TCM    cl3 2147   4.101   0.437   3.183
    1TCM     c1 2148   4.816   2.342   0.199
    1TCM    cl1 2149   4.858   2.170   0.214
    1TCM    cl2 2150   4.664   2.358   0.108
    1TCM     h1 2151   4.804   2.385   0.300
    1TCM    cl3 2152   4.946   2.427   0.113
    1TCM     c1 2153   3.422   1.163   0.963
    1TCM    cl1 2154   3.396   1.156   0.787
    1TCM    cl2 2155   3.306   1.276   1.036
    1TCM     h1 2156   3.407   1.062   1.006
    1TCM    cl3 2157   3.588   1.218   0.996
    1TCM     c1 2158   2.810   4.528   4.688
    1TCM    cl1 2159   2.748   4.685   4.747
    1TCM    cl2 2160   2.703   4.398   4.743
    1TCM     h1 2161   2.814   4.529   4.578
    1TCM    cl3 2162   2.973   4.502   4.753
    1TCM     c1 2163   1.531   5.269   0.605
    1TCM    cl1 2164   1.703   5.286   0.647
    1TCM    cl2 2165   1.488   5.096   0.602
    1TCM     h1 2166   1.469   5.321   0.680
    1TCM    cl3 2167   1.503   5.340   0.444
    1TCM     c1 2168   1.421   3.325   4.484
    1TCM    cl1 2169   1.430   3.405   4.642
    1TCM    cl2 2170   1.270   3.230   4.474
    1TCM     h1 2171   1.421   3.401   4.404
    1TCM    cl3 2172   1.560   3.217   4.464
    1TCM     c1 2173   1.221   2.377   2.380
    1TCM    cl1 2174   1.137   2.402   2.535
    1TCM    cl2 2175   1.280   2.209   2.371
    1TCM     h1 2176   1.151   2.396   2.297
    1TCM    cl3 2177   1.359   2.489   2.370
    1TCM     c1 2178   1.486   1.560   0.498
    1TCM    cl1 2179   1.319   1.585   0.553
    1TCM    cl2 2180   1.496   1.595   0.323
    1TCM     h1 2181   1.554   1.628   0.553
    1TCM    cl3 2182   1.534   1.391   0.526
    1TCM     c1 2183   0.346   5.182   3.253
    1TCM    cl1 2184   0.439   5.231   3.396
    1TCM    cl2 2185   0.416   5.257   3.108
    1TCM     h1 2186   0.350   5.071   3.243
    1TCM    cl3 2187   0.177   5.234   3.271
    1TCM     c1 2188   2.797   3.964   0.325
    1TCM    cl1 2189   2.859   4.130   0.307
    1TCM    cl2 2190   2.885   3.856   0.214
    1TCM     h1 2191   2.813   3.930   0.430
    1TCM    cl3 2192   2.624   3.961   0.287
    1TCM     c1 2193   5.055   1.849   0.895
    1TCM    cl1 2194   5.134   1.976   0.991
    1TCM    cl2 2195   5.175   1.773   0.787
    1TCM     h1 2196   5.013   1.772   0.962
    1TCM    cl3 2197   4.926   1.921   0.797
    1TCM     c1 2198   3.287   4.756   4.123
    1TCM    cl1 2199   3.220   4.783   3.961
    1TCM    cl2 2200   3.457   4.705   4.109
    1TCM     h1 2201   3.281   4.850   4.182
    1TCM    cl3 2202   3.194   4.628   4.205
    1TCM     c1 2203   0.445   3.267   3.421
    1TCM    cl1 2204   0.337   3.193   3.301
    1TCM    cl2 2205   0.439   3.444   3.405
    1TCM     h1 2206   0.413   3.238   3.523
    1TCM    cl3 2207   0.612   3.211   3.393
    1TCM     c1 2208   2.881   0.554   1.978
    1TCM    cl1 2209   2.949   0.709   2.032
    1TCM    cl2 2210   3.010   0.453   1.909
    1TCM     h1 2211   2.836   0.501   2.065
    1TCM    cl3 2212   2.757   0.583   1.855
    1TCM     c1 2213   4.854   5.001   4.345
    1TCM    cl1 2214   4.852   5.100   4.197
    1TCM    cl2 2215   4.727   4.877   4.333
    1TCM     h1 2216   4.953   4.952   4.355
    1TCM    cl3 2217   4.823   5.105   4.486
    1TCM     c1 2218   4.071   0.999   2.046
    1TCM    cl1 2219   4.009   0.877   2.159
    1TCM    cl2 2220   3.970   1.001   1.900
    1TCM     h1 2221   4.068   1.099   2.094
    1TCM    cl3 2222   4.238   0.960   2.001
    1TCM     c1 2223   2.295   4.756   2.391
    1TCM    cl1 2224   2.298   4.883   2.515
    1TCM    cl2 2225   2.235   4.605   2.462
    1TCM     h1 2226   2.228   4.787   2.308
    1TCM    cl3 2227   2.459   4.731   2.327
    1TCM     c1 2228   2.278   2.629   0.906
    1TCM    cl1 2229   2.168   2.654   1.043
    1TCM    cl2 2230   2.188   2.559   0.769
    1TCM     h1 2231   2.322   2.726   0.875
    1TCM    cl3 2232   2.408   2.517   0.954
    1TCM     c1 2233   2.230   4.754   0.417
    1TCM    cl1 2234   2.309   4.710   0.570
    1TCM    cl2 2235   2.195   4.929   0.417
    1TCM     h1 2236   2.296   4.730   0.332
    1TCM    cl3 2237   2.077   4.664   0.401
    1TCM     c1 2238   3.662   1.215   2.304
    1TCM    cl1 2239   3.815   1.142   2.250
    1TCM    cl2 2240   3.634   1.172   2.474
    1TCM     h1 2241   3.668   1.325   2.294
    1TCM    cl3 2242   3.529   1.153   2.204
    1TCM     c1 2243   3.727   4.083   0.831
    1TCM    cl1 2244   3.641   3.966   0.729
    1TCM    cl2 2245   3.769   4.008   0.987
    1TCM     h1 2246   3.819   4.116   0.780
    1TCM    cl3 2247   3.622   4.224   0.860
    1TCM     c1 2248   1.751   4.291   2.174
    1TCM    cl1 2249   1.882   4.173   2.146
    1TCM    cl2 2250   1.701   4.362   2.019
    1TCM     h1 2251   1.665   4.240   2.221
    1TCM    cl3 2252   1.810   4.420   2.282
    1TCM     c1 2253   4.967   2.767   3.005
    1TCM    cl1 2254   5.136   2.733   2.965
    1TCM    cl2 2255   4.865   2.631   2.952
    1TCM     h1 2256   4.957   2.780   3.115
    1TCM    cl3 2257   4.915   2.916   2.922
    1TCM     c1 2258   1.616   1.262   2.220
    1TCM    cl1 2259   1.584   1.364   2.078
    1TCM    cl2 2260   1.528   1.108   2.203
    1TCM     h1 2261   1.724   1.242   2.228
    1TCM    cl3 2262   1.560   1.346   2.367
    1TCM     c1 2263   0.946   4.344   0.285
    1TCM    cl1 2264   0.991   4.483   0.183
    1TCM    cl2 2265   0.903   4.401   0.448
    1TCM     h1 2266   0.859   4.292   0.240
    1TCM    cl3 2267   1.084   4.232   0.296
    1TCM     c1 2268   3.147   2.676   0.922
    1TCM    cl1 2269   3.038   2.614   0.795
    1TCM    cl2 2270   3.180   2.546   1.039
    1TCM     h1 2271   3.242   2.710   0.876
    1TCM    cl3 2272   3.069   2.812   1.005
    1TCM     c1 2273   0.617   1.975   2.557
    1TCM    cl1 2274   0.730   2.099   2.616
    1TCM    cl2 2275   0.455   2.046   2.538
    1TCM     h1 2276   0.653   1.936   2.460
    1TCM    cl3 2277   0.609   1.842   2.675
    1TCM     c1 2278   2.629   0.788   4.992
    1TCM    cl1 2279   2.682   0.713   4.840
    1TCM    cl2 2280   2.696   0.698   5.130
    1TCM     h1 2281   2.665   0.893   4.996
    1TCM    cl3 2282   2.451   0.786   5.001
    1TCM     c1 2283   0.395   4.304   4.200
    1TCM    cl1 2284   0.475   4.405   4.323
    1TCM    cl2 2285   0.289   4.185   4.281
    1TCM     h1 2286   0.334   4.368   4.133
    1TCM    cl3 2287   0.518   4.218   4.105
    1TCM     c1 2288   5.042   4.039   1.517
    1TCM    cl1 2289   4.937   4.003   1.655
    1TCM    cl2 2290   5.204   4.083   1.575
    1TCM     h1 2291   5.049   3.950   1.451
    1TCM    cl3 2292   4.973   4.175   1.425
    1TCM     c1 2293   2.599   2.332   0.444
    1TCM    cl1 2294   2.584   2.424   0.293
    1TCM    cl2 2295   2.620   2.445   0.580
    1TCM     h1 2296   2.507   2.272   0.461
    1TCM    cl3 2297   2.740   2.224   0.434
    1TCM     c1 2298   3.382   2.459   2.181
    1TCM    cl1 2299   3.494   2.592   2.144
    1TCM    cl2 2300   3.214   2.515   2.158
    1TCM     h1 2301   3.402   2.374   2.114
    1TCM    cl3 2302   3.404   2.409   2.350
    1TCM     c1 2303   4.064   1.225   5.179
    1TCM    cl1 2304   4.104   1.355   5.294
    1TCM    cl2 2305   4.171   1.085   5.209
    1TCM     h1 2306   3.959   1.194   5.193
    1TCM    cl3 2307   4.088   1.283   5.013
    1TCM     c1 2308   1.082   1.956   4.462
    1TCM    cl1 2309   1.108   1.837   4.592
    1TCM    cl2 2310   1.021   1.873   4.318
    1TCM     h1 2311   1.009   2.032   4.496
    1TCM    cl3 2312   1.236   2.036   4.424
    1TCM     c1 2313   0.449   0.329   2.146
    1TCM    cl1 2314   0.509   0.230   2.010
    1TCM    cl2 2315   0.535   0.282   2.295
    1TCM     h1 2316   0.468   0.436   2.125
    1TCM    cl3 2317   0.275   0.302   2.167
    1TCM     c1 2318   3.822   0.432   1.084
    1TCM    cl1 2319   3.935   0.556   1.143
    1TCM    cl2 2320   3.656   0.498   1.084
    1TCM     h1 2321   3.850   0.402   0.981
    1TCM    cl3 2322   3.828   0.289   1.191
    1TCM     c1 2323   3.177   2.263   3.633
    1TCM    cl1 2324   3.301   2.353   3.542
    1TCM    cl2 2325   3.180   2.314   3.803
    1TCM     h1 2326   3.077   2.284   3.589
    1TCM    cl3 2327   3.211   2.089   3.622
    1TCM     c1 2328   3.739   2.890   3.588
    1TCM    cl1 2329   3.867   2.881   3.711
    1TCM    cl2 2330   3.709   2.727   3.521
    1TCM     h1 2331   3.645   2.928   3.634
    1TCM    cl3 2332   3.789   2.999   3.457
    1TCM     c1 2333   3.258   4.439   1.766
    1TCM    cl1 2334   3.253   4.616   1.780
    1TCM    cl2 2335   3.249   4.393   1.594
    1TCM     h1 2336   3.352   4.401   1.810
    1TCM    cl3 2337   3.119   4.369   1.853
    1TCM     c1 2338   0.528   1.308   4.234
    1TCM    cl1 2339   0.437   1.157   4.253
    1TCM    cl2 2340   0.522   1.360   4.064
    1TCM     h1 2341   0.483   1.387   4.299
    1TCM    cl3 2342   0.697   1.282   4.283
    1TCM     c1 2343   0.361   1.885   1.624
    1TCM    cl1 2344   0.529   1.863   1.677
    1TCM    cl2 2345   0.320   1.758   1.506
    1TCM     h1 2346   0.293   1.877   1.712
    1TCM    cl3 2347   0.342   2.045   1.549
    1TCM     c1 2348   0.101   2.918   1.353
    1TCM    cl1 2349   0.214   2.802   1.280
    1TCM    cl2 2350   0.094   3.065   1.254
    1TCM     h1 2351   0.000   2.873   1.360
    1TCM    cl3 2352   0.157   2.960   1.517
    1TCM     c1 2353   0.939   3.686   0.101
    1TCM    cl1 2354   0.777   3.668   0.172
    1TCM    cl2 2355   0.943   3.833   0.000
    1TCM     h1 2356   1.014   3.694   0.182
    1TCM    cl3 2357   0.975   3.544   0.000
    1TCM     c1 2358   3.614   1.304   1.482
    1TCM    cl1 2359   3.437   1.321   1.489
    1TCM    cl2 2360   3.658   1.136   1.520
    1TCM     h1 2361   3.649   1.330   1.380
    1TCM    cl3 2362   3.689   1.413   1.601
    1TCM     c1 2363   3.508   1.721   4.715
    1TCM    cl1 2364   3.359   1.630   4.751
    1TCM    cl2 2365   3.620   1.706   4.852
    1TCM     h1 2366   3.555   1.680   4.624
    1TCM    cl3 2367   3.467   1.892   4.690
    1TCM     c1 2368   0.698   3.996   4.310
    1TCM    cl1 2369   0.571   4.119   4.332
    1TCM    cl2 2370   0.844   4.073   4.244
    1TCM     h1 2371   0.721   3.949   4.407
    1TCM    cl3 2372   0.640   3.872   4.196
    1TCM     c1 2373   3.627   3.216   5.182
    1TCM    cl1 2374   3.589   3.128   5.032
    1TCM    cl2 2375   3.516   3.164   5.311
    1TCM     h1 2376   3.731   3.195   5.213
    1TCM    cl3 2377   3.608   3.391   5.155
    1TCM     c1 2378   0.954   2.726   1.510
    1TCM    cl1 2379   0.901   2.574   1.585
    1TCM    cl2 2380   1.126   2.715   1.467
    1TCM     h1 2381   0.894   2.745   1.418
    1TCM    cl3 2382   0.930   2.860   1.624
    1TCM     c1 2383   4.403   5.072   5.200
    1TCM    cl1 2384   4.283   5.092   5.330
    1TCM    cl2 2385   4.564   5.116   5.262
    1TCM     h1 2386   4.404   4.966   5.167
    1TCM    cl3 2387   4.361   5.177   5.063
    1TCM     c1 2388   4.403   1.120   0.288
    1TCM    cl1 2389   4.262   1.155   0.184
    1TCM    cl2 2390   4.348   1.092   0.455
    1TCM     h1 2391   4.455   1.030   0.250
    1TCM    cl3 2392   4.514   1.259   0.285
    1TCM     c1 2393   3.075   0.828   3.489
    1TCM    cl1 2394   3.020   0.829   3.321
    1TCM    cl2 2395   3.184   0.966   3.517
    1TCM     h1 2396   2.988   0.835   3.557
    1TCM    cl3 2397   3.162   0.676   3.522
    1TCM     c1 2398   4.351   1.432   4.918
    1TCM    cl1 2399   4.496   1.534   4.907
    1TCM    cl2 2400   4.350   1.316   4.783
    1TCM     h1 2401   4.352   1.377   5.014
    1TCM    cl3 2402   4.206   1.534   4.909
    1TCM     c1 2403   4.772   2.153   3.824
    1TCM    cl1 2404   4.676   2.003   3.823
    1TCM    cl2 2405   4.688   2.277   3.728
    1TCM     h1 2406   4.783   2.189   3.929
    1TCM    cl3 2407   4.932   2.122   3.754
    1TCM     c1 2408   0.113   4.966   3.725
    1TCM    cl1 2409   0.029   4.920   3.576
    1TCM    cl2 2410   0.265   4.875   3.738
    1TCM     h1 2411   0.136   5.075   3.722
    1TCM    cl3 2412   0.010   4.931   3.865
    1TCM     c1 2413   3.391   0.741   3.841
    1TCM    cl1 2414   3.217   0.744   3.805
    1TCM    cl2 2415   3.480   0.689   3.696
    1TCM     h1 2416   3.424   0.843   3.870
    1TCM    cl3 2417   3.423   0.628   3.974
    1TCM     c1 2418   3.835   3.719   1.630
    1TCM    cl1 2419   3.960   3.811   1.544
    1TCM    cl2 2420   3.834   3.765   1.801
    1TCM     h1 2421   3.736   3.741   1.585
    1TCM    cl3 2422   3.869   3.545   1.615
    1TCM     c1 2423   0.530   0.163   1.378
    1TCM    cl1 2424   0.625   0.033   1.454
    1TCM    cl2 2425   0.370   0.101   1.333
    1TCM     h1 2426   0.519   0.247   1.450
    1TCM    cl3 2427   0.614   0.221   1.233
    1TCM     c1 2428   2.164   3.965   3.691
    1TCM    cl1 2429   2.294   3.938   3.809
    1TCM    cl2 2430   2.211   3.895   3.534
    1TCM     h1 2431   2.071   3.917   3.727
    1TCM    cl3 2432   2.136   4.140   3.672
    1TCM     c1 2433   4.523   3.947   1.340
    1TCM    cl1 2434   4.551   3.925   1.514
    1TCM    cl2 2435   4.654   4.046   1.270
    1TCM     h1 2436   4.521   3.848   1.290
    1TCM    cl3 2437   4.367   4.029   1.315
    1TCM     c1 2438   3.136   4.338   4.588
    1TCM    cl1 2439   2.967   4.314   4.638
    1TCM    cl2 2440   3.234   4.199   4.642
    1TCM     h1 2441   3.142   4.346   4.478
    1TCM    cl3 2442   3.200   4.487   4.662
    1TCM     c1 2443   2.076   1.869   4.792
    1TCM    cl1 2444   1.939   1.975   4.828
    1TCM    cl2 2445   2.048   1.786   4.637
    1TCM     h1 2446   2.169   1.929   4.785
    1TCM    cl3 2447   2.093   1.748   4.921
    1TCM     c1 2448   1.564   3.455   2.045
    1TCM    cl1 2449   1.589   3.597   1.942
    1TCM    cl2 2450   1.530   3.508   2.211
    1TCM     h1 2451   1.478   3.396   2.007
    1TCM    cl3 2452   1.711   3.354   2.043
    1TCM     c1 2453   1.814   0.122   1.510
    1TCM    cl1 2454   1.902   0.077   1.657
    1TCM    cl2 2455   1.928   0.140   1.375
    1TCM     h1 2456   1.740   0.042   1.485
    1TCM    cl3 2457   1.729   0.275   1.536
    1TCM     c1 2458   4.214   4.352   3.795
    1TCM    cl1 2459   4.098   4.423   3.680
    1TCM    cl2 2460   4.145   4.355   3.959
    1TCM     h1 2461   4.235   4.247   3.765
    1TCM    cl3 2462   4.365   4.446   3.792
    1TCM     c1 2463   0.710   1.029   3.776
    1TCM    cl1 2464   0.639   1.005   3.615
    1TCM    cl2 2465   0.654   0.901   3.885
    1TCM     h1 2466   0.821   1.026   3.768
    1TCM    cl3 2467   0.660   1.188   3.839
    1TCM     c1 2468   1.689   4.456   0.702
    1TCM    cl1 2469   1.815   4.578   0.679
    1TCM    cl2 2470   1.577   4.509   0.829
    1TCM     h1 2471   1.633   4.442   0.607
    1TCM    cl3 2472   1.763   4.301   0.750
    1TCM     c1 2473   3.283   0.431   0.181
    1TCM    cl1 2474   3.159   0.355   0.283
    1TCM    cl2 2475   3.238   0.415   0.010
    1TCM     h1 2476   3.291   0.539   0.207
    1TCM    cl3 2477   3.439   0.352   0.209
    1TCM     c1 2478   3.799   0.931   3.288
    1TCM    cl1 2479   3.842   0.924   3.116
    1TCM    cl2 2480   3.947   0.950   3.385
    1TCM     h1 2481   3.731   1.017   3.306
    1TCM    cl3 2482   3.717   0.780   3.335
    1TCM     c1 2483   0.154   4.600   4.003
    1TCM    cl1 2484   0.284   4.503   3.931
    1TCM    cl2 2485   0.220   4.701   4.133
    1TCM     h1 2486   0.109   4.665   3.925
    1TCM    cl3 2487   0.029   4.492   4.069
    1TCM     c1 2488   4.440   1.667   5.262
    1TCM    cl1 2489   4.513   1.818   5.321
    1TCM    cl2 2490   4.419   1.676   5.086
    1TCM     h1 2491   4.506   1.582   5.288
    1TCM    cl3 2492   4.281   1.645   5.340
    1TCM     c1 2493   0.541   0.627   2.752
    1TCM    cl1 2494   0.583   0.628   2.579
    1TCM    cl2 2495   0.427   0.494   2.784
    1TCM     h1 2496   0.633   0.613   2.813
    1TCM    cl3 2497   0.465   0.782   2.796
    1TCM     c1 2498   0.436   2.106   2.210
    1TCM    cl1 2499   0.509   1.955   2.149
    1TCM    cl2 2500   0.432   2.227   2.079
    1TCM     h1 2501   0.333   2.086   2.244
    1TCM    cl3 2502   0.534   2.168   2.345
    1TCM     c1 2503   3.662   2.203   1.684
    1TCM    cl1 2504   3.677   2.171   1.509
    1TCM    cl2 2505   3.805   2.139   1.768
    1TCM     h1 2506   3.654   2.312   1.701
    1TCM    cl3 2507   3.516   2.122   1.747
    1TCM     c1 2508   2.635   0.929   4.337
    1TCM    cl1 2509   2.516   0.979   4.213
    1TCM    cl2 2510   2.561   0.809   4.444
    1TCM     h1 2511   2.723   0.885   4.287
    1TCM    cl3 2512   2.684   1.071   4.431
    1TCM     c1 2513   4.639   2.542   4.917
    1TCM    cl1 2514   4.618   2.673   5.036
    1TCM    cl2 2515   4.532   2.407   4.959
    1TCM     h1 2516   4.614   2.580   4.816
    1TCM    cl3 2517   4.808   2.487   4.919
    1TCM     c1 2518   3.823   0.777   2.864
    1TCM    cl1 2519   3.704   0.766   2.733
    1TCM    cl2 2520   3.911   0.931   2.851
    1TCM     h1 2521   3.771   0.773   2.962
    1TCM    cl3 2522   3.938   0.642   2.852
    1TCM     c1 2523   3.309   2.185   3.300
    1TCM    cl1 2524   3.313   2.029   3.216
    1TCM    cl2 2525   3.305   2.317   3.180
    1TCM     h1 2526   3.218   2.191   3.364
    1TCM    cl3 2527   3.454   2.202   3.402
    1TCM     c1 2528   3.824   1.623   1.487
    1TCM    cl1 2529   3.888   1.773   1.414
    1TCM    cl2 2530   3.734   1.663   1.635
    1TCM     h1 2531   3.756   1.573   1.415
    1TCM    cl3 2532   3.959   1.515   1.527
    1TCM     c1 2533   0.426   3.420   1.584
    1TCM    cl1 2534   0.251   3.424   1.615
    1TCM    cl2 2535   0.463   3.293   1.465
    1TCM     h1 2536   0.458   3.519   1.545
    1TCM    cl3 2537   0.512   3.386   1.736
    1TCM     c1 2538   2.514   3.738   4.569
    1TCM    cl1 2539   2.389   3.758   4.695
    1TCM    cl2 2540   2.460   3.819   4.420
    1TCM     h1 2541   2.609   3.784   4.604
    1TCM    cl3 2542   2.539   3.565   4.537
    1TCM     c1 2543   1.917   1.630   1.965
    1TCM    cl1 2544   2.051   1.696   2.061
    1TCM    cl2 2545   1.968   1.612   1.796
    1TCM     h1 2546   1.887   1.531   2.006
    1TCM    cl3 2547   1.778   1.741   1.973
    1TCM     c1 2548   4.584   2.606   0.353
    1TCM    cl1 2549   4.732   2.622   0.255
    1TCM    cl2 2550   4.629   2.593   0.525
    1TCM     h1 2551   4.520   2.695   0.338
    1TCM    cl3 2552   4.496   2.460   0.304
    1TCM     c1 2553   3.127   4.605   3.566
    1TCM    cl1 2554   2.964   4.594   3.495
    1TCM    cl2 2555   3.217   4.456   3.532
    1TCM     h1 2556   3.180   4.692   3.521
    1TCM    cl3 2557   3.114   4.628   3.742
    1TCM     c1 2558   5.014   3.879   5.225
    1TCM    cl1 2559   4.877   3.787   5.289
    1TCM    cl2 2560   4.994   4.051   5.265
    1TCM     h1 2561   5.109   3.842   5.269
    1TCM    cl3 2562   5.021   3.861   5.048
    1TCM     c1 2563   1.194   2.685   3.338
    1TCM    cl1 2564   1.124   2.554   3.436
    1TCM    cl2 2565   1.173   2.648   3.166
    1TCM     h1 2566   1.142   2.780   3.362
    1TCM    cl3 2567   1.367   2.701   3.375
    1TCM     c1 2568   2.539   2.796   1.292
    1TCM    cl1 2569   2.516   2.894   1.145
    1TCM    cl2 2570   2.418   2.666   1.296
    1TCM     h1 2571   2.641   2.752   1.292
    1TCM    cl3 2572   2.519   2.900   1.435
    1TCM     c1 2573   0.131   3.563   3.584
    1TCM    cl1 2574   0.248   3.571   3.450
    1TCM    cl2 2575   0.000   3.450   3.542
    1TCM     h1 2576   0.182   3.528   3.676
    1TCM    cl3 2577   0.062   3.725   3.613
    1TCM     c1 2578   2.474   4.847   3.304
    1TCM    cl1 2579   2.625   4.800   3.385
    1TCM    cl2 2580   2.338   4.828   3.418
    1TCM     h1 2581   2.480   4.953   3.272
    1TCM    cl3 2582   2.447   4.743   3.163
    1TCM     c1 2583   5.002   2.729   4.195
    1TCM    cl1 2584   5.173   2.778   4.202
    1TCM    cl2 2585   4.899   2.875   4.191
    1TCM     h1 2586   4.984   2.669   4.104
    1TCM    cl3 2587   4.963   2.633   4.339
    1TCM     c1 2588   2.580   2.255   3.577
    1TCM    cl1 2589   2.447   2.138   3.594
    1TCM    cl2 2590   2.601   2.296   3.406
    1TCM     h1 2591   2.555   2.347   3.635
    1TCM    cl3 2592   2.730   2.184   3.640
    1TCM     c1 2593   1.967   0.915   3.896
    1TCM    cl1 2594   1.994   0.786   4.015
    1TCM    cl2 2595   1.921   1.065   3.981
    1TCM     h1 2596   2.060   0.932   3.839
    1TCM    cl3 2597   1.836   0.868   3.786
    1TCM     c1 2598   0.904   0.091   0.938
    1TCM    cl1 2599   0.883   0.250   0.860
    1TCM    cl2 2600   1.032   0.000   0.855
    1TCM     h1 2601   0.932   0.106   1.044
    1TCM    cl3 2602   0.751   0.000   0.928
    1TCM     c1 2603   4.154   1.432   3.648
    1TCM    cl1 2604   4.051   1.576   3.664
    1TCM    cl2 2605   4.188   1.366   3.810
    1TCM     h1 2606   4.102   1.355   3.587
    1TCM    cl3 2607   4.307   1.477   3.569
    1TCM     c1 2608   3.223   4.919   3.404
    1TCM    cl1 2609   3.264   4.778   3.304
    1TCM    cl2 2610   3.056   4.903   3.464
    1TCM     h1 2611   3.292   4.925   3.491
    1TCM    cl3 2612   3.237   5.068   3.307
    1TCM     c1 2613   2.228   2.559   3.108
    1TCM    cl1 2614   2.136   2.433   3.022
    1TCM    cl2 2615   2.117   2.686   3.163
    1TCM     h1 2616   2.280   2.514   3.195
    1TCM    cl3 2617   2.349   2.629   2.997
    1TCM     c1 2618   1.544   0.753   5.235
    1TCM    cl1 2619   1.449   0.861   5.340
    1TCM    cl2 2620   1.487   0.769   5.067
    1TCM     h1 2621   1.651   0.781   5.241
    1TCM    cl3 2622   1.523   0.585   5.289
    1TCM     c1 2623   2.207   4.394   4.403
    1TCM    cl1 2624   2.140   4.410   4.239
    1TCM    cl2 2625   2.164   4.537   4.499
    1TCM     h1 2626   2.164   4.303   4.451
    1TCM    cl3 2627   2.384   4.379   4.394
    1TCM     c1 2628   0.784   3.747   5.056
    1TCM    cl1 2629   0.770   3.874   4.933
    1TCM    cl2 2630   0.621   3.691   5.102
    1TCM     h1 2631   0.842   3.662   5.015
    1TCM    cl3 2632   0.867   3.812   5.199
    1TCM     c1 2633   5.095   3.052   1.872
    1TCM    cl1 2634   5.078   3.195   1.767
    1TCM    cl2 2635   5.088   3.103   2.043
    1TCM     h1 2636   5.012   2.981   1.851
    1TCM    cl3 2637   5.250   2.973   1.840
    1TCM     c1 2638   3.309   1.182   3.597
    1TCM    cl1 2639   3.398   1.302   3.694
    1TCM    cl2 2640   3.364   1.191   3.428
    1TCM     h1 2641   3.328   1.081   3.637
    1TCM    cl3 2642   3.135   1.217   3.605
    1TCM     c1 2643   0.084   1.323   1.830
    1TCM    cl1 2644   0.252   1.269   1.850
    1TCM    cl2 2645   0.001   1.319   1.987
    1TCM     h1 2646   0.083   1.427   1.790
    1TCM    cl3 2647   0.000   1.215   1.717
    1TCM     c1 2648   1.561   0.121   1.281
    1TCM    cl1 2649   1.412   0.050   1.215
    1TCM    cl2 2650   1.692   0.001   1.271
    1TCM     h1 2651   1.589   0.211   1.223
    1TCM    cl3 2652   1.535   0.166   1.451
    1TCM     c1 2653   2.759   2.931   3.887
    1TCM    cl1 2654   2.835   2.814   3.997
    1TCM    cl2 2655   2.885   3.030   3.810
    1TCM     h1 2656   2.701   2.877   3.809
    1TCM    cl3 2657   2.649   3.037   3.979
    1TCM     c1 2658   5.129   3.328   1.241
    1TCM    cl1 2659   5.193   3.463   1.144
    1TCM    cl2 2660   5.030   3.393   1.374
    1TCM     h1 2661   5.066   3.263   1.177
    1TCM    cl3 2662   5.264   3.234   1.308
    1TCM     c1 2663   1.868   0.267   0.135
    1TCM    cl1 2664   1.721   0.168   0.127
    1TCM    cl2 2665   1.985   0.209   0.014
    1TCM     h1 2666   1.843   0.373   0.114
    1TCM    cl3 2667   1.940   0.254   0.297
    1TCM     c1 2668   1.119   1.900   2.980
    1TCM    cl1 2669   1.094   1.725   2.954
    1TCM    cl2 2670   1.284   1.927   3.042
    1TCM     h1 2671   1.107   1.953   2.884
    1TCM    cl3 2672   1.001   1.960   3.098
    1TCM     c1 2673   2.692   3.845   2.450
    1TCM    cl1 2674   2.835   3.765   2.382
    1TCM    cl2 2675   2.742   3.986   2.546
    1TCM     h1 2676   2.626   3.878   2.367
    1TCM    cl3 2677   2.603   3.731   2.553
    1TCM     c1 2678   1.531   0.633   2.914
    1TCM    cl1 2679   1.559   0.757   2.789
    1TCM    cl2 2680   1.469   0.710   3.061
    1TCM     h1 2681   1.458   0.558   2.877
    1TCM    cl3 2682   1.685   0.551   2.951
    1TCM     c1 2683   5.137   5.028   2.828
    1TCM    cl1 2684   5.100   4.906   2.704
    1TCM    cl2 2685   5.159   4.948   2.985
    1TCM     h1 2686   5.230   5.082   2.800
    1TCM    cl3 2687   5.002   5.144   2.838
    1TCM     c1 2688   2.630   3.893   3.230
    1TCM    cl1 2689   2.490   3.934   3.332
    1TCM    cl2 2690   2.647   4.014   3.102
    1TCM     h1 2691   2.722   3.891   3.292
    1TCM    cl3 2692   2.604   3.733   3.158
    1TCM     c1 2693   5.025   5.003   0.269
    1TCM    cl1 2694   4.920   5.038   0.130
    1TCM    cl2 2695   5.065   4.830   0.272
    1TCM     h1 2696   5.119   5.062   0.260
    1TCM    cl3 2697   4.942   5.048   0.419
    1TCM     c1 2698   1.541   4.064   5.169
    1TCM    cl1 2699   1.392   4.050   5.075
    1TCM    cl2 2700   1.631   3.911   5.161
    1TCM     h1 2701   1.604   4.146   5.128
    1TCM    cl3 2702   1.501   4.101   5.339
    1TCM     c1 2703   0.481   1.916   3.517
    1TCM    cl1 2704   0.325   1.854   3.458
    1TCM    cl2 2705   0.481   1.918   3.694
    1TCM     h1 2706   0.563   1.851   3.480
    1TCM    cl3 2707   0.505   2.082   3.455
    1TCM     c1 2708   4.637   0.366   4.811
    1TCM    cl1 2709   4.584   0.506   4.908
    1TCM    cl2 2710   4.663   0.418   4.643
    1TCM     h1 2711   4.732   0.326   4.852
    1TCM    cl3 2712   4.512   0.240   4.815
    1TCM     c1 2713   4.345   2.427   2.476
    1TCM    cl1 2714   4.262   2.304   2.572
    1TCM    cl2 2715   4.488   2.485   2.565
    1TCM     h1 2716   4.378   2.383   2.379
    1TCM    cl3 2717   4.235   2.564   2.445
    1TCM     c1 2718   3.478   4.748   1.716
    1TCM    cl1 2719   3.557   4.615   1.628
    1TCM    cl2 2720   3.588   4.889   1.721
    1TCM     h1 2721   3.384   4.776   1.665
    1TCM    cl3 2722   3.442   4.696   1.882
    1TCM     c1 2723   5.207   5.169   0.749
    1TCM    cl1 2724   5.216   5.340   0.700
    1TCM    cl2 2725   5.037   5.122   0.769
    1TCM     h1 2726   5.254   5.106   0.671
    1TCM    cl3 2727   5.293   5.148   0.903
    1TCM     c1 2728   3.976   5.145   0.254
    1TCM    cl1 2729   4.020   5.085   0.416
    1TCM    cl2 2730   4.124   5.184   0.163
    1TCM     h1 2731   3.918   5.067   0.200
    1TCM    cl3 2732   3.876   5.291   0.271
    1TCM     c1 2733   0.707   5.226   2.437
    1TCM    cl1 2734   0.616   5.340   2.539
    1TCM    cl2 2735   0.695   5.276   2.267
    1TCM     h1 2736   0.814   5.226   2.468
    1TCM    cl3 2737   0.640   5.063   2.456
    1TCM     c1 2738   2.876   5.151   4.385
    1TCM    cl1 2739   2.801   5.272   4.278
    1TCM    cl2 2740   2.953   5.025   4.287
    1TCM     h1 2741   2.952   5.201   4.449
    1TCM    cl3 2742   2.750   5.078   4.489
    1TCM     c1 2743   4.413   4.191   1.834
    1TCM    cl1 2744   4.274   4.196   1.723
    1TCM    cl2 2745   4.355   4.205   2.002
    1TCM     h1 2746   4.467   4.094   1.822
    1TCM    cl3 2747   4.524   4.325   1.798
    1TCM     c1 2748   3.279   3.671   4.887
    1TCM    cl1 2749   3.352   3.575   5.017
    1TCM    cl2 2750   3.299   3.587   4.732
    1TCM     h1 2751   3.170   3.685   4.908
    1TCM    cl3 2752   3.358   3.830   4.879
    1TCM     c1 2753   2.768   0.534   4.351
    1TCM    cl1 2754   2.686   0.512   4.507
    1TCM    cl2 2755   2.731   0.396   4.245
    1TCM     h1 2756   2.733   0.628   4.303
    1TCM    cl3 2757   2.944   0.543   4.377
    1TCM     c1 2758   3.346   3.350   1.813
    1TCM    cl1 2759   3.489   3.435   1.749
    1TCM    cl2 2760   3.330   3.385   1.986
    1TCM     h1 2761   3.256   3.385   1.759
    1TCM    cl3 2762   3.366   3.175   1.789
    1TCM     c1 2763   0.181   3.080   3.549
    1TCM    cl1 2764   0.316   2.987   3.480
    1TCM    cl2 2765   0.211   3.108   3.722
    1TCM     h1 2766   0.173   3.178   3.497
    1TCM    cl3 2767   0.030   2.990   3.529
    1TCM     c1 2768   1.511   3.838   3.102
    1TCM    cl1 2769   1.601   3.866   3.252
    1TCM    cl2 2770   1.516   3.985   3.001
    1TCM     h1 2771   1.557   3.754   3.046
    1TCM    cl3 2772   1.342   3.799   3.141
    1TCM     c1 2773   2.849   4.220   1.742
    1TCM    cl1 2774   2.716   4.103   1.756
    1TCM    cl2 2775   2.923   4.245   1.902
    1TCM     h1 2776   2.925   4.182   1.671
    1TCM    cl3 2777   2.785   4.375   1.682
    1TCM     c1 2778   5.142   1.676   2.961
    1TCM    cl1 2779   5.080   1.635   2.799
    1TCM    cl2 2780   5.319   1.658   2.961
    1TCM     h1 2781   5.115   1.780   2.986
    1TCM    cl3 2782   5.072   1.566   3.081
    1TCM     c1 2783   4.443   3.474   3.035
    1TCM    cl1 2784   4.568   3.348   3.041
    1TCM    cl2 2785   4.299   3.419   3.124
    1TCM     h1 2786   4.482   3.567   3.081
    1TCM    cl3 2787   4.399   3.505   2.865
    1TCM     c1 2788   2.732   4.931   2.624
    1TCM    cl1 2789   2.868   4.816   2.619
    1TCM    cl2 2790   2.736   5.021   2.777
    1TCM     h1 2791   2.740   5.001   2.539
    1TCM    cl3 2792   2.579   4.841   2.613
    1TCM     c1 2793   2.996   3.186   2.424
    1TCM    cl1 2794   2.920   3.052   2.335
    1TCM    cl2 2795   3.162   3.210   2.364
    1TCM     h1 2796   2.938   3.279   2.408
    1TCM    cl3 2797   3.001   3.147   2.597
    1TCM     c1 2798   1.918   3.507   4.155
    1TCM    cl1 2799   1.903   3.652   4.052
    1TCM    cl2 2800   1.943   3.557   4.324
    1TCM     h1 2801   1.825   3.447   4.147
    1TCM    cl3 2802   2.056   3.410   4.100
    1TCM     c1 2803   4.990   1.870   0.512
    1TCM    cl1 2804   5.011   1.845   0.338
    1TCM    cl2 2805   4.945   1.716   0.589
    1TCM     h1 2806   5.084   1.908   0.556
    1TCM    cl3 2807   4.860   1.989   0.539
    1TCM     c1 2808   2.046   3.085   2.141
    1TCM    cl1 2809   2.185   3.122   2.244
    1TCM    cl2 2810   2.103   3.048   1.976
    1TCM     h1 2811   1.992   2.997   2.181
    1TCM    cl3 2812   1.937   3.225   2.135
    1TCM     c1 2813   1.993   0.949   4.969
    1TCM    cl1 2814   2.042   1.117   4.935
    1TCM    cl2 2815   2.113   0.837   4.899
    1TCM     h1 2816   1.987   0.934   5.079
    1TCM    cl3 2817   1.834   0.918   4.897
    1TCM     c1 2818   0.296   5.090   3.998
    1TCM    cl1 2819   0.364   5.209   4.111
    1TCM    cl2 2820   0.328   5.143   3.831
    1TCM     h1 2821   0.343   4.991   4.015
    1TCM    cl3 2822   0.120   5.078   4.023
    1TCM     c1 2823   1.661   4.492   1.725
    1TCM    cl1 2824   1.652   4.627   1.609
    1TCM    cl2 2825   1.828   4.476   1.784
    1TCM     h1 2826   1.593   4.513   1.810
    1TCM    cl3 2827   1.611   4.342   1.645
    1TCM     c1 2828   4.939   0.989   4.263
    1TCM    cl1 2829   4.847   0.898   4.385
    1TCM    cl2 2830   4.863   0.967   4.103
    1TCM     h1 2831   4.938   1.097   4.289
    1TCM    cl3 2832   5.106   0.930   4.258
    1TCM     c1 2833   2.339   3.227   0.254
    1TCM    cl1 2834   2.310   3.343   0.123
    1TCM    cl2 2835   2.264   3.286   0.404
    1TCM     h1 2836   2.296   3.128   0.227
    1TCM    cl3 2837   2.515   3.209   0.279
    1TCM     c1 2838   2.679   4.255   1.395
    1TCM    cl1 2839   2.720   4.425   1.427
    1TCM    cl2 2840   2.699   4.221   1.221
    1TCM     h1 2841   2.747   4.189   1.453
    1TCM    cl3 2842   2.511   4.224   1.442
    1TCM     c1 2843   1.675   0.945   4.106
    1TCM    cl1 2844   1.783   0.817   4.167
    1TCM    cl2 2845   1.714   0.981   3.937
    1TCM     h1 2846   1.569   0.911   4.113
    1TCM    cl3 2847   1.696   1.092   4.205
    1TCM     c1 2848   1.585   1.125   2.873
    1TCM    cl1 2849   1.607   1.145   2.698
    1TCM    cl2 2850   1.527   0.960   2.906
    1TCM     h1 2851   1.682   1.141   2.924
    1TCM    cl3 2852   1.465   1.242   2.932
    1TCM     c1 2853   1.992   3.192   3.478
    1TCM    cl1 2854   1.963   3.170   3.304
    1TCM    cl2 2855   2.034   3.362   3.510
    1TCM     h1 2856   1.900   3.165   3.534
    1TCM    cl3 2857   2.125   3.086   3.530
    1TCM     c1 2858   3.863   4.284   3.040
    1TCM    cl1 2859   3.809   4.426   3.132
    1TCM    cl2 2860   3.882   4.328   2.868
    1TCM     h1 2861   3.960   4.248   3.080
    1TCM    cl3 2862   3.741   4.155   3.054
    1TCM     c1 2863   2.704   5.131   0.530
    1TCM    cl1 2864   2.881   5.126   0.509
    1TCM    cl2 2865   2.652   5.300   0.548
    1TCM     h1 2866   2.655   5.086   0.442
    1TCM    cl3 2867   2.659   5.040   0.676
    1TCM     c1 2868   1.652   3.805   4.112
    1TCM    cl1 2869   1.774   3.934   4.104
    1TCM    cl2 2870   1.699   3.687   4.236
    1TCM     h1 2871   1.553   3.849   4.138
    1TCM    cl3 2872   1.640   3.724   3.954
    1TCM     c1 2873   2.370   2.236   1.327
    1TCM    cl1 2874   2.509   2.341   1.359
    1TCM    cl2 2875   2.234   2.335   1.268
    1TCM     h1 2876   2.397   2.161   1.249
    1TCM    cl3 2877   2.322   2.152   1.476
    1TCM     c1 2878   3.140   0.138   3.823
    1TCM    cl1 2879   3.188   0.079   3.984
    1TCM    cl2 2880   3.125   0.315   3.828
    1TCM     h1 2881   3.218   0.110   3.749
    1TCM    cl3 2882   2.984   0.067   3.777
    1TCM     c1 2883   1.998   1.180   2.091
    1TCM    cl1 2884   1.842   1.107   2.046
    1TCM    cl2 2885   2.026   1.155   2.265
    1TCM     h1 2886   2.079   1.132   2.033
    1TCM    cl3 2887   1.994   1.354   2.056
    1TCM     c1 2888   2.333   2.800   0.409
    1TCM    cl1 2889   2.209   2.861   0.520
    1TCM    cl2 2890   2.280   2.827   0.241
    1TCM     h1 2891   2.428   2.853   0.427
    1TCM    cl3 2892   2.357   2.626   0.436
    1TCM     c1 2893   3.605   2.511   4.373
    1TCM    cl1 2894   3.693   2.661   4.411
    1TCM    cl2 2895   3.720   2.389   4.312
    1TCM     h1 2896   3.556   2.473   4.465
    1TCM    cl3 2897   3.482   2.545   4.249
    1TCM     c1 2898   0.770   0.433   1.993
    1TCM    cl1 2899   0.627   0.410   1.890
    1TCM    cl2 2900   0.731   0.388   2.160
    1TCM     h1 2901   0.853   0.370   1.956
    1TCM    cl3 2902   0.819   0.604   1.987
    1TCM     c1 2903   0.073   2.892   3.874
    1TCM    cl1 2904   0.104   3.063   3.913
    1TCM    cl2 2905   0.007   2.810   4.017
    1TCM     h1 2906   0.000   2.886   3.791
    1TCM    cl3 2907   0.225   2.814   3.826
    1TCM     c1 2908   4.296   4.858   0.793
    1TCM    cl1 2909   4.327   4.858   0.968
    1TCM    cl2 2910   4.333   5.019   0.727
    1TCM     h1 2911   4.360   4.782   0.744
    1TCM    cl3 2912   4.125   4.819   0.763
    1TCM     c1 2913   0.298   4.306   1.100
    1TCM    cl1 2914   0.251   4.135   1.097
    1TCM    cl2 2915   0.166   4.405   1.034
    1TCM     h1 2916   0.319   4.337   1.204
    1TCM    cl3 2917   0.444   4.329   1.000
    1TCM     c1 2918   2.197   2.273   3.841
    1TCM    cl1 2919   2.210   2.381   3.701
    1TCM    cl2 2920   2.342   2.290   3.943
    1TCM     h1 2921   2.107   2.299   3.900
    1TCM    cl3 2922   2.184   2.104   3.785
    1TCM     c1 2923   0.579   4.089   1.294
    1TCM    cl1 2924   0.473   4.121   1.155
    1TCM    cl2 2925   0.519   4.177   1.436
    1TCM     h1 2926   0.579   3.980   1.315
    1TCM    cl3 2927   0.744   4.142   1.256
    1TCM     c1 2928   1.466   3.890   0.401
    1TCM    cl1 2929   1.318   3.867   0.497
    1TCM    cl2 2930   1.589   3.772   0.452
    1TCM     h1 2931   1.443   3.875   0.293
    1TCM    cl3 2932   1.528   4.055   0.425
    1TCM     c1 2933   3.182   2.126   2.548
    1TCM    cl1 2934   3.323   2.020   2.528
    1TCM    cl2 2935   3.178   2.245   2.416
    1TCM     h1 2936   3.089   2.065   2.546
    1TCM    cl3 2937   3.194   2.211   2.704
    1TCM     c1 2938   1.915   2.760   2.487
    1TCM    cl1 2939   2.047   2.762   2.606
    1TCM    cl2 2940   1.759   2.762   2.572
    1TCM     h1 2941   1.923   2.849   2.421
    1TCM    cl3 2942   1.927   2.612   2.389
    1TCM     c1 2943   3.415   5.124   2.095
    1TCM    cl1 2944   3.350   5.242   1.979
    1TCM    cl2 2945   3.281   5.039   2.175
    1TCM     h1 2946   3.479   5.051   2.041
    1TCM    cl3 2947   3.512   5.209   2.217
    1TCM     c1 2948   1.043   2.540   4.391
    1TCM    cl1 2949   1.149   2.632   4.501
    1TCM    cl2 2950   1.077   2.586   4.223
    1TCM     h1 2951   1.062   2.431   4.405
    1TCM    cl3 2952   0.873   2.576   4.429
    1TCM     c1 2953   4.628   3.899   4.931
    1TCM    cl1 2954   4.689   3.758   5.021
    1TCM    cl2 2955   4.722   3.919   4.782
    1TCM     h1 2956   4.521   3.883   4.906
    1TCM    cl3 2957   4.644   4.044   5.032
    1TCM     c1 2958   4.922   1.880   4.163
    1TCM    cl1 2959   5.088   1.821   4.184
    1TCM    cl2 2960   4.872   1.854   3.994
    1TCM     h1 2961   4.854   1.824   4.231
    1TCM    cl3 2962   4.915   2.053   4.202
    1TCM     c1 2963   4.125   2.241   2.861
    1TCM    cl1 2964   4.028   2.388   2.839
    1TCM    cl2 2965   4.150   2.162   2.703
    1TCM     h1 2966   4.224   2.268   2.904
    1TCM    cl3 2967   4.041   2.130   2.970
    1TCM     c1 2968   1.468   2.828   5.169
    1TCM    cl1 2969   1.451   2.997   5.221
    1TCM    cl2 2970   1.312   2.745   5.185
    1TCM     h1 2971   1.501   2.825   5.063
    1TCM    cl3 2972   1.589   2.747   5.270
    1TCM     c1 2973   3.667   2.146   3.132
    1TCM    cl1 2974   3.512   2.230   3.106
    1TCM    cl2 2975   3.725   2.178   3.296
    1TCM     h1 2976   3.651   2.037   3.119
    1TCM    cl3 2977   3.786   2.203   3.014
    1TCM     c1 2978   2.757   4.871   1.042
    1TCM    cl1 2979   2.709   5.028   1.111
    1TCM    cl2 2980   2.669   4.844   0.890
    1TCM     h1 2981   2.866   4.871   1.022
    1TCM    cl3 2982   2.717   4.741   1.157
    1TCM     c1 2983   1.659   3.844   0.888
    1TCM    cl1 2984   1.822   3.790   0.934
    1TCM    cl2 2985   1.620   3.783   0.726
    1TCM     h1 2986   1.585   3.805   0.961
    1TCM    cl3 2987   1.654   4.022   0.888
    1TCM     c1 2988   5.074   3.219   5.124
    1TCM    cl1 2989   5.006   3.342   5.234
    1TCM    cl2 2990   4.958   3.085   5.107
    1TCM     h1 2991   5.092   3.264   5.025
    1TCM    cl3 2992   5.227   3.158   5.191
    1TCM     c1 2993   2.953   5.034   3.100
    1TCM    cl1 2994   3.040   5.188   3.081
    1TCM    cl2 2995   2.884   4.985   2.944
    1TCM     h1 2996   3.024   4.957   3.136
    1TCM    cl3 2997   2.822   5.055   3.219
    1TCM     c1 2998   4.806   3.871   3.668
    1TCM    cl1 2999   4.773   3.846   3.841
    1TCM    cl2 3000   4.654   3.906   3.583
    1TCM     h1 3001   4.876   3.957   3.656
    1TCM    cl3 3002   4.880   3.724   3.600
    1TCM     c1 3003   1.688   0.903   3.148
    1TCM    cl1 3004   1.811   1.027   3.115
    1TCM    cl2 3005   1.533   0.983   3.184
    1TCM     h1 3006   1.676   0.838   3.059
    1TCM    cl3 3007   1.738   0.805   3.287
    1TCM     c1 3008   3.320   2.736   4.576
    1TCM    cl1 3009   3.460   2.844   4.556
    1TCM    cl2 3010   3.286   2.654   4.421
    1TCM     h1 3011   3.343   2.660   4.653
    1TCM    cl3 3012   3.178   2.831   4.625
    1TCM     c1 3013   2.354   4.267   0.615
    1TCM    cl1 3014   2.477   4.204   0.503
    1TCM    cl2 3015   2.426   4.289   0.776
    1TCM     h1 3016   2.317   4.365   0.577
    1TCM    cl3 3017   2.218   4.152   0.625
    1TCM     c1 3018   3.241   1.592   0.296
    1TCM    cl1 3019   3.357   1.686   0.199
    1TCM    cl2 3020   3.158   1.474   0.192
    1TCM     h1 3021   3.296   1.538   0.377
    1TCM    cl3 3022   3.122   1.701   0.369
    1TCM     c1 3023   2.382   1.753   4.032
    1TCM    cl1 3024   2.410   1.805   4.200
    1TCM    cl2 3025   2.218   1.800   3.981
    1TCM     h1 3026   2.457   1.800   3.966
    1TCM    cl3 3027   2.398   1.576   4.022
    1TCM     c1 3028   1.267   0.940   2.714
    1TCM    cl1 3029   1.441   0.973   2.698
    1TCM    cl2 3030   1.187   0.967   2.557
    1TCM     h1 3031   1.252   0.835   2.745
    1TCM    cl3 3032   1.197   1.049   2.835
    1TCM     c1 3033   2.825   4.329   5.121
    1TCM    cl1 3034   2.778   4.267   5.280
    1TCM    cl2 3035   2.680   4.365   5.025
    1TCM     h1 3036   2.885   4.422   5.133
    1TCM    cl3 3037   2.923   4.207   5.036
    1TCM     c1 3038   2.315   4.477   1.615
    1TCM    cl1 3039   2.145   4.517   1.644
    1TCM    cl2 3040   2.371   4.559   1.468
    1TCM     h1 3041   2.376   4.509   1.701
    1TCM    cl3 3042   2.331   4.301   1.594
    1TCM     c1 3043   0.959   2.566   5.151
    1TCM    cl1 3044   0.811   2.537   5.245
    1TCM    cl2 3045   0.951   2.476   4.998
    1TCM     h1 3046   0.969   2.674   5.130
    1TCM    cl3 3047   1.100   2.510   5.244
    1TCM     c1 3048   1.690   1.201   1.858
    1TCM    cl1 3049   1.595   1.298   1.744
    1TCM    cl2 3050   1.580   1.096   1.951
    1TCM     h1 3051   1.762   1.138   1.802
    1TCM    cl3 3052   1.778   1.308   1.969
    1TCM     c1 3053   0.520   3.624   3.642
    1TCM    cl1 3054   0.393   3.748   3.638
    1TCM    cl2 3055   0.588   3.602   3.479
    1TCM     h1 3056   0.601   3.655   3.711
    1TCM    cl3 3057   0.450   3.470   3.697
    1TCM     c1 3058   2.271   0.102   1.468
    1TCM    cl1 3059   2.318   0.262   1.405
    1TCM    cl2 3060   2.415  -0.000   1.485
    1TCM     h1 3061   2.222   0.115   1.567
    1TCM    cl3 3062   2.157   0.026   1.355
    1TCM     c1 3063   0.259   0.164   3.830
    1TCM    cl1 3064   0.369   0.072   3.936
    1TCM    cl2 3065   0.243   0.079   3.674
    1TCM     h1 3066   0.159   0.171   3.878
    1TCM    cl3 3067   0.324   0.327   3.803
    1TCM     c1 3068   3.250   4.022   1.530
    1TCM    cl1 3069   3.384   4.120   1.593
    1TCM    cl2 3070   3.282   3.850   1.563
    1TCM     h1 3071   3.155   4.052   1.580
    1TCM    cl3 3072   3.236   4.046   1.355
    1TCM     c1 3073   4.642   4.323   3.840
    1TCM    cl1 3074   4.565   4.471   3.903
    1TCM    cl2 3075   4.740   4.249   3.968
    1TCM     h1 3076   4.563   4.252   3.807
    1TCM    cl3 3077   4.746   4.365   3.702
    1TCM     c1 3078   0.952   3.722   0.391
    1TCM    cl1 3079   0.933   3.555   0.332
    1TCM    cl2 3080   0.874   3.835   0.278
    1TCM     h1 3081   0.905   3.731   0.491
    1TCM    cl3 3082   1.125   3.760   0.404
    1TCM     c1 3083   5.127   2.332   5.095
    1TCM    cl1 3084   5.064   2.266   5.248
    1TCM    cl2 3085   5.303   2.355   5.109
    1TCM     h1 3086   5.106   2.261   5.013
    1TCM    cl3 3087   5.049   2.488   5.062
    1TCM     c1 3088   0.994   5.023   2.477
    1TCM    cl1 3089   0.921   5.088   2.625
    1TCM    cl2 3090   0.974   5.140   2.345
    1TCM     h1 3091   1.102   5.004   2.494
    1TCM    cl3 3092   0.914   4.871   2.434
    1TCM     c1 3093   1.014   1.249   4.195
    1TCM    cl1 3094   0.922   1.333   4.321
    1TCM    cl2 3095   0.945   1.288   4.036
    1TCM     h1 3096   1.120   1.282   4.198
    1TCM    cl3 3097   1.006   1.073   4.221
    1TCM     c1 3098   3.914   2.698   4.212
    1TCM    cl1 3099   3.790   2.627   4.106
    1TCM    cl2 3100   3.907   2.619   4.372
    1TCM     h1 3101   4.014   2.683   4.168
    1TCM    cl3 3102   3.882   2.872   4.232
    1TCM     c1 3103   2.295   3.523   5.213
    1TCM    cl1 3104   2.443   3.544   5.117
    1TCM    cl2 3105   2.183   3.414   5.127
    1TCM     h1 3106   2.320   3.480   5.312
    1TCM    cl3 3107   2.217   3.681   5.237
    1TCM     c1 3108   1.430   0.488   1.103
    1TCM    cl1 3109   1.438   0.363   0.976
    1TCM    cl2 3110   1.372   0.641   1.032
    1TCM     h1 3111   1.360   0.455   1.183
    1TCM    cl3 3112   1.592   0.512   1.172
    1TCM     c1 3113   0.413   3.660   0.561
    1TCM    cl1 3114   0.474   3.631   0.396
    1TCM    cl2 3115   0.406   3.506   0.650
    1TCM     h1 3116   0.481   3.729   0.614
    1TCM    cl3 3117   0.250   3.731   0.553
    1TCM     c1 3118   3.219   1.682   3.449
    1TCM    cl1 3119   3.216   1.825   3.343
    1TCM    cl2 3120   3.217   1.535   3.350
    1TCM     h1 3121   3.311   1.684   3.511
    1TCM    cl3 3122   3.076   1.684   3.556
    1TCM     c1 3123   2.851   4.762   0.319
    1TCM    cl1 3124   2.928   4.867   0.198
    1TCM    cl2 3125   2.824   4.601   0.249
    1TCM     h1 3126   2.917   4.754   0.407
    1TCM    cl3 3127   2.695   4.832   0.367
    1TCM     c1 3128   3.742   3.530   3.397
    1TCM    cl1 3129   3.918   3.524   3.421
    1TCM    cl2 3130   3.704   3.642   3.265
    1TCM     h1 3131   3.705   3.428   3.372
    1TCM    cl3 3132   3.664   3.586   3.547
    1TCM     c1 3133   2.954   3.945   0.982
    1TCM    cl1 3134   3.005   4.103   1.047
    1TCM    cl2 3135   2.777   3.941   0.969
    1TCM     h1 3136   3.000   3.930   0.882
    1TCM    cl3 3137   3.008   3.817   1.092
    1TCM     c1 3138   4.482   4.352   1.189
    1TCM    cl1 3139   4.490   4.445   1.038
    1TCM    cl2 3140   4.643   4.286   1.227
    1TCM     h1 3141   4.449   4.417   1.272
    1TCM    cl3 3142   4.367   4.218   1.170
    1TCM     c1 3143   4.573   3.077   0.258
    1TCM    cl1 3144   4.515   3.223   0.341
    1TCM    cl2 3145   4.732   3.031   0.324
    1TCM     h1 3146   4.501   2.994   0.275
    1TCM    cl3 3147   4.588   3.109   0.084
    1TCM     c1 3148   2.928   1.032   2.244
    1TCM    cl1 3149   2.830   0.900   2.310
    1TCM    cl2 3150   2.837   1.115   2.116
    1TCM     h1 3151   2.952   1.104   2.325
    1TCM    cl3 3152   3.079   0.967   2.176
    1TCM     c1 3153   3.445   4.582   2.994
    1TCM    cl1 3154   3.465   4.724   2.888
    1TCM    cl2 3155   3.356   4.630   3.141
    1TCM     h1 3156   3.388   4.503   2.940
    1TCM    cl3 3157   3.605   4.519   3.039
    1TCM     c1 3158   3.726   3.479   3.939
    1TCM    cl1 3159   3.819   3.578   4.054
    1TCM    cl2 3160   3.740   3.307   3.983
    1TCM     h1 3161   3.619   3.510   3.942
    1TCM    cl3 3162   3.790   3.503   3.775
    1TCM     c1 3163   4.172   0.315   0.213
    1TCM    cl1 3164   4.320   0.303   0.310
    1TCM    cl2 3165   4.201   0.248   0.051
    1TCM     h1 3166   4.091   0.257   0.262
    1TCM    cl3 3167   4.123   0.485   0.199
    1TCM     c1 3168   3.264   3.173   3.466
    1TCM    cl1 3169   3.371   3.101   3.589
    1TCM    cl2 3170   3.337   3.154   3.305
    1TCM     h1 3171   3.165   3.122   3.468
    1TCM    cl3 3172   3.241   3.346   3.502
    1TCM     c1 3173   0.660   2.614   1.918
    1TCM    cl1 3174   0.784   2.693   1.819
    1TCM    cl2 3175   0.636   2.448   1.861
    1TCM     h1 3176   0.693   2.612   2.024
    1TCM    cl3 3177   0.507   2.704   1.905
    1TCM     c1 3178   5.194   4.295   3.021
    1TCM    cl1 3179   5.204   4.454   2.942
    1TCM    cl2 3180   5.246   4.309   3.191
    1TCM     h1 3181   5.090   4.258   3.017
    1TCM    cl3 3182   5.301   4.180   2.936
    1TCM     c1 3183   2.318   3.523   1.560
    1TCM    cl1 3184   2.438   3.479   1.436
    1TCM    cl2 3185   2.394   3.518   1.720
    1TCM     h1 3186   2.281   3.626   1.540
    1TCM    cl3 3187   2.183   3.408   1.554
    1TCM     c1 3188   5.088   1.371   2.445
    1TCM    cl1 3189   5.131   1.502   2.333
    1TCM    cl2 3190   5.237   1.294   2.505
    1TCM     h1 3191   5.031   1.413   2.530
    1TCM    cl3 3192   4.989   1.250   2.360
    1TCM     c1 3193   4.194   3.119   3.998
    1TCM    cl1 3194   4.037   3.060   4.058
    1TCM    cl2 3195   4.316   2.992   4.019
    1TCM     h1 3196   4.185   3.145   3.891
    1TCM    cl3 3197   4.242   3.263   4.090
    1TCM     c1 3198   1.609   3.548   3.477
    1TCM    cl1 3199   1.661   3.655   3.345
    1TCM    cl2 3200   1.630   3.378   3.427
    1TCM     h1 3201   1.670   3.568   3.567
    1TCM    cl3 3202   1.438   3.578   3.514
    1TCM     c1 3203   2.554   3.266   2.630
    1TCM    cl1 3204   2.456   3.181   2.752
    1TCM    cl2 3205   2.725   3.263   2.679
    1TCM     h1 3206   2.543   3.215   2.532
    1TCM    cl3 3207   2.499   3.434   2.616
    1TCM     c1 3208   1.895   2.892   0.172
    1TCM    cl1 3209   1.796   2.781   0.270
    1TCM    cl2 3210   1.874   2.855   0.000
    1TCM     h1 3211   1.864   2.997   0.192
    1TCM    cl3 3212   2.067   2.873   0.216
    1TCM     c1 3213   4.823   0.836   2.890
    1TCM    cl1 3214   4.777   0.671   2.937
    1TCM    cl2 3215   4.724   0.888   2.752
    1TCM     h1 3216   4.807   0.905   2.975
    1TCM    cl3 3217   4.995   0.838   2.843
    1TCM     c1 3218   4.889   2.047   1.275
    1TCM    cl1 3219   4.762   2.017   1.154
    1TCM    cl2 3220   4.845   2.189   1.373
    1TCM     h1 3221   4.899   1.959   1.341
    1TCM    cl3 3222   5.044   2.078   1.193
    1TCM     c1 3223   3.205   4.079   0.414
    1TCM    cl1 3224   3.256   3.921   0.476
    1TCM    cl2 3225   3.233   4.085   0.238
    1TCM     h1 3226   3.098   4.094   0.435
    1TCM    cl3 3227   3.300   4.207   0.493
    1TCM     c1 3228   2.739   4.026   3.595
    1TCM    cl1 3229   2.824   3.998   3.749
    1TCM    cl2 3230   2.842   3.972   3.460
    1TCM     h1 3231   2.644   3.969   3.594
    1TCM    cl3 3232   2.704   4.200   3.577
    1TCM     c1 3233   2.043   4.557   2.221
    1TCM    cl1 3234   2.067   4.390   2.167
    1TCM    cl2 3235   2.006   4.559   2.395
    1TCM     h1 3236   2.136   4.615   2.203
    1TCM    cl3 3237   1.909   4.631   2.131
    1TCM     c1 3238   1.528   1.921   0.617
    1TCM    cl1 3239   1.407   1.844   0.722
    1TCM    cl2 3240   1.473   1.915   0.448
    1TCM     h1 3241   1.542   2.027   0.648
    1TCM    cl3 3242   1.683   1.834   0.632
    1TCM     c1 3243   0.277   2.832   4.381
    1TCM    cl1 3244   0.312   2.998   4.325
    1TCM    cl2 3245   0.315   2.717   4.251
    1TCM     h1 3246   0.340   2.809   4.470
    1TCM    cl3 3247   0.105   2.819   4.424
    1TCM     c1 3248   0.502   1.615   4.678
    1TCM    cl1 3249   0.551   1.765   4.759
    1TCM    cl2 3250   0.584   1.476   4.753
    1TCM     h1 3251   0.392   1.602   4.687
    1TCM    cl3 3252   0.547   1.623   4.506
    1TCM     c1 3253   5.033   2.940   0.629
    1TCM    cl1 3254   5.006   2.950   0.805
    1TCM    cl2 3255   5.042   2.770   0.580
    1TCM     h1 3256   4.949   2.990   0.576
    1TCM    cl3 3257   5.185   3.022   0.588
    1TCM     c1 3258   2.219   4.215   4.836
    1TCM    cl1 3259   2.272   4.064   4.913
    1TCM    cl2 3260   2.223   4.347   4.956
    1TCM     h1 3261   2.288   4.240   4.752
    1TCM    cl3 3262   2.054   4.196   4.774
    1TCM     c1 3263   3.078   3.457   3.253
    1TCM    cl1 3264   2.914   3.464   3.187
    1TCM    cl2 3265   3.160   3.613   3.226
    1TCM     h1 3266   3.073   3.437   3.362
    1TCM    cl3 3267   3.170   3.328   3.173
    1TCM     c1 3268   2.963   4.382   0.392
    1TCM    cl1 3269   2.978   4.259   0.520
    1TCM    cl2 3270   3.102   4.372   0.283
    1TCM     h1 3271   2.869   4.364   0.335
    1TCM    cl3 3272   2.956   4.543   0.467
    1TCM     c1 3273   3.451   4.479   0.470
    1TCM    cl1 3274   3.479   4.354   0.346
    1TCM    cl2 3275   3.510   4.420   0.627
    1TCM     h1 3276   3.506   4.571   0.442
    1TCM    cl3 3277   3.278   4.514   0.481
    1TCM     c1 3278   2.331   3.763   1.039
    1TCM    cl1 3279   2.481   3.859   1.041
    1TCM    cl2 3280   2.292   3.711   1.204
    1TCM     h1 3281   2.248   3.826   0.999
    1TCM    cl3 3282   2.353   3.621   0.935
    1TCM     c1 3283   4.096   3.936   3.741
    1TCM    cl1 3284   4.168   3.882   3.588
    1TCM    cl2 3285   4.226   3.973   3.857
    1TCM     h1 3286   4.035   4.027   3.724
    1TCM    cl3 3287   3.993   3.807   3.807
    1TCM     c1 3288   5.219   4.780   4.201
    1TCM    cl1 3289   5.065   4.742   4.121
    1TCM    cl2 3290   5.187   4.839   4.366
    1TCM     h1 3291   5.282   4.689   4.206
    1TCM    cl3 3292   5.304   4.906   4.109
    1TCM     c1 3293   4.210   0.353   3.543
    1TCM    cl1 3294   4.240   0.212   3.647
    1TCM    cl2 3295   4.057   0.430   3.589
    1TCM     h1 3296   4.293   0.426   3.555
    1TCM    cl3 3297   4.202   0.301   3.373
    1TCM     c1 3298   2.473   2.680   3.444
    1TCM    cl1 3299   2.444   2.783   3.303
    1TCM    cl2 3300   2.446   2.773   3.593
    1TCM     h1 3301   2.403   2.593   3.442
    1TCM    cl3 3302   2.640   2.620   3.442
    1TCM     c1 3303   5.022   4.584   2.605
    1TCM    cl1 3304   4.987   4.706   2.730
    1TCM    cl2 3305   5.000   4.421   2.672
    1TCM     h1 3306   4.953   4.599   2.519
    1TCM    cl3 3307   5.190   4.604   2.549
    1TCM     c1 3308   2.386   0.840   2.065
    1TCM    cl1 3309   2.293   0.726   1.965
    1TCM    cl2 3310   2.391   0.781   2.233
    1TCM     h1 3311   2.489   0.848   2.025
    1TCM    cl3 3312   2.308   1.000   2.060
    1TCM     c1 3313   0.277   2.364   3.077
    1TCM    cl1 3314   0.160   2.347   2.944
    1TCM    cl2 3315   0.320   2.202   3.139
    1TCM     h1 3316   0.369   2.414   3.040
    1TCM    cl3 3317   0.206   2.460   3.208
    1TCM     c1 3318   1.099   4.056   1.113
    1TCM    cl1 3319   1.102   4.056   0.935
    1TCM    cl2 3320   1.232   3.954   1.174
    1TCM     h1 3321   1.111   4.159   1.150
    1TCM    cl3 3322   0.944   3.990   1.169
    1TCM     c1 3323   2.665   3.017   0.721
    1TCM    cl1 3324   2.704   3.084   0.561
    1TCM    cl2 3325   2.578   3.139   0.817
    1TCM     h1 3326   2.601   2.927   0.709
    1TCM    cl3 3327   2.815   2.971   0.805
    1TCM     c1 3328   1.197   2.255   4.615
    1TCM    cl1 3329   1.325   2.144   4.669
    1TCM    cl2 3330   1.047   2.221   4.705
    1TCM     h1 3331   1.229   2.360   4.634
    1TCM    cl3 3332   1.168   2.233   4.441
    1TCM     c1 3333   5.077   2.179   3.242
    1TCM    cl1 3334   4.998   2.303   3.342
    1TCM    cl2 3335   5.092   2.237   3.075
    1TCM     h1 3336   5.178   2.157   3.282
    1TCM    cl3 3337   4.980   2.030   3.244
    1TCM     c1 3338   2.501   1.014   3.494
    1TCM    cl1 3339   2.630   1.016   3.372
    1TCM    cl2 3340   2.564   1.077   3.648
    1TCM     h1 3341   2.417   1.078   3.460
    1TCM    cl3 3342   2.444   0.847   3.517
    1TCM     c1 3343   5.074   1.021   2.252
    1TCM    cl1 3344   5.194   1.145   2.211
    1TCM    cl2 3345   5.131   0.862   2.195
    1TCM     h1 3346   5.060   1.018   2.362
    1TCM    cl3 3347   4.919   1.059   2.173
    1TCM     c1 3348   3.975   0.489   4.530
    1TCM    cl1 3349   3.832   0.444   4.626
    1TCM    cl2 3350   4.003   0.665   4.543
    1TCM     h1 3351   4.064   0.435   4.567
    1TCM    cl3 3352   3.946   0.447   4.359
    1TCM     c1 3353   5.110   0.885   5.066
    1TCM    cl1 3354   5.205   0.802   4.940
    1TCM    cl2 3355   5.188   0.861   5.224
    1TCM     h1 3356   5.105   0.993   5.043
    1TCM    cl3 3357   4.946   0.817   5.070
    1TCM     c1 3358   2.958   0.674   1.695
    1TCM    cl1 3359   3.107   0.673   1.793
    1TCM    cl2 3360   2.839   0.784   1.768
    1TCM     h1 3361   2.982   0.708   1.592
    1TCM    cl3 3362   2.891   0.509   1.689
    1TCM     c1 3363   2.124   1.387   3.823
    1TCM    cl1 3364   2.134   1.398   4.000
    1TCM    cl2 3365   2.136   1.217   3.774
    1TCM     h1 3366   2.027   1.429   3.789
    1TCM    cl3 3367   2.258   1.479   3.750
   5.54000   5.54000   5.54000
