;
;   File mop_tetramer_system_openff_hmr.top  was generated
;   By user: tlf3 (1000)
;   On host:647TRCJM3 
;   At date:Tue. September  2 15:18:58 2025 
;
;   This is a standalone topology file
;
;   Created by:
;   ParmEd:       hmr_topology, VERSION4.3.0 
;   Executable:   hmr_topology
;   Library dir:  /home/tlf3/miniforge3/envs/terphenyl/share/gromacs/top
;   Command line:
;     hmr_topology -t mop_tetramer_system_openff.top -o mop_tetramer_system_openff_hmr.top --hmr_ratio 3
;

[ defaults ]
; nbfunc        comb-rule       gen-pairs       fudgeLJ fudgeQQ
1               2               yes             0.5          0.833333    

[ atomtypes ]
; name    at.num    mass    charge ptype  sigma      epsilon
em_mop_tetramer_0        6  12.010780  0.00000000  A     0.34806469     0.36350306
em_mop_tetramer_1        8  15.999430  0.00000000  A     0.30398122     0.87950233
em_mop_tetramer_2        6  12.010780  0.00000000  A     0.34806469     0.36350306
em_mop_tetramer_3        6  12.010780  0.00000000  A     0.34806469     0.36350306
em_mop_tetramer_4        6  12.010780  0.00000000  A     0.34806469     0.36350306
em_mop_tetramer_5        6  12.010780  0.00000000  A     0.34806469     0.36350306
em_mop_tetramer_6        6  12.010780  0.00000000  A     0.34806469     0.36350306
em_mop_tetramer_7        6  12.010780  0.00000000  A     0.34806469     0.36350306
em_mop_tetramer_8        6  12.010780  0.00000000  A     0.34806469     0.36350306
em_mop_tetramer_9        6  12.010780  0.00000000  A     0.34806469     0.36350306
em_mop_tetramer_10        8  15.999430  0.00000000  A     0.30251065     0.70485815
em_mop_tetramer_11        6  12.010780  0.00000000  A     0.33996695      0.4577296
em_mop_tetramer_12        6  12.010780  0.00000000  A     0.34806469     0.36350306
em_mop_tetramer_13        6  12.010780  0.00000000  A     0.34806469     0.36350306
em_mop_tetramer_14        6  12.010780  0.00000000  A     0.34806469     0.36350306
em_mop_tetramer_15        6  12.010780  0.00000000  A     0.34806469     0.36350306
em_mop_tetramer_16        6  12.010780  0.00000000  A     0.34806469     0.36350306
em_mop_tetramer_17        6  12.010780  0.00000000  A     0.34806469     0.36350306
em_mop_tetramer_18        6  12.010780  0.00000000  A     0.34806469     0.36350306
em_mop_tetramer_19        6  12.010780  0.00000000  A     0.34806469     0.36350306
em_mop_tetramer_20        6  12.010780  0.00000000  A     0.33996695      0.4577296
em_mop_tetramer_21        7  14.006720  0.00000000  A      0.3206876      0.7016213
em_mop_tetramer_22        6  12.010780  0.00000000  A     0.33996695      0.4577296
em_mop_tetramer_23        6  12.010780  0.00000000  A     0.34806469     0.36350306
em_mop_tetramer_24        6  12.010780  0.00000000  A     0.34806469     0.36350306
em_mop_tetramer_25        1   1.007947  0.00000000  A     0.25725815     0.06531786
em_mop_tetramer_26        1   1.007947  0.00000000  A     0.25725815     0.06531786
em_mop_tetramer_27        1   1.007947  0.00000000  A     0.25725815     0.06531786
em_mop_tetramer_28        1   1.007947  0.00000000  A     0.25832257    0.068656285
em_mop_tetramer_29        1   1.007947  0.00000000  A     0.25832257    0.068656285
em_mop_tetramer_30        1   1.007947  0.00000000  A     0.25832257    0.068656285
em_mop_tetramer_31        1   1.007947  0.00000000  A     0.25725815     0.06531786
em_mop_tetramer_32        1   1.007947  0.00000000  A     0.25725815     0.06531786
em_mop_tetramer_33        1   1.007947  0.00000000  A     0.25725815     0.06531786
em_mop_tetramer_34        1   1.007947  0.00000000  A     0.25725815     0.06531786
em_mop_tetramer_35        1   1.007947  0.00000000  A     0.25725815     0.06531786
em_mop_tetramer_36        1   1.007947  0.00000000  A     0.25725815     0.06531786
em_mop_tetramer_37        1   1.007947  0.00000000  A     0.25832257    0.068656285
em_mop_tetramer_38        1   1.007947  0.00000000  A     0.11034277    0.058955969
em_mop_tetramer_39        1   1.007947  0.00000000  A     0.26445434    0.066021356
em_mop_tetramer_40        1   1.007947  0.00000000  A     0.26445434    0.066021356
em_mop_tetramer_41        1   1.007947  0.00000000  A     0.26445434    0.066021356
em_mop_tetramer_42        1   1.007947  0.00000000  A     0.25725815     0.06531786
em_mop_tetramer_43        1   1.007947  0.00000000  A     0.25725815     0.06531786
em_mop_tetramer_44        6  12.010780  0.00000000  A     0.34806469     0.36350306
em_mop_tetramer_45        8  15.999430  0.00000000  A     0.30398122     0.87950233
em_mop_tetramer_46        6  12.010780  0.00000000  A     0.34806469     0.36350306
em_mop_tetramer_47        6  12.010780  0.00000000  A     0.34806469     0.36350306
em_mop_tetramer_48        6  12.010780  0.00000000  A     0.34806469     0.36350306
em_mop_tetramer_49        6  12.010780  0.00000000  A     0.34806469     0.36350306
em_mop_tetramer_50        6  12.010780  0.00000000  A     0.34806469     0.36350306
em_mop_tetramer_51        6  12.010780  0.00000000  A     0.34806469     0.36350306
em_mop_tetramer_52        6  12.010780  0.00000000  A     0.34806469     0.36350306
em_mop_tetramer_53        6  12.010780  0.00000000  A     0.34806469     0.36350306
em_mop_tetramer_54        8  15.999430  0.00000000  A     0.30251065     0.70485815
em_mop_tetramer_55        6  12.010780  0.00000000  A     0.33996695      0.4577296
em_mop_tetramer_56        6  12.010780  0.00000000  A     0.34806469     0.36350306
em_mop_tetramer_57        6  12.010780  0.00000000  A     0.34806469     0.36350306
em_mop_tetramer_58        6  12.010780  0.00000000  A     0.34806469     0.36350306
em_mop_tetramer_59        6  12.010780  0.00000000  A     0.34806469     0.36350306
em_mop_tetramer_60        6  12.010780  0.00000000  A     0.34806469     0.36350306
em_mop_tetramer_61        6  12.010780  0.00000000  A     0.34806469     0.36350306
em_mop_tetramer_62        6  12.010780  0.00000000  A     0.34806469     0.36350306
em_mop_tetramer_63        6  12.010780  0.00000000  A     0.34806469     0.36350306
em_mop_tetramer_64        6  12.010780  0.00000000  A     0.33996695      0.4577296
em_mop_tetramer_65        7  14.006720  0.00000000  A      0.3206876      0.7016213
em_mop_tetramer_66        6  12.010780  0.00000000  A     0.33996695      0.4577296
em_mop_tetramer_67        6  12.010780  0.00000000  A     0.34806469     0.36350306
em_mop_tetramer_68        6  12.010780  0.00000000  A     0.34806469     0.36350306
em_mop_tetramer_69        1   1.007947  0.00000000  A     0.25725815     0.06531786
em_mop_tetramer_70        1   1.007947  0.00000000  A     0.25725815     0.06531786
em_mop_tetramer_71        1   1.007947  0.00000000  A     0.25725815     0.06531786
em_mop_tetramer_72        1   1.007947  0.00000000  A     0.25832257    0.068656285
em_mop_tetramer_73        1   1.007947  0.00000000  A     0.25832257    0.068656285
em_mop_tetramer_74        1   1.007947  0.00000000  A     0.25832257    0.068656285
em_mop_tetramer_75        1   1.007947  0.00000000  A     0.25725815     0.06531786
em_mop_tetramer_76        1   1.007947  0.00000000  A     0.25725815     0.06531786
em_mop_tetramer_77        1   1.007947  0.00000000  A     0.25725815     0.06531786
em_mop_tetramer_78        1   1.007947  0.00000000  A     0.25725815     0.06531786
em_mop_tetramer_79        1   1.007947  0.00000000  A     0.25725815     0.06531786
em_mop_tetramer_80        1   1.007947  0.00000000  A     0.25725815     0.06531786
em_mop_tetramer_81        1   1.007947  0.00000000  A     0.25832257    0.068656285
em_mop_tetramer_82        1   1.007947  0.00000000  A     0.11034277    0.058955969
em_mop_tetramer_83        1   1.007947  0.00000000  A     0.26445434    0.066021356
em_mop_tetramer_84        1   1.007947  0.00000000  A     0.26445434    0.066021356
em_mop_tetramer_85        1   1.007947  0.00000000  A     0.26445434    0.066021356
em_mop_tetramer_86        1   1.007947  0.00000000  A     0.25725815     0.06531786
em_mop_tetramer_87        1   1.007947  0.00000000  A     0.25725815     0.06531786
em_mop_tetramer_88        6  12.010780  0.00000000  A     0.34806469     0.36350306
em_mop_tetramer_89        8  15.999430  0.00000000  A     0.30398122     0.87950233
em_mop_tetramer_90        6  12.010780  0.00000000  A     0.34806469     0.36350306
em_mop_tetramer_91        6  12.010780  0.00000000  A     0.34806469     0.36350306
em_mop_tetramer_92        6  12.010780  0.00000000  A     0.34806469     0.36350306
em_mop_tetramer_93        6  12.010780  0.00000000  A     0.34806469     0.36350306
em_mop_tetramer_94        6  12.010780  0.00000000  A     0.34806469     0.36350306
em_mop_tetramer_95        6  12.010780  0.00000000  A     0.34806469     0.36350306
em_mop_tetramer_96        6  12.010780  0.00000000  A     0.34806469     0.36350306
em_mop_tetramer_97        6  12.010780  0.00000000  A     0.34806469     0.36350306
em_mop_tetramer_98        8  15.999430  0.00000000  A     0.30251065     0.70485815
em_mop_tetramer_99        6  12.010780  0.00000000  A     0.33996695      0.4577296
em_mop_tetramer_100        6  12.010780  0.00000000  A     0.34806469     0.36350306
em_mop_tetramer_101        6  12.010780  0.00000000  A     0.34806469     0.36350306
em_mop_tetramer_102        6  12.010780  0.00000000  A     0.34806469     0.36350306
em_mop_tetramer_103        6  12.010780  0.00000000  A     0.34806469     0.36350306
em_mop_tetramer_104        6  12.010780  0.00000000  A     0.34806469     0.36350306
em_mop_tetramer_105        6  12.010780  0.00000000  A     0.34806469     0.36350306
em_mop_tetramer_106        6  12.010780  0.00000000  A     0.34806469     0.36350306
em_mop_tetramer_107        6  12.010780  0.00000000  A     0.34806469     0.36350306
em_mop_tetramer_108        6  12.010780  0.00000000  A     0.33996695      0.4577296
em_mop_tetramer_109        7  14.006720  0.00000000  A      0.3206876      0.7016213
em_mop_tetramer_110        6  12.010780  0.00000000  A     0.33996695      0.4577296
em_mop_tetramer_111        6  12.010780  0.00000000  A     0.34806469     0.36350306
em_mop_tetramer_112        6  12.010780  0.00000000  A     0.34806469     0.36350306
em_mop_tetramer_113        1   1.007947  0.00000000  A     0.25725815     0.06531786
em_mop_tetramer_114        1   1.007947  0.00000000  A     0.25725815     0.06531786
em_mop_tetramer_115        1   1.007947  0.00000000  A     0.25725815     0.06531786
em_mop_tetramer_116        1   1.007947  0.00000000  A     0.25832257    0.068656285
em_mop_tetramer_117        1   1.007947  0.00000000  A     0.25832257    0.068656285
em_mop_tetramer_118        1   1.007947  0.00000000  A     0.25832257    0.068656285
em_mop_tetramer_119        1   1.007947  0.00000000  A     0.25725815     0.06531786
em_mop_tetramer_120        1   1.007947  0.00000000  A     0.25725815     0.06531786
em_mop_tetramer_121        1   1.007947  0.00000000  A     0.25725815     0.06531786
em_mop_tetramer_122        1   1.007947  0.00000000  A     0.25725815     0.06531786
em_mop_tetramer_123        1   1.007947  0.00000000  A     0.25725815     0.06531786
em_mop_tetramer_124        1   1.007947  0.00000000  A     0.25725815     0.06531786
em_mop_tetramer_125        1   1.007947  0.00000000  A     0.25832257    0.068656285
em_mop_tetramer_126        1   1.007947  0.00000000  A     0.11034277    0.058955969
em_mop_tetramer_127        1   1.007947  0.00000000  A     0.26445434    0.066021356
em_mop_tetramer_128        1   1.007947  0.00000000  A     0.26445434    0.066021356
em_mop_tetramer_129        1   1.007947  0.00000000  A     0.26445434    0.066021356
em_mop_tetramer_130        1   1.007947  0.00000000  A     0.25725815     0.06531786
em_mop_tetramer_131        1   1.007947  0.00000000  A     0.25725815     0.06531786
em_mop_tetramer_132        6  12.010780  0.00000000  A     0.34806469     0.36350306
em_mop_tetramer_133        8  15.999430  0.00000000  A     0.30398122     0.87950233
em_mop_tetramer_134        6  12.010780  0.00000000  A     0.34806469     0.36350306
em_mop_tetramer_135        6  12.010780  0.00000000  A     0.34806469     0.36350306
em_mop_tetramer_136        6  12.010780  0.00000000  A     0.34806469     0.36350306
em_mop_tetramer_137        6  12.010780  0.00000000  A     0.34806469     0.36350306
em_mop_tetramer_138        6  12.010780  0.00000000  A     0.34806469     0.36350306
em_mop_tetramer_139        6  12.010780  0.00000000  A     0.34806469     0.36350306
em_mop_tetramer_140        6  12.010780  0.00000000  A     0.34806469     0.36350306
em_mop_tetramer_141        6  12.010780  0.00000000  A     0.34806469     0.36350306
em_mop_tetramer_142        8  15.999430  0.00000000  A     0.30251065     0.70485815
em_mop_tetramer_143        6  12.010780  0.00000000  A     0.33996695      0.4577296
em_mop_tetramer_144        6  12.010780  0.00000000  A     0.34806469     0.36350306
em_mop_tetramer_145        6  12.010780  0.00000000  A     0.34806469     0.36350306
em_mop_tetramer_146        6  12.010780  0.00000000  A     0.34806469     0.36350306
em_mop_tetramer_147        6  12.010780  0.00000000  A     0.34806469     0.36350306
em_mop_tetramer_148        6  12.010780  0.00000000  A     0.34806469     0.36350306
em_mop_tetramer_149        6  12.010780  0.00000000  A     0.34806469     0.36350306
em_mop_tetramer_150        6  12.010780  0.00000000  A     0.34806469     0.36350306
em_mop_tetramer_151        6  12.010780  0.00000000  A     0.34806469     0.36350306
em_mop_tetramer_152        6  12.010780  0.00000000  A     0.33996695      0.4577296
em_mop_tetramer_153        7  14.006720  0.00000000  A      0.3206876      0.7016213
em_mop_tetramer_154        6  12.010780  0.00000000  A     0.33996695      0.4577296
em_mop_tetramer_155        6  12.010780  0.00000000  A     0.34806469     0.36350306
em_mop_tetramer_156        6  12.010780  0.00000000  A     0.34806469     0.36350306
em_mop_tetramer_157        1   1.007947  0.00000000  A     0.25725815     0.06531786
em_mop_tetramer_158        1   1.007947  0.00000000  A     0.25725815     0.06531786
em_mop_tetramer_159        1   1.007947  0.00000000  A     0.25725815     0.06531786
em_mop_tetramer_160        1   1.007947  0.00000000  A     0.25832257    0.068656285
em_mop_tetramer_161        1   1.007947  0.00000000  A     0.25832257    0.068656285
em_mop_tetramer_162        1   1.007947  0.00000000  A     0.25832257    0.068656285
em_mop_tetramer_163        1   1.007947  0.00000000  A     0.25725815     0.06531786
em_mop_tetramer_164        1   1.007947  0.00000000  A     0.25725815     0.06531786
em_mop_tetramer_165        1   1.007947  0.00000000  A     0.25725815     0.06531786
em_mop_tetramer_166        1   1.007947  0.00000000  A     0.25725815     0.06531786
em_mop_tetramer_167        1   1.007947  0.00000000  A     0.25725815     0.06531786
em_mop_tetramer_168        1   1.007947  0.00000000  A     0.25725815     0.06531786
em_mop_tetramer_169        1   1.007947  0.00000000  A     0.25832257    0.068656285
em_mop_tetramer_170        1   1.007947  0.00000000  A     0.11034277    0.058955969
em_mop_tetramer_171        1   1.007947  0.00000000  A     0.26445434    0.066021356
em_mop_tetramer_172        1   1.007947  0.00000000  A     0.26445434    0.066021356
em_mop_tetramer_173        1   1.007947  0.00000000  A     0.26445434    0.066021356
em_mop_tetramer_174        1   1.007947  0.00000000  A     0.25725815     0.06531786
em_mop_tetramer_175        1   1.007947  0.00000000  A     0.25725815     0.06531786
em_mop_tetramer_176        6  12.010780  0.00000000  A     0.33996695      0.4577296
em_mop_tetramer_177        8  15.999430  0.00000000  A     0.30251065     0.70485815
em_mop_tetramer_178        1   1.007947  0.00000000  A     0.25832257    0.068656285
em_mop_tetramer_179        1   1.007947  0.00000000  A     0.25832257    0.068656285
em_mop_tetramer_180        1   1.007947  0.00000000  A     0.25832257    0.068656285
em_mop_tetramer_181        6  12.010780  0.00000000  A     0.33996695      0.4577296
em_mop_tetramer_182        6  12.010780  0.00000000  A     0.33996695      0.4577296
em_mop_tetramer_183        6  12.010780  0.00000000  A     0.33996695      0.4577296
em_mop_tetramer_184        6  12.010780  0.00000000  A     0.33996695      0.4577296
em_mop_tetramer_185        8  15.999430  0.00000000  A     0.30251065     0.70485815
em_mop_tetramer_186        6  12.010780  0.00000000  A     0.34806469     0.36350306
em_mop_tetramer_187        8  15.999430  0.00000000  A     0.30398122     0.87950233
em_mop_tetramer_188        1   1.007947  0.00000000  A     0.26445434    0.066021356
em_mop_tetramer_189        1   1.007947  0.00000000  A     0.26445434    0.066021356
em_mop_tetramer_190        1   1.007947  0.00000000  A     0.26445434    0.066021356
em_mop_tetramer_191        1   1.007947  0.00000000  A     0.26445434    0.066021356
em_mop_tetramer_192        1   1.007947  0.00000000  A     0.26445434    0.066021356
em_mop_tetramer_193        1   1.007947  0.00000000  A     0.26445434    0.066021356
em_mop_tetramer_194        1   1.007947  0.00000000  A     0.26445434    0.066021356
em_mop_tetramer_195        1   1.007947  0.00000000  A     0.26445434    0.066021356
em_mop_tetramer_196        1   1.007947  0.00000000  A     0.26445434    0.066021356
TCM_0          6  12.010780  0.00000000  A     0.33996695      0.4577296
TCM_1         17  35.453200  0.00000000  A     0.34709414        1.10876
TCM_2         17  35.453200  0.00000000  A     0.34709414        1.10876
TCM_3          1   1.007947  0.00000000  A     0.21149936      0.0656888
TCM_4         17  35.453200  0.00000000  A     0.34709414        1.10876


[ moleculetype ]
; Name            nrexcl
system1          3

[ atoms ]
;   nr       type  resnr residue  atom   cgnr    charge       mass  typeB    chargeB      massB
; residue    1 MOP rtp MOP q 0.1
    1 em_mop_tetramer_0      1    MOP     C1      1 0.64933002  12.010780   ; qtot 0.649330
    2 em_mop_tetramer_1      1    MOP     O2      2 -0.54383999  15.999430   ; qtot 0.105490
    3 em_mop_tetramer_2      1    MOP     C3      3 -0.14325000  12.010780   ; qtot -0.037760
    4 em_mop_tetramer_3      1    MOP     C4      4 -0.07630000   9.994886   ; qtot -0.114060
    5 em_mop_tetramer_4      1    MOP     C5      5 -0.13141000   9.994886   ; qtot -0.245470
    6 em_mop_tetramer_5      1    MOP     C6      6 0.00510000  12.010780   ; qtot -0.240370
    7 em_mop_tetramer_6      1    MOP     C7      7 -0.07715000  12.010780   ; qtot -0.317520
    8 em_mop_tetramer_7      1    MOP     C8      8 0.00864000  12.010780   ; qtot -0.308880
    9 em_mop_tetramer_8      1    MOP     C9      9 -0.19665000   9.994886   ; qtot -0.505530
   10 em_mop_tetramer_9      1    MOP    C10     10 0.12570000  12.010780   ; qtot -0.379830
   11 em_mop_tetramer_10      1    MOP    O11     11 -0.32815000  15.999430   ; qtot -0.707980
   12 em_mop_tetramer_11      1    MOP    C12     12 0.11075000   5.963098   ; qtot -0.597230
   13 em_mop_tetramer_12      1    MOP    C13     13 -0.15124001   9.994886   ; qtot -0.748470
   14 em_mop_tetramer_13      1    MOP    C14     14 -0.07946000   9.994886   ; qtot -0.827930
   15 em_mop_tetramer_14      1    MOP    C15     15 -0.04218000  12.010780   ; qtot -0.870110
   16 em_mop_tetramer_15      1    MOP    C16     16 -0.11036000   9.994886   ; qtot -0.980470
   17 em_mop_tetramer_16      1    MOP    C17     17 -0.12831999   9.994886   ; qtot -1.108790
   18 em_mop_tetramer_17      1    MOP    C18     18 -0.11153000   9.994886   ; qtot -1.220320
   19 em_mop_tetramer_18      1    MOP    C19     19 -0.10434000  12.010780   ; qtot -1.324660
   20 em_mop_tetramer_19      1    MOP    C20     20 -0.10497000   9.994886   ; qtot -1.429630
   21 em_mop_tetramer_20      1    MOP    C21     21 0.14715999   9.994886   ; qtot -1.282470
   22 em_mop_tetramer_21      1    MOP    N22     22 -0.56515998  11.990826   ; qtot -1.847630
   23 em_mop_tetramer_22      1    MOP    C23     23 -0.10349000   5.963098   ; qtot -1.951120
   24 em_mop_tetramer_23      1    MOP    C24     24 -0.13141000   9.994886   ; qtot -2.082530
   25 em_mop_tetramer_24      1    MOP    C25     25 -0.07630000   9.994886   ; qtot -2.158830
   26 em_mop_tetramer_25      1    MOP    H26     26 0.15394001   3.023841   ; qtot -2.004890
   27 em_mop_tetramer_26      1    MOP    H27     27 0.14586000   3.023841   ; qtot -1.859030
   28 em_mop_tetramer_27      1    MOP    H28     28 0.14647999   3.023841   ; qtot -1.712550
   29 em_mop_tetramer_28      1    MOP    H29     29 0.04611000   3.023841   ; qtot -1.666440
   30 em_mop_tetramer_29      1    MOP    H30     30 0.04611000   3.023841   ; qtot -1.620330
   31 em_mop_tetramer_30      1    MOP    H31     31 0.04611000   3.023841   ; qtot -1.574220
   32 em_mop_tetramer_31      1    MOP    H32     32 0.15284000   3.023841   ; qtot -1.421380
   33 em_mop_tetramer_32      1    MOP    H33     33 0.14597000   3.023841   ; qtot -1.275410
   34 em_mop_tetramer_33      1    MOP    H34     34 0.13710000   3.023841   ; qtot -1.138310
   35 em_mop_tetramer_34      1    MOP    H35     35 0.13449000   3.023841   ; qtot -1.003820
   36 em_mop_tetramer_35      1    MOP    H36     36 0.13531999   3.023841   ; qtot -0.868500
   37 em_mop_tetramer_36      1    MOP    H37     37 0.13063000   3.023841   ; qtot -0.737870
   38 em_mop_tetramer_37      1    MOP    H38     38 0.08940000   3.023841   ; qtot -0.648470
   39 em_mop_tetramer_38      1    MOP    H39     39 0.30158001   3.023841   ; qtot -0.346890
   40 em_mop_tetramer_39      1    MOP    H40     40 0.04602000   3.023841   ; qtot -0.300870
   41 em_mop_tetramer_40      1    MOP    H41     41 0.04602000   3.023841   ; qtot -0.254850
   42 em_mop_tetramer_41      1    MOP    H42     42 0.04602000   3.023841   ; qtot -0.208830
   43 em_mop_tetramer_42      1    MOP    H43     43 0.14586000   3.023841   ; qtot -0.062970
   44 em_mop_tetramer_43      1    MOP    H44     44 0.15394001   3.023841   ; qtot 0.090970
; residue    2 MOP rtp MOP q 0.0
   45 em_mop_tetramer_44      2    MOP    C45     45 0.67418998  12.010780   ; qtot 0.765160
   46 em_mop_tetramer_45      2    MOP    O46     46 -0.59772998  15.999430   ; qtot 0.167430
   47 em_mop_tetramer_46      2    MOP    C47     47 -0.14286999  12.010780   ; qtot 0.024560
   48 em_mop_tetramer_47      2    MOP    C48     48 -0.09382000   9.994886   ; qtot -0.069260
   49 em_mop_tetramer_48      2    MOP    C49     49 -0.12639000   9.994886   ; qtot -0.195650
   50 em_mop_tetramer_49      2    MOP    C50     50 -0.00662000  12.010780   ; qtot -0.202270
   51 em_mop_tetramer_50      2    MOP    C51     51 -0.07871000  12.010780   ; qtot -0.280980
   52 em_mop_tetramer_51      2    MOP    C52     52 0.00679000  12.010780   ; qtot -0.274190
   53 em_mop_tetramer_52      2    MOP    C53     53 -0.14554000   9.994886   ; qtot -0.419730
   54 em_mop_tetramer_53      2    MOP    C54     54 0.12834001  12.010780   ; qtot -0.291390
   55 em_mop_tetramer_54      2    MOP    O55     55 -0.32541001  15.999430   ; qtot -0.616800
   56 em_mop_tetramer_55      2    MOP    C56     56 0.11290000   5.963098   ; qtot -0.503900
   57 em_mop_tetramer_56      2    MOP    C57     57 -0.20167001   9.994886   ; qtot -0.705570
   58 em_mop_tetramer_57      2    MOP    C58     58 -0.08109000   9.994886   ; qtot -0.786660
   59 em_mop_tetramer_58      2    MOP    C59     59 -0.04236000  12.010780   ; qtot -0.829020
   60 em_mop_tetramer_59      2    MOP    C60     60 -0.10652000   9.994886   ; qtot -0.935540
   61 em_mop_tetramer_60      2    MOP    C61     61 -0.13236000   9.994886   ; qtot -1.067900
   62 em_mop_tetramer_61      2    MOP    C62     62 -0.10712000   9.994886   ; qtot -1.175020
   63 em_mop_tetramer_62      2    MOP    C63     63 -0.10267000  12.010780   ; qtot -1.277690
   64 em_mop_tetramer_63      2    MOP    C64     64 -0.10850000   9.994886   ; qtot -1.386190
   65 em_mop_tetramer_64      2    MOP    C65     65 0.15165000   9.994886   ; qtot -1.234540
   66 em_mop_tetramer_65      2    MOP    N66     66 -0.56551999  11.990826   ; qtot -1.800060
   67 em_mop_tetramer_66      2    MOP    C67     67 -0.11179000   5.963098   ; qtot -1.911850
   68 em_mop_tetramer_67      2    MOP    C68     68 -0.12639000   9.994886   ; qtot -2.038240
   69 em_mop_tetramer_68      2    MOP    C69     69 -0.09382000   9.994886   ; qtot -2.132060
   70 em_mop_tetramer_69      2    MOP    H70     70 0.14598000   3.023841   ; qtot -1.986080
   71 em_mop_tetramer_70      2    MOP    H71     71 0.14125000   3.023841   ; qtot -1.844830
   72 em_mop_tetramer_71      2    MOP    H72     72 0.15748000   3.023841   ; qtot -1.687350
   73 em_mop_tetramer_72      2    MOP    H73     73 0.04620000   3.023841   ; qtot -1.641150
   74 em_mop_tetramer_73      2    MOP    H74     74 0.04620000   3.023841   ; qtot -1.594950
   75 em_mop_tetramer_74      2    MOP    H75     75 0.04620000   3.023841   ; qtot -1.548750
   76 em_mop_tetramer_75      2    MOP    H76     76 0.14111000   3.023841   ; qtot -1.407640
   77 em_mop_tetramer_76      2    MOP    H77     77 0.14213000   3.023841   ; qtot -1.265510
   78 em_mop_tetramer_77      2    MOP    H78     78 0.13750000   3.023841   ; qtot -1.128010
   79 em_mop_tetramer_78      2    MOP    H79     79 0.13436000   3.023841   ; qtot -0.993650
   80 em_mop_tetramer_79      2    MOP    H80     80 0.14478999   3.023841   ; qtot -0.848860
   81 em_mop_tetramer_80      2    MOP    H81     81 0.13496000   3.023841   ; qtot -0.713900
   82 em_mop_tetramer_81      2    MOP    H82     82 0.08840000   3.023841   ; qtot -0.625500
   83 em_mop_tetramer_82      2    MOP    H83     83 0.31132001   3.023841   ; qtot -0.314180
   84 em_mop_tetramer_83      2    MOP    H84     84 0.04603000   3.023841   ; qtot -0.268150
   85 em_mop_tetramer_84      2    MOP    H85     85 0.04603000   3.023841   ; qtot -0.222120
   86 em_mop_tetramer_85      2    MOP    H86     86 0.04603000   3.023841   ; qtot -0.176090
   87 em_mop_tetramer_86      2    MOP    H87     87 0.14125000   3.023841   ; qtot -0.034840
   88 em_mop_tetramer_87      2    MOP    H88     88 0.14598000   3.023841   ; qtot 0.111140
; residue    3 MOP rtp MOP q -0.0
   89 em_mop_tetramer_88      3    MOP    C89     89 0.67328000  12.010780   ; qtot 0.784420
   90 em_mop_tetramer_89      3    MOP    O90     90 -0.61115998  15.999430   ; qtot 0.173260
   91 em_mop_tetramer_90      3    MOP    C91     91 -0.13977000  12.010780   ; qtot 0.033490
   92 em_mop_tetramer_91      3    MOP    C92     92 -0.09850000   9.994886   ; qtot -0.065010
   93 em_mop_tetramer_92      3    MOP    C93     93 -0.13006000   9.994886   ; qtot -0.195070
   94 em_mop_tetramer_93      3    MOP    C94     94 -0.00346000  12.010780   ; qtot -0.198530
   95 em_mop_tetramer_94      3    MOP    C95     95 -0.08648000  12.010780   ; qtot -0.285010
   96 em_mop_tetramer_95      3    MOP    C96     96 0.00743000  12.010780   ; qtot -0.277580
   97 em_mop_tetramer_96      3    MOP    C97     97 -0.14600000   9.994886   ; qtot -0.423580
   98 em_mop_tetramer_97      3    MOP    C98     98 0.12935001  12.010780   ; qtot -0.294230
   99 em_mop_tetramer_98      3    MOP    O99     99 -0.32449001  15.999430   ; qtot -0.618720
  100 em_mop_tetramer_99      3    MOP   C100    100 0.11205000   5.963098   ; qtot -0.506670
  101 em_mop_tetramer_100      3    MOP   C101    101 -0.20257001   9.994886   ; qtot -0.709240
  102 em_mop_tetramer_101      3    MOP   C102    102 -0.08057000   9.994886   ; qtot -0.789810
  103 em_mop_tetramer_102      3    MOP   C103    103 -0.04296000  12.010780   ; qtot -0.832770
  104 em_mop_tetramer_103      3    MOP   C104    104 -0.11018000   9.994886   ; qtot -0.942950
  105 em_mop_tetramer_104      3    MOP   C105    105 -0.13293999   9.994886   ; qtot -1.075890
  106 em_mop_tetramer_105      3    MOP   C106    106 -0.10881000   9.994886   ; qtot -1.184700
  107 em_mop_tetramer_106      3    MOP   C107    107 -0.09833000  12.010780   ; qtot -1.283030
  108 em_mop_tetramer_107      3    MOP   C108    108 -0.10888000   9.994886   ; qtot -1.391910
  109 em_mop_tetramer_108      3    MOP   C109    109 0.15339001   9.994886   ; qtot -1.238520
  110 em_mop_tetramer_109      3    MOP   N110    110 -0.57167000  11.990826   ; qtot -1.810190
  111 em_mop_tetramer_110      3    MOP   C111    111 -0.11152000   5.963098   ; qtot -1.921710
  112 em_mop_tetramer_111      3    MOP   C112    112 -0.13006000   9.994886   ; qtot -2.051770
  113 em_mop_tetramer_112      3    MOP   C113    113 -0.09850000   9.994886   ; qtot -2.150270
  114 em_mop_tetramer_113      3    MOP   H114    114 0.14557000   3.023841   ; qtot -2.004700
  115 em_mop_tetramer_114      3    MOP   H115    115 0.14202000   3.023841   ; qtot -1.862680
  116 em_mop_tetramer_115      3    MOP   H116    116 0.15859000   3.023841   ; qtot -1.704090
  117 em_mop_tetramer_116      3    MOP   H117    117 0.04690000   3.023841   ; qtot -1.657190
  118 em_mop_tetramer_117      3    MOP   H118    118 0.04690000   3.023841   ; qtot -1.610290
  119 em_mop_tetramer_118      3    MOP   H119    119 0.04690000   3.023841   ; qtot -1.563390
  120 em_mop_tetramer_119      3    MOP   H120    120 0.14382000   3.023841   ; qtot -1.419570
  121 em_mop_tetramer_120      3    MOP   H121    121 0.14692000   3.023841   ; qtot -1.272650
  122 em_mop_tetramer_121      3    MOP   H122    122 0.13609999   3.023841   ; qtot -1.136550
  123 em_mop_tetramer_122      3    MOP   H123    123 0.13495000   3.023841   ; qtot -1.001600
  124 em_mop_tetramer_123      3    MOP   H124    124 0.13956000   3.023841   ; qtot -0.862040
  125 em_mop_tetramer_124      3    MOP   H125    125 0.13576999   3.023841   ; qtot -0.726270
  126 em_mop_tetramer_125      3    MOP   H126    126 0.08590000   3.023841   ; qtot -0.640370
  127 em_mop_tetramer_126      3    MOP   H127    127 0.31176001   3.023841   ; qtot -0.328610
  128 em_mop_tetramer_127      3    MOP   H128    128 0.04590000   3.023841   ; qtot -0.282710
  129 em_mop_tetramer_128      3    MOP   H129    129 0.04590000   3.023841   ; qtot -0.236810
  130 em_mop_tetramer_129      3    MOP   H130    130 0.04590000   3.023841   ; qtot -0.190910
  131 em_mop_tetramer_130      3    MOP   H131    131 0.14202000   3.023841   ; qtot -0.048890
  132 em_mop_tetramer_131      3    MOP   H132    132 0.14557000   3.023841   ; qtot 0.096680
; residue    4 MOP rtp MOP q 0.0
  133 em_mop_tetramer_132      4    MOP   C133    133 0.67646003  12.010780   ; qtot 0.773140
  134 em_mop_tetramer_133      4    MOP   O134    134 -0.60970998  15.999430   ; qtot 0.163430
  135 em_mop_tetramer_134      4    MOP   C135    135 -0.14251000  12.010780   ; qtot 0.020920
  136 em_mop_tetramer_135      4    MOP   C136    136 -0.09410000   9.994886   ; qtot -0.073180
  137 em_mop_tetramer_136      4    MOP   C137    137 -0.12515000   9.994886   ; qtot -0.198330
  138 em_mop_tetramer_137      4    MOP   C138    138 -0.00856000  12.010780   ; qtot -0.206890
  139 em_mop_tetramer_138      4    MOP   C139    139 -0.07566000  12.010780   ; qtot -0.282550
  140 em_mop_tetramer_139      4    MOP   C140    140 0.00510000  12.010780   ; qtot -0.277450
  141 em_mop_tetramer_140      4    MOP   C141    141 -0.14541000   9.994886   ; qtot -0.422860
  142 em_mop_tetramer_141      4    MOP   C142    142 0.12764999  12.010780   ; qtot -0.295210
  143 em_mop_tetramer_142      4    MOP   O143    143 -0.32690001  15.999430   ; qtot -0.622110
  144 em_mop_tetramer_143      4    MOP   C144    144 0.11336000   5.963098   ; qtot -0.508750
  145 em_mop_tetramer_144      4    MOP   C145    145 -0.19971000   9.994886   ; qtot -0.708460
  146 em_mop_tetramer_145      4    MOP   C146    146 -0.07966000   9.994886   ; qtot -0.788120
  147 em_mop_tetramer_146      4    MOP   C147    147 -0.04209000  12.010780   ; qtot -0.830210
  148 em_mop_tetramer_147      4    MOP   C148    148 -0.10540000   9.994886   ; qtot -0.935610
  149 em_mop_tetramer_148      4    MOP   C149    149 -0.13161001   9.994886   ; qtot -1.067220
  150 em_mop_tetramer_149      4    MOP   C150    150 -0.10735000   9.994886   ; qtot -1.174570
  151 em_mop_tetramer_150      4    MOP   C151    151 -0.11077000  12.010780   ; qtot -1.285340
  152 em_mop_tetramer_151      4    MOP   C152    152 -0.10502000   9.994886   ; qtot -1.390360
  153 em_mop_tetramer_152      4    MOP   C153    153 0.16046999   9.994886   ; qtot -1.229890
  154 em_mop_tetramer_153      4    MOP   N154    154 -0.55690002  11.990826   ; qtot -1.786790
  155 em_mop_tetramer_154      4    MOP   C155    155 -0.10729000   5.963098   ; qtot -1.894080
  156 em_mop_tetramer_155      4    MOP   C156    156 -0.12515000   9.994886   ; qtot -2.019230
  157 em_mop_tetramer_156      4    MOP   C157    157 -0.09410000   9.994886   ; qtot -2.113330
  158 em_mop_tetramer_157      4    MOP   H158    158 0.14576000   3.023841   ; qtot -1.967570
  159 em_mop_tetramer_158      4    MOP   H159    159 0.14382000   3.023841   ; qtot -1.823750
  160 em_mop_tetramer_159      4    MOP   H160    160 0.15690000   3.023841   ; qtot -1.666850
  161 em_mop_tetramer_160      4    MOP   H161    161 0.04527000   3.023841   ; qtot -1.621580
  162 em_mop_tetramer_161      4    MOP   H162    162 0.04527000   3.023841   ; qtot -1.576310
  163 em_mop_tetramer_162      4    MOP   H163    163 0.04527000   3.023841   ; qtot -1.531040
  164 em_mop_tetramer_163      4    MOP   H164    164 0.14131001   3.023841   ; qtot -1.389730
  165 em_mop_tetramer_164      4    MOP   H165    165 0.14218999   3.023841   ; qtot -1.247540
  166 em_mop_tetramer_165      4    MOP   H166    166 0.13782001   3.023841   ; qtot -1.109720
  167 em_mop_tetramer_166      4    MOP   H167    167 0.13587999   3.023841   ; qtot -0.973840
  168 em_mop_tetramer_167      4    MOP   H168    168 0.13921000   3.023841   ; qtot -0.834630
  169 em_mop_tetramer_168      4    MOP   H169    169 0.13553999   3.023841   ; qtot -0.699090
  170 em_mop_tetramer_169      4    MOP   H170    170 0.09191000   3.023841   ; qtot -0.607180
  171 em_mop_tetramer_170      4    MOP   H171    171 0.32883999   3.023841   ; qtot -0.278340
  172 em_mop_tetramer_171      4    MOP   H172    172 0.04466000   3.023841   ; qtot -0.233680
  173 em_mop_tetramer_172      4    MOP   H173    173 0.04466000   3.023841   ; qtot -0.189020
  174 em_mop_tetramer_173      4    MOP   H174    174 0.04466000   3.023841   ; qtot -0.144360
  175 em_mop_tetramer_174      4    MOP   H175    175 0.14382000   3.023841   ; qtot -0.000540
  176 em_mop_tetramer_175      4    MOP   H176    176 0.14576000   3.023841   ; qtot 0.145220
; residue    5 CAP rtp CAP q -0.2
  177 em_mop_tetramer_176      5    CAP   C177    177 0.12427000   5.963098   ; qtot 0.269490
  178 em_mop_tetramer_177      5    CAP   O178    178 -0.43878999  15.999430   ; qtot -0.169300
  179 em_mop_tetramer_178      5    CAP   H179    179 0.05287000   3.023841   ; qtot -0.116430
  180 em_mop_tetramer_179      5    CAP   H180    180 0.05287000   3.023841   ; qtot -0.063560
  181 em_mop_tetramer_180      5    CAP   H181    181 0.05287000   3.023841   ; qtot -0.010690
; residue    6 CAP rtp CAP q 0.0
  182 em_mop_tetramer_181      6    CAP   C182    182 -0.11522000   5.963098   ; qtot -0.125910
  183 em_mop_tetramer_182      6    CAP   C183    183 0.18911999  12.010780   ; qtot 0.063210
  184 em_mop_tetramer_183      6    CAP   C184    184 -0.11522000   5.963098   ; qtot -0.052010
  185 em_mop_tetramer_184      6    CAP   C185    185 -0.11522000   5.963098   ; qtot -0.167230
  186 em_mop_tetramer_185      6    CAP   O186    186 -0.44732001  15.999430   ; qtot -0.614550
  187 em_mop_tetramer_186      6    CAP   C187    187 0.75524998  12.010780   ; qtot 0.140700
  188 em_mop_tetramer_187      6    CAP   O188    188 -0.61113000  15.999430   ; qtot -0.470430
  189 em_mop_tetramer_188      6    CAP   H189    189 0.05227000   3.023841   ; qtot -0.418160
  190 em_mop_tetramer_189      6    CAP   H190    190 0.05227000   3.023841   ; qtot -0.365890
  191 em_mop_tetramer_190      6    CAP   H191    191 0.05227000   3.023841   ; qtot -0.313620
  192 em_mop_tetramer_191      6    CAP   H192    192 0.05227000   3.023841   ; qtot -0.261350
  193 em_mop_tetramer_192      6    CAP   H193    193 0.05227000   3.023841   ; qtot -0.209080
  194 em_mop_tetramer_193      6    CAP   H194    194 0.05227000   3.023841   ; qtot -0.156810
  195 em_mop_tetramer_194      6    CAP   H195    195 0.05227000   3.023841   ; qtot -0.104540
  196 em_mop_tetramer_195      6    CAP   H196    196 0.05227000   3.023841   ; qtot -0.052270
  197 em_mop_tetramer_196      6    CAP   H197    197 0.05227000   3.023841   ; qtot 0.000000

[ bonds ]
;    ai     aj funct         c0         c1         c2         c3
      1      2     1   0.12252 487602.327766
      1      3     1   0.14546 233580.248618
      1    178     1   0.13457 252005.673257
      3      4     1   0.13872 301905.092579
      3     25     1   0.13872 301905.092579
      4      5     1   0.13872 301905.092579
      4     26     1   0.10854 332422.631675
      5      6     1   0.13872 301905.092579
      5     27     1   0.10854 332422.631675
      6      7     1   0.14546 233580.248618
      6     24     1   0.13872 301905.092579
      7      8     1   0.13872 301905.092579
      7     14     1   0.13872 301905.092579
      8      9     1   0.13872 301905.092579
      8     15     1   0.14546 233580.248618
      9     10     1   0.13872 301905.092579
      9     28     1   0.10854 332422.631675
     10     11     1   0.13629 356218.264001
     10     13     1   0.13872 301905.092579
     11     12     1   0.14259 306888.771877
     12     29     1   0.10929 317186.185379
     12     30     1   0.10929 317186.185379
     12     31     1   0.10929 317186.185379
     13     14     1   0.13872 301905.092579
     13     32     1   0.10854 332422.631675
     14     33     1   0.10854 332422.631675
     15     16     1   0.13872 301905.092579
     15     20     1   0.13872 301905.092579
     16     17     1   0.13872 301905.092579
     16     34     1   0.10854 332422.631675
     17     18     1   0.13872 301905.092579
     17     35     1   0.10854 332422.631675
     18     19     1   0.13872 301905.092579
     18     36     1   0.10854 332422.631675
     19     20     1   0.13872 301905.092579
     19     21     1   0.14986 242452.869388
     20     37     1   0.10854 332422.631675
     21     22     1   0.14501 294600.927776
     21     23     1   0.15219 221435.259290
     21     38     1   0.10929 317186.185379
     22     39     1   0.10195 422704.914414
     22     45     1   0.13819 412347.817359
     23     40     1   0.10929 317186.185379
     23     41     1   0.10929 317186.185379
     23     42     1   0.10929 317186.185379
     24     25     1   0.13872 301905.092579
     24     43     1   0.10854 332422.631675
     25     44     1   0.10854 332422.631675
     45     46     1   0.12252 487602.327766
     45     47     1   0.14546 233580.248618
     47     48     1   0.13872 301905.092579
     47     69     1   0.13872 301905.092579
     48     49     1   0.13872 301905.092579
     48     70     1   0.10854 332422.631675
     49     50     1   0.13872 301905.092579
     49     71     1   0.10854 332422.631675
     50     51     1   0.14546 233580.248618
     50     68     1   0.13872 301905.092579
     51     52     1   0.13872 301905.092579
     51     58     1   0.13872 301905.092579
     52     53     1   0.13872 301905.092579
     52     59     1   0.14546 233580.248618
     53     54     1   0.13872 301905.092579
     53     72     1   0.10854 332422.631675
     54     55     1   0.13629 356218.264001
     54     57     1   0.13872 301905.092579
     55     56     1   0.14259 306888.771877
     56     73     1   0.10929 317186.185379
     56     74     1   0.10929 317186.185379
     56     75     1   0.10929 317186.185379
     57     58     1   0.13872 301905.092579
     57     76     1   0.10854 332422.631675
     58     77     1   0.10854 332422.631675
     59     60     1   0.13872 301905.092579
     59     64     1   0.13872 301905.092579
     60     61     1   0.13872 301905.092579
     60     78     1   0.10854 332422.631675
     61     62     1   0.13872 301905.092579
     61     79     1   0.10854 332422.631675
     62     63     1   0.13872 301905.092579
     62     80     1   0.10854 332422.631675
     63     64     1   0.13872 301905.092579
     63     65     1   0.14986 242452.869388
     64     81     1   0.10854 332422.631675
     65     66     1   0.14501 294600.927776
     65     67     1   0.15219 221435.259290
     65     82     1   0.10929 317186.185379
     66     83     1   0.10195 422704.914414
     66     89     1   0.13819 412347.817359
     67     84     1   0.10929 317186.185379
     67     85     1   0.10929 317186.185379
     67     86     1   0.10929 317186.185379
     68     69     1   0.13872 301905.092579
     68     87     1   0.10854 332422.631675
     69     88     1   0.10854 332422.631675
     89     90     1   0.12252 487602.327766
     89     91     1   0.14546 233580.248618
     91     92     1   0.13872 301905.092579
     91    113     1   0.13872 301905.092579
     92     93     1   0.13872 301905.092579
     92    114     1   0.10854 332422.631675
     93     94     1   0.13872 301905.092579
     93    115     1   0.10854 332422.631675
     94     95     1   0.14546 233580.248618
     94    112     1   0.13872 301905.092579
     95     96     1   0.13872 301905.092579
     95    102     1   0.13872 301905.092579
     96     97     1   0.13872 301905.092579
     96    103     1   0.14546 233580.248618
     97     98     1   0.13872 301905.092579
     97    116     1   0.10854 332422.631675
     98     99     1   0.13629 356218.264001
     98    101     1   0.13872 301905.092579
     99    100     1   0.14259 306888.771877
    100    117     1   0.10929 317186.185379
    100    118     1   0.10929 317186.185379
    100    119     1   0.10929 317186.185379
    101    102     1   0.13872 301905.092579
    101    120     1   0.10854 332422.631675
    102    121     1   0.10854 332422.631675
    103    104     1   0.13872 301905.092579
    103    108     1   0.13872 301905.092579
    104    105     1   0.13872 301905.092579
    104    122     1   0.10854 332422.631675
    105    106     1   0.13872 301905.092579
    105    123     1   0.10854 332422.631675
    106    107     1   0.13872 301905.092579
    106    124     1   0.10854 332422.631675
    107    108     1   0.13872 301905.092579
    107    109     1   0.14986 242452.869388
    108    125     1   0.10854 332422.631675
    109    110     1   0.14501 294600.927776
    109    111     1   0.15219 221435.259290
    109    126     1   0.10929 317186.185379
    110    127     1   0.10195 422704.914414
    110    133     1   0.13819 412347.817359
    111    128     1   0.10929 317186.185379
    111    129     1   0.10929 317186.185379
    111    130     1   0.10929 317186.185379
    112    113     1   0.13872 301905.092579
    112    131     1   0.10854 332422.631675
    113    132     1   0.10854 332422.631675
    133    134     1   0.12252 487602.327766
    133    135     1   0.14546 233580.248618
    135    136     1   0.13872 301905.092579
    135    157     1   0.13872 301905.092579
    136    137     1   0.13872 301905.092579
    136    158     1   0.10854 332422.631675
    137    138     1   0.13872 301905.092579
    137    159     1   0.10854 332422.631675
    138    139     1   0.14546 233580.248618
    138    156     1   0.13872 301905.092579
    139    140     1   0.13872 301905.092579
    139    146     1   0.13872 301905.092579
    140    141     1   0.13872 301905.092579
    140    147     1   0.14546 233580.248618
    141    142     1   0.13872 301905.092579
    141    160     1   0.10854 332422.631675
    142    143     1   0.13629 356218.264001
    142    145     1   0.13872 301905.092579
    143    144     1   0.14259 306888.771877
    144    161     1   0.10929 317186.185379
    144    162     1   0.10929 317186.185379
    144    163     1   0.10929 317186.185379
    145    146     1   0.13872 301905.092579
    145    164     1   0.10854 332422.631675
    146    165     1   0.10854 332422.631675
    147    148     1   0.13872 301905.092579
    147    152     1   0.13872 301905.092579
    148    149     1   0.13872 301905.092579
    148    166     1   0.10854 332422.631675
    149    150     1   0.13872 301905.092579
    149    167     1   0.10854 332422.631675
    150    151     1   0.13872 301905.092579
    150    168     1   0.10854 332422.631675
    151    152     1   0.13872 301905.092579
    151    153     1   0.14986 242452.869388
    152    169     1   0.10854 332422.631675
    153    154     1   0.14501 294600.927776
    153    155     1   0.15219 221435.259290
    153    170     1   0.10929 317186.185379
    154    171     1   0.10195 422704.914414
    154    187     1   0.13819 412347.817359
    155    172     1   0.10929 317186.185379
    155    173     1   0.10929 317186.185379
    155    174     1   0.10929 317186.185379
    156    157     1   0.13872 301905.092579
    156    175     1   0.10854 332422.631675
    157    176     1   0.10854 332422.631675
    177    178     1   0.14259 306888.771877
    177    179     1   0.10929 317186.185379
    177    180     1   0.10929 317186.185379
    177    181     1   0.10929 317186.185379
    182    183     1   0.15219 221435.259290
    182    189     1   0.10929 317186.185379
    182    190     1   0.10929 317186.185379
    182    191     1   0.10929 317186.185379
    183    184     1   0.15219 221435.259290
    183    185     1   0.15219 221435.259290
    183    186     1   0.14259 306888.771877
    184    192     1   0.10929 317186.185379
    184    193     1   0.10929 317186.185379
    184    194     1   0.10929 317186.185379
    185    195     1   0.10929 317186.185379
    185    196     1   0.10929 317186.185379
    185    197     1   0.10929 317186.185379
    186    187     1   0.13457 252005.673257
    187    188     1   0.12252 487602.327766

[ pairs ]
;    ai     aj funct         c0         c1         c2         c3
      6     15     1
    147    160     1
    135    175     1
    105    108     1
    110    136     1
    109    125     1
    145    160     1
      4      7     1
     11     28     1
    186    192     1
     90    113     1
     96     99     1
     19     40     1
     20     23     1
    186    195     1
     98    118     1
     19     42     1
     96    101     1
     22     40     1
    184    189     1
     39     47     1
      1    179     1
     22     42     1
     96    112     1
     20     34     1
     52     61     1
     91    131     1
     54     75     1
    140    156     1
     82     86     1
      2      4     1
    104    125     1
     34     35     1
    103    123     1
     58     68     1
    107    123     1
    151    174     1
     65     90     1
     53     60     1
     22     48     1
    185    193     1
     19     39     1
     95    115     1
    135    138     1
    140    145     1
     38     42     1
    137    175     1
     51     71     1
     63     86     1
     66    113     1
      9     14     1
     49     69     1
     51     72     1
    148    151     1
    109    124     1
    108    111     1
    153    168     1
    126    130     1
      7     27     1
     65     91     1
     82     89     1
      1     26     1
      4    178     1
     50     88     1
    152    166     1
     62     67     1
    152    170     1
    138    158     1
     54     74     1
     82     85     1
     49     52     1
     45     68     1
      7     16     1
     23     45     1
     70     71     1
    184    197     1
     63     89     1
     38     39     1
     35     36     1
    184    196     1
      6      9     1
     94    121     1
     63     85     1
     48     51     1
    138    147     1
     19     35     1
    104    124     1
    106    110     1
    182    197     1
     96    107     1
     53     56     1
     99    102     1
    139    148     1
      3     27     1
    182    196     1
      9     16     1
     59     72     1
    127    134     1
    134    157     1
     95    120     1
    141    164     1
     10     30     1
    150    155     1
    148    169     1
    155    187     1
    185    190     1
    133    137     1
    107    129     1
      7     20     1
    136    139     1
      8     34     1
    133    176     1
     98    117     1
    126    127     1
      9     32     1
     51     76     1
     25    178     1
      9     12     1
      9     20     1
    170    187     1
     23     39     1
     98    121     1
    186    194     1
    104    107     1
     53     64     1
    184    191     1
    149    153     1
    103    109     1
      5      8     1
     64     82     1
    150    154     1
    133    156     1
    126    128     1
      7     10     1
    126    133     1
     54     73     1
     59     79     1
     17     21     1
     94    114     1
    108    110     1
     19     45     1
     95    104     1
    151    173     1
      1     44     1
     60     81     1
    105    109     1
    185    192     1
     16     36     1
     51     54     1
     15     21     1
     62     81     1
    146    147     1
    183    188     1
      6     13     1
    149    152     1
     20     36     1
    141    146     1
    147    167     1
     82     84     1
     18     23     1
     46     69     1
      1     24     1
      8     11     1
     92    112     1
     64     66     1
     51     69     1
      7     43     1
    127    135     1
    120    121     1
     79     80     1
     38     45     1
     54     77     1
     50     59     1
     59     62     1
     97    100     1
     10     33     1
     18     34     1
     82     83     1
      7     28     1
      8     17     1
     95    108     1
     58     59     1
    170    171     1
    123    124     1
    147    150     1
     94    101     1
    175    176     1
    182    193     1
     14     24     1
    141    152     1
     66     86     1
    139    159     1
     38     40     1
     43     44     1
    110    129     1
     65     80     1
    110    130     1
     47     87     1
     16     19     1
     62     78     1
     16     37     1
    146    156     1
    143    160     1
     63     79     1
     50     57     1
     95    113     1
     50     53     1
     64     80     1
     45     49     1
     98    119     1
    185    187     1
     15     35     1
    138    165     1
    154    183     1
     52     68     1
    133    158     1
    186    189     1
      1    181     1
      1      5     1
    137    157     1
      8     24     1
     96    122     1
    137    146     1
     60     63     1
     66     85     1
     89    132     1
    106    126     1
      1    180     1
    100    101     1
    184    190     1
     10     15     1
    131    132     1
    110    157     1
     95    116     1
      5     25     1
    139    175     1
    106    122     1
     83     90     1
     51     87     1
     99    116     1
    143    164     1
      4     44     1
     45     88     1
     19     41     1
    107    130     1
    142    162     1
     22     41     1
     47     50     1
     52     63     1
     78     79     1
      6     44     1
     76     77     1
    185    194     1
    147    153     1
    153    169     1
     26     27     1
     10     31     1
     15     28     1
     83     91     1
    142    147     1
      4     24     1
    140    165     1
    150    169     1
    113    114     1
     10     29     1
     22     69     1
     55     72     1
    186    197     1
    140    169     1
    150    166     1
    186    196     1
    170    172     1
      7     25     1
     32     33     1
      5     43     1
     38     41     1
     52     55     1
    184    195     1
     21     46     1
     95    131     1
     92     95     1
      8     19     1
    138    141     1
      8     37     1
     52     77     1
     90     92     1
    182    192     1
     53     76     1
    182    195     1
     97    120     1
    151    187     1
      3      6     1
     24     27     1
    107    127     1
    108    122     1
     94    103     1
     69     70     1
     20     22     1
     15     18     1
    141    148     1
    139    160     1
    151    167     1
    155    171     1
    143    146     1
     93     96     1
    140    149     1
    154    172     1
     12     13     1
     39     46     1
     50     70     1
    157    158     1
     66     84     1
     61     65     1
     17     20     1
    152    168     1
     96    125     1
    154    173     1
    186    191     1
     47     71     1
      6     26     1
    109    134     1
     63     84     1
    107    128     1
     11     14     1
    107    133     1
     52     81     1
     64     67     1
    170    174     1
     66     92     1
     51     60     1
     59     65     1
     56     57     1
     48     68     1
     62     82     1
    144    145     1
     55     76     1
    134    136     1
     67     89     1
    103    106     1
     63     83     1
     93    113     1
     98    103     1
    106    125     1
    156    159     1
    112    115     1
      3     43     1
     97    104     1
    184    187     1
    101    116     1
    142    161     1
    139    164     1
    171    188     1
     45     70     1
    171    186     1
     21     37     1
     53     58     1
    152    155     1
    185    189     1
     91     94     1
    102    112     1
      8     33     1
     94     97     1
    182    187     1
    151    171     1
     87     88     1
    148    168     1
    103    116     1
     93    102     1
     48     88     1
     18     37     1
     89     93     1
    154    174     1
     25     26     1
    136    176     1
    139    142     1
     62     66     1
    111    127     1
    186    193     1
    158    159     1
     52     78     1
    126    129     1
     49     58     1
     96    121     1
    140    151     1
     14     15     1
     97    108     1
    137    140     1
     11     32     1
    152    154     1
     89    114     1
     52     57     1
     55     58     1
     54     59     1
      2    177     1
    136    156     1
     96    105     1
    109    135     1
     20     38     1
    142    165     1
    111    133     1
      2     25     1
     91    115     1
     65     81     1
    122    123     1
    114    115     1
     18     38     1
     46     48     1
    182    194     1
     60     80     1
     68     71     1
    153    188     1
     13     28     1
    153    186     1
    139    157     1
      7     32     1
     51     64     1
    167    168     1
     92    132     1
      8     13     1
     95     98     1
      6     33     1
     93    131     1
    138    176     1
    110    128     1
    150    170     1
     99    120     1
    140    143     1
    140    166     1
     50     77     1
    135    159     1
    108    126     1
    186    190     1
     97    102     1
    141    144     1
    170    173     1
    164    165     1
     94    132     1
     61     64     1
     89    112     1
     57     72     1
    139    152     1
    108    124     1
     49     87     1
     21     36     1
      3    177     1
     67     83     1
    166    167     1
     18     22     1
    151    172     1
     21     47     1
    142    163     1
    185    191     1
      5     14     1
    138    145     1
    102    103     1
     64     78     1
    106    111     1

[ angles ]
;    ai     aj     ak funct         c0         c1         c2         c3
      1      3      4     1   126.8062420 484.492885
      1      3     25     1   126.8062420 484.492885
      1    178    177     1   110.3538806 544.678275
      2      1      3     1   126.8062420 484.492885
      2      1    178     1   127.4691416 1685.413543
      3      1    178     1   126.8062420 484.492885
      3      4      5     1   126.8062420 484.492885
      3      4     26     1   129.1835930 285.070775
      3     25     24     1   126.8062420 484.492885
      3     25     44     1   129.1835930 285.070775
      4      3     25     1   126.8062420 484.492885
      4      5      6     1   126.8062420 484.492885
      4      5     27     1   129.1835930 285.070775
      5      4     26     1   129.1835930 285.070775
      5      6      7     1   126.8062420 484.492885
      5      6     24     1   126.8062420 484.492885
      6      5     27     1   129.1835930 285.070775
      6      7      8     1   126.8062420 484.492885
      6      7     14     1   126.8062420 484.492885
      6     24     25     1   126.8062420 484.492885
      6     24     43     1   129.1835930 285.070775
      7      6     24     1   126.8062420 484.492885
      7      8      9     1   126.8062420 484.492885
      7      8     15     1   126.8062420 484.492885
      7     14     13     1   126.8062420 484.492885
      7     14     33     1   129.1835930 285.070775
      8      7     14     1   126.8062420 484.492885
      8      9     10     1   126.8062420 484.492885
      8      9     28     1   129.1835930 285.070775
      8     15     16     1   126.8062420 484.492885
      8     15     20     1   126.8062420 484.492885
      9      8     15     1   126.8062420 484.492885
      9     10     11     1   126.8062420 484.492885
      9     10     13     1   126.8062420 484.492885
     10      9     28     1   129.1835930 285.070775
     10     11     12     1   110.3538806 544.678275
     10     13     14     1   126.8062420 484.492885
     10     13     32     1   129.1835930 285.070775
     11     10     13     1   126.8062420 484.492885
     11     12     29     1   107.6607822 425.669015
     11     12     30     1   107.6607822 425.669015
     11     12     31     1   107.6607822 425.669015
     13     14     33     1   129.1835930 285.070775
     14     13     32     1   129.1835930 285.070775
     15     16     17     1   126.8062420 484.492885
     15     16     34     1   129.1835930 285.070775
     15     20     19     1   126.8062420 484.492885
     15     20     37     1   129.1835930 285.070775
     16     15     20     1   126.8062420 484.492885
     16     17     18     1   126.8062420 484.492885
     16     17     35     1   129.1835930 285.070775
     17     16     34     1   129.1835930 285.070775
     17     18     19     1   126.8062420 484.492885
     17     18     36     1   129.1835930 285.070775
     18     17     35     1   129.1835930 285.070775
     18     19     20     1   126.8062420 484.492885
     18     19     21     1   126.8062420 484.492885
     19     18     36     1   129.1835930 285.070775
     19     20     37     1   129.1835930 285.070775
     19     21     22     1   107.6607822 425.669015
     19     21     23     1   107.6607822 425.669015
     19     21     38     1   107.6607822 425.669015
     20     19     21     1   126.8062420 484.492885
     21     22     39     1   115.5071328 530.901283
     21     22     45     1   117.3465571 463.769802
     21     23     40     1   107.6607822 425.669015
     21     23     41     1   107.6607822 425.669015
     21     23     42     1   107.6607822 425.669015
     22     21     23     1   107.6607822 425.669015
     22     21     38     1   107.6607822 425.669015
     22     45     46     1   126.8062420 484.492885
     22     45     47     1   126.8062420 484.492885
     23     21     38     1   107.6607822 425.669015
     24     25     44     1   129.1835930 285.070775
     25     24     43     1   129.1835930 285.070775
     29     12     30     1   115.6031000 408.161690
     29     12     31     1   115.6031000 408.161690
     30     12     31     1   115.6031000 408.161690
     39     22     45     1   115.5071328 530.901283
     40     23     41     1   115.6031000 408.161690
     40     23     42     1   115.6031000 408.161690
     41     23     42     1   115.6031000 408.161690
     45     47     48     1   126.8062420 484.492885
     45     47     69     1   126.8062420 484.492885
     46     45     47     1   126.8062420 484.492885
     47     48     49     1   126.8062420 484.492885
     47     48     70     1   129.1835930 285.070775
     47     69     68     1   126.8062420 484.492885
     47     69     88     1   129.1835930 285.070775
     48     47     69     1   126.8062420 484.492885
     48     49     50     1   126.8062420 484.492885
     48     49     71     1   129.1835930 285.070775
     49     48     70     1   129.1835930 285.070775
     49     50     51     1   126.8062420 484.492885
     49     50     68     1   126.8062420 484.492885
     50     49     71     1   129.1835930 285.070775
     50     51     52     1   126.8062420 484.492885
     50     51     58     1   126.8062420 484.492885
     50     68     69     1   126.8062420 484.492885
     50     68     87     1   129.1835930 285.070775
     51     50     68     1   126.8062420 484.492885
     51     52     53     1   126.8062420 484.492885
     51     52     59     1   126.8062420 484.492885
     51     58     57     1   126.8062420 484.492885
     51     58     77     1   129.1835930 285.070775
     52     51     58     1   126.8062420 484.492885
     52     53     54     1   126.8062420 484.492885
     52     53     72     1   129.1835930 285.070775
     52     59     60     1   126.8062420 484.492885
     52     59     64     1   126.8062420 484.492885
     53     52     59     1   126.8062420 484.492885
     53     54     55     1   126.8062420 484.492885
     53     54     57     1   126.8062420 484.492885
     54     53     72     1   129.1835930 285.070775
     54     55     56     1   110.3538806 544.678275
     54     57     58     1   126.8062420 484.492885
     54     57     76     1   129.1835930 285.070775
     55     54     57     1   126.8062420 484.492885
     55     56     73     1   107.6607822 425.669015
     55     56     74     1   107.6607822 425.669015
     55     56     75     1   107.6607822 425.669015
     57     58     77     1   129.1835930 285.070775
     58     57     76     1   129.1835930 285.070775
     59     60     61     1   126.8062420 484.492885
     59     60     78     1   129.1835930 285.070775
     59     64     63     1   126.8062420 484.492885
     59     64     81     1   129.1835930 285.070775
     60     59     64     1   126.8062420 484.492885
     60     61     62     1   126.8062420 484.492885
     60     61     79     1   129.1835930 285.070775
     61     60     78     1   129.1835930 285.070775
     61     62     63     1   126.8062420 484.492885
     61     62     80     1   129.1835930 285.070775
     62     61     79     1   129.1835930 285.070775
     62     63     64     1   126.8062420 484.492885
     62     63     65     1   126.8062420 484.492885
     63     62     80     1   129.1835930 285.070775
     63     64     81     1   129.1835930 285.070775
     63     65     66     1   107.6607822 425.669015
     63     65     67     1   107.6607822 425.669015
     63     65     82     1   107.6607822 425.669015
     64     63     65     1   126.8062420 484.492885
     65     66     83     1   115.5071328 530.901283
     65     66     89     1   117.3465571 463.769802
     65     67     84     1   107.6607822 425.669015
     65     67     85     1   107.6607822 425.669015
     65     67     86     1   107.6607822 425.669015
     66     65     67     1   107.6607822 425.669015
     66     65     82     1   107.6607822 425.669015
     66     89     90     1   126.8062420 484.492885
     66     89     91     1   126.8062420 484.492885
     67     65     82     1   107.6607822 425.669015
     68     69     88     1   129.1835930 285.070775
     69     68     87     1   129.1835930 285.070775
     73     56     74     1   115.6031000 408.161690
     73     56     75     1   115.6031000 408.161690
     74     56     75     1   115.6031000 408.161690
     83     66     89     1   115.5071328 530.901283
     84     67     85     1   115.6031000 408.161690
     84     67     86     1   115.6031000 408.161690
     85     67     86     1   115.6031000 408.161690
     89     91     92     1   126.8062420 484.492885
     89     91    113     1   126.8062420 484.492885
     90     89     91     1   126.8062420 484.492885
     91     92     93     1   126.8062420 484.492885
     91     92    114     1   129.1835930 285.070775
     91    113    112     1   126.8062420 484.492885
     91    113    132     1   129.1835930 285.070775
     92     91    113     1   126.8062420 484.492885
     92     93     94     1   126.8062420 484.492885
     92     93    115     1   129.1835930 285.070775
     93     92    114     1   129.1835930 285.070775
     93     94     95     1   126.8062420 484.492885
     93     94    112     1   126.8062420 484.492885
     94     93    115     1   129.1835930 285.070775
     94     95     96     1   126.8062420 484.492885
     94     95    102     1   126.8062420 484.492885
     94    112    113     1   126.8062420 484.492885
     94    112    131     1   129.1835930 285.070775
     95     94    112     1   126.8062420 484.492885
     95     96     97     1   126.8062420 484.492885
     95     96    103     1   126.8062420 484.492885
     95    102    101     1   126.8062420 484.492885
     95    102    121     1   129.1835930 285.070775
     96     95    102     1   126.8062420 484.492885
     96     97     98     1   126.8062420 484.492885
     96     97    116     1   129.1835930 285.070775
     96    103    104     1   126.8062420 484.492885
     96    103    108     1   126.8062420 484.492885
     97     96    103     1   126.8062420 484.492885
     97     98     99     1   126.8062420 484.492885
     97     98    101     1   126.8062420 484.492885
     98     97    116     1   129.1835930 285.070775
     98     99    100     1   110.3538806 544.678275
     98    101    102     1   126.8062420 484.492885
     98    101    120     1   129.1835930 285.070775
     99     98    101     1   126.8062420 484.492885
     99    100    117     1   107.6607822 425.669015
     99    100    118     1   107.6607822 425.669015
     99    100    119     1   107.6607822 425.669015
    101    102    121     1   129.1835930 285.070775
    102    101    120     1   129.1835930 285.070775
    103    104    105     1   126.8062420 484.492885
    103    104    122     1   129.1835930 285.070775
    103    108    107     1   126.8062420 484.492885
    103    108    125     1   129.1835930 285.070775
    104    103    108     1   126.8062420 484.492885
    104    105    106     1   126.8062420 484.492885
    104    105    123     1   129.1835930 285.070775
    105    104    122     1   129.1835930 285.070775
    105    106    107     1   126.8062420 484.492885
    105    106    124     1   129.1835930 285.070775
    106    105    123     1   129.1835930 285.070775
    106    107    108     1   126.8062420 484.492885
    106    107    109     1   126.8062420 484.492885
    107    106    124     1   129.1835930 285.070775
    107    108    125     1   129.1835930 285.070775
    107    109    110     1   107.6607822 425.669015
    107    109    111     1   107.6607822 425.669015
    107    109    126     1   107.6607822 425.669015
    108    107    109     1   126.8062420 484.492885
    109    110    127     1   115.5071328 530.901283
    109    110    133     1   117.3465571 463.769802
    109    111    128     1   107.6607822 425.669015
    109    111    129     1   107.6607822 425.669015
    109    111    130     1   107.6607822 425.669015
    110    109    111     1   107.6607822 425.669015
    110    109    126     1   107.6607822 425.669015
    110    133    134     1   126.8062420 484.492885
    110    133    135     1   126.8062420 484.492885
    111    109    126     1   107.6607822 425.669015
    112    113    132     1   129.1835930 285.070775
    113    112    131     1   129.1835930 285.070775
    117    100    118     1   115.6031000 408.161690
    117    100    119     1   115.6031000 408.161690
    118    100    119     1   115.6031000 408.161690
    127    110    133     1   115.5071328 530.901283
    128    111    129     1   115.6031000 408.161690
    128    111    130     1   115.6031000 408.161690
    129    111    130     1   115.6031000 408.161690
    133    135    136     1   126.8062420 484.492885
    133    135    157     1   126.8062420 484.492885
    134    133    135     1   126.8062420 484.492885
    135    136    137     1   126.8062420 484.492885
    135    136    158     1   129.1835930 285.070775
    135    157    156     1   126.8062420 484.492885
    135    157    176     1   129.1835930 285.070775
    136    135    157     1   126.8062420 484.492885
    136    137    138     1   126.8062420 484.492885
    136    137    159     1   129.1835930 285.070775
    137    136    158     1   129.1835930 285.070775
    137    138    139     1   126.8062420 484.492885
    137    138    156     1   126.8062420 484.492885
    138    137    159     1   129.1835930 285.070775
    138    139    140     1   126.8062420 484.492885
    138    139    146     1   126.8062420 484.492885
    138    156    157     1   126.8062420 484.492885
    138    156    175     1   129.1835930 285.070775
    139    138    156     1   126.8062420 484.492885
    139    140    141     1   126.8062420 484.492885
    139    140    147     1   126.8062420 484.492885
    139    146    145     1   126.8062420 484.492885
    139    146    165     1   129.1835930 285.070775
    140    139    146     1   126.8062420 484.492885
    140    141    142     1   126.8062420 484.492885
    140    141    160     1   129.1835930 285.070775
    140    147    148     1   126.8062420 484.492885
    140    147    152     1   126.8062420 484.492885
    141    140    147     1   126.8062420 484.492885
    141    142    143     1   126.8062420 484.492885
    141    142    145     1   126.8062420 484.492885
    142    141    160     1   129.1835930 285.070775
    142    143    144     1   110.3538806 544.678275
    142    145    146     1   126.8062420 484.492885
    142    145    164     1   129.1835930 285.070775
    143    142    145     1   126.8062420 484.492885
    143    144    161     1   107.6607822 425.669015
    143    144    162     1   107.6607822 425.669015
    143    144    163     1   107.6607822 425.669015
    145    146    165     1   129.1835930 285.070775
    146    145    164     1   129.1835930 285.070775
    147    148    149     1   126.8062420 484.492885
    147    148    166     1   129.1835930 285.070775
    147    152    151     1   126.8062420 484.492885
    147    152    169     1   129.1835930 285.070775
    148    147    152     1   126.8062420 484.492885
    148    149    150     1   126.8062420 484.492885
    148    149    167     1   129.1835930 285.070775
    149    148    166     1   129.1835930 285.070775
    149    150    151     1   126.8062420 484.492885
    149    150    168     1   129.1835930 285.070775
    150    149    167     1   129.1835930 285.070775
    150    151    152     1   126.8062420 484.492885
    150    151    153     1   126.8062420 484.492885
    151    150    168     1   129.1835930 285.070775
    151    152    169     1   129.1835930 285.070775
    151    153    154     1   107.6607822 425.669015
    151    153    155     1   107.6607822 425.669015
    151    153    170     1   107.6607822 425.669015
    152    151    153     1   126.8062420 484.492885
    153    154    171     1   115.5071328 530.901283
    153    154    187     1   117.3465571 463.769802
    153    155    172     1   107.6607822 425.669015
    153    155    173     1   107.6607822 425.669015
    153    155    174     1   107.6607822 425.669015
    154    153    155     1   107.6607822 425.669015
    154    153    170     1   107.6607822 425.669015
    154    187    186     1   126.8062420 484.492885
    154    187    188     1   126.8062420 484.492885
    155    153    170     1   107.6607822 425.669015
    156    157    176     1   129.1835930 285.070775
    157    156    175     1   129.1835930 285.070775
    161    144    162     1   115.6031000 408.161690
    161    144    163     1   115.6031000 408.161690
    162    144    163     1   115.6031000 408.161690
    171    154    187     1   115.5071328 530.901283
    172    155    173     1   115.6031000 408.161690
    172    155    174     1   115.6031000 408.161690
    173    155    174     1   115.6031000 408.161690
    178    177    179     1   107.6607822 425.669015
    178    177    180     1   107.6607822 425.669015
    178    177    181     1   107.6607822 425.669015
    179    177    180     1   115.6031000 408.161690
    179    177    181     1   115.6031000 408.161690
    180    177    181     1   115.6031000 408.161690
    182    183    184     1   107.6607822 425.669015
    182    183    185     1   107.6607822 425.669015
    182    183    186     1   107.6607822 425.669015
    183    182    189     1   107.6607822 425.669015
    183    182    190     1   107.6607822 425.669015
    183    182    191     1   107.6607822 425.669015
    183    184    192     1   107.6607822 425.669015
    183    184    193     1   107.6607822 425.669015
    183    184    194     1   107.6607822 425.669015
    183    185    195     1   107.6607822 425.669015
    183    185    196     1   107.6607822 425.669015
    183    185    197     1   107.6607822 425.669015
    183    186    187     1   110.3538806 544.678275
    184    183    185     1   107.6607822 425.669015
    184    183    186     1   107.6607822 425.669015
    185    183    186     1   107.6607822 425.669015
    186    187    188     1   127.4691416 1685.413543
    189    182    190     1   115.6031000 408.161690
    189    182    191     1   115.6031000 408.161690
    190    182    191     1   115.6031000 408.161690
    192    184    193     1   115.6031000 408.161690
    192    184    194     1   115.6031000 408.161690
    193    184    194     1   115.6031000 408.161690
    195    185    196     1   115.6031000 408.161690
    195    185    197     1   115.6031000 408.161690
    196    185    197     1   115.6031000 408.161690

[ dihedrals ]
;    ai     aj     ak     al funct         c0         c1         c2         c3         c4         c5
      1      3      4      5     1  180.0000000  15.3215155  2
      1      3      4     26     1  180.0000000  15.3215155  2
      1      3     25     24     1  180.0000000  15.3215155  2
      1      3     25     44     1  180.0000000  15.3215155  2
      1    178    177    179     1  0.0000000  0.1982205  3
      1    178    177    180     1  0.0000000  0.1982205  3
      1    178    177    181     1  0.0000000  0.1982205  3
      2      1      3      4     1  180.0000000  4.1731909  2
      2      1      3     25     1  180.0000000  4.1731909  2
      2      1    178    177     1  180.0000000  4.8693776  2
      2      1    178    177     1  180.0000000  0.7025718  1
      3      1    178    177     1  180.0000000  11.6309081  2
      3      4      5      6     1  180.0000000  15.3215155  2
      3      4      5     27     1  180.0000000  15.3215155  2
      3     25     24      6     1  180.0000000  15.3215155  2
      3     25     24     43     1  180.0000000  15.3215155  2
      4      3      1    178     1  180.0000000  4.1731909  2
      4      3     25     24     1  180.0000000  15.3215155  2
      4      3     25     44     1  180.0000000  15.3215155  2
      4      5      6      7     1  180.0000000  15.3215155  2
      4      5      6     24     1  180.0000000  15.3215155  2
      5      4      3     25     1  180.0000000  15.3215155  2
      5      6      7      8     1  180.0000000  4.8669776  2
      5      6      7     14     1  180.0000000  4.8669776  2
      5      6     24     25     1  180.0000000  15.3215155  2
      5      6     24     43     1  180.0000000  15.3215155  2
      6      5      4     26     1  180.0000000  15.3215155  2
      6      7      8      9     1  180.0000000  15.3215155  2
      6      7      8     15     1  180.0000000  15.3215155  2
      6      7     14     13     1  180.0000000  15.3215155  2
      6      7     14     33     1  180.0000000  15.3215155  2
      6     24     25     44     1  180.0000000  15.3215155  2
      7      6      5     27     1  180.0000000  15.3215155  2
      7      6     24     25     1  180.0000000  15.3215155  2
      7      6     24     43     1  180.0000000  15.3215155  2
      7      8      9     10     1  180.0000000  15.3215155  2
      7      8      9     28     1  180.0000000  15.3215155  2
      7      8     15     16     1  180.0000000  4.8669776  2
      7      8     15     20     1  180.0000000  4.8669776  2
      7     14     13     10     1  180.0000000  15.3215155  2
      7     14     13     32     1  180.0000000  15.3215155  2
      8      7      6     24     1  180.0000000  4.8669776  2
      8      7     14     13     1  180.0000000  15.3215155  2
      8      7     14     33     1  180.0000000  15.3215155  2
      8      9     10     11     1  180.0000000  15.3215155  2
      8      9     10     13     1  180.0000000  15.3215155  2
      8     15     16     17     1  180.0000000  15.3215155  2
      8     15     16     34     1  180.0000000  15.3215155  2
      8     15     20     19     1  180.0000000  15.3215155  2
      8     15     20     37     1  180.0000000  15.3215155  2
      9      8      7     14     1  180.0000000  15.3215155  2
      9      8     15     16     1  180.0000000  4.8669776  2
      9      8     15     20     1  180.0000000  4.8669776  2
      9     10     11     12     1  180.0000000  6.4108617  2
      9     10     13     14     1  180.0000000  15.3215155  2
      9     10     13     32     1  180.0000000  15.3215155  2
     10      9      8     15     1  180.0000000  15.3215155  2
     10     11     12     29     1  0.0000000  0.1982205  3
     10     11     12     30     1  0.0000000  0.1982205  3
     10     11     12     31     1  0.0000000  0.1982205  3
     10     13     14     33     1  180.0000000  15.3215155  2
     11     10      9     28     1  180.0000000  15.3215155  2
     11     10     13     14     1  180.0000000  15.3215155  2
     11     10     13     32     1  180.0000000  15.3215155  2
     12     11     10     13     1  180.0000000  6.4108617  2
     13     10      9     28     1  180.0000000  15.3215155  2
     14      7      6     24     1  180.0000000  4.8669776  2
     14      7      8     15     1  180.0000000  15.3215155  2
     15      8      9     28     1  180.0000000  15.3215155  2
     15     16     17     18     1  180.0000000  15.3215155  2
     15     16     17     35     1  180.0000000  15.3215155  2
     15     20     19     18     1  180.0000000  15.3215155  2
     15     20     19     21     1  180.0000000  15.3215155  2
     16     15     20     19     1  180.0000000  15.3215155  2
     16     15     20     37     1  180.0000000  15.3215155  2
     16     17     18     19     1  180.0000000  15.3215155  2
     16     17     18     36     1  180.0000000  15.3215155  2
     17     16     15     20     1  180.0000000  15.3215155  2
     17     18     19     20     1  180.0000000  15.3215155  2
     17     18     19     21     1  180.0000000  15.3215155  2
     18     17     16     34     1  180.0000000  15.3215155  2
     18     19     20     37     1  180.0000000  15.3215155  2
     18     19     21     22     1  0.0000000  0.1115010  3
     18     19     21     23     1  0.0000000  0.1115010  3
     18     19     21     38     1  0.0000000  0.1115010  3
     19     18     17     35     1  180.0000000  15.3215155  2
     19     21     22     39     1  0.0000000  0.7624859  2
     19     21     22     39     1  0.0000000  0.1243628  3
     19     21     22     45     1  180.0000000  -2.8834993  2
     19     21     22     45     1  0.0000000  1.1413309  1
     19     21     23     40     1  0.0000000  0.4834079  3
     19     21     23     41     1  0.0000000  0.4834079  3
     19     21     23     42     1  0.0000000  0.4834079  3
     20     15     16     34     1  180.0000000  15.3215155  2
     20     19     18     36     1  180.0000000  15.3215155  2
     20     19     21     22     1  0.0000000  0.1115010  3
     20     19     21     23     1  0.0000000  0.1115010  3
     20     19     21     38     1  0.0000000  0.1115010  3
     21     19     18     36     1  180.0000000  15.3215155  2
     21     19     20     37     1  180.0000000  15.3215155  2
     21     22     45     46     1  180.0000000  12.9785537  2
     21     22     45     46     1  0.0000000  -1.7791009  1
     21     22     45     47     1  180.0000000  7.5690543  2
     21     22     45     47     1  0.0000000  -0.2015131  1
     22     21     23     40     1  0.0000000  0.4834079  3
     22     21     23     41     1  0.0000000  0.4834079  3
     22     21     23     42     1  0.0000000  0.4834079  3
     22     45     47     48     1  180.0000000  4.1731909  2
     22     45     47     69     1  180.0000000  4.1731909  2
     23     21     22     39     1  0.0000000  0.7624859  2
     23     21     22     39     1  0.0000000  0.1243628  3
     23     21     22     45     1  180.0000000  -0.6228629  4
     23     21     22     45     1  180.0000000  -0.5147696  3
     23     21     22     45     1  0.0000000  1.2298012  2
     23     21     22     45     1  0.0000000  -1.2652947  1
     24      6      5     27     1  180.0000000  15.3215155  2
     25      3      1    178     1  180.0000000  4.1731909  2
     25      3      4     26     1  180.0000000  15.3215155  2
     26      4      5     27     1  180.0000000  15.3215155  2
     32     13     14     33     1  180.0000000  15.3215155  2
     34     16     17     35     1  180.0000000  15.3215155  2
     35     17     18     36     1  180.0000000  15.3215155  2
     38     21     22     39     1  0.0000000  0.7624859  2
     38     21     22     39     1  0.0000000  0.1243628  3
     38     21     22     45     1  0.0000000  0.7624859  2
     38     21     22     45     1  0.0000000  0.1243628  3
     38     21     23     40     1  0.0000000  0.7999501  3
     38     21     23     41     1  0.0000000  0.7999501  3
     38     21     23     42     1  0.0000000  0.7999501  3
     39     22     45     46     1  180.0000000  9.8256037  2
     39     22     45     46     1  0.0000000  5.2557574  1
     39     22     45     47     1  180.0000000  7.5690543  2
     39     22     45     47     1  0.0000000  -0.2015131  1
     43     24     25     44     1  180.0000000  15.3215155  2
     45     47     48     49     1  180.0000000  15.3215155  2
     45     47     48     70     1  180.0000000  15.3215155  2
     45     47     69     68     1  180.0000000  15.3215155  2
     45     47     69     88     1  180.0000000  15.3215155  2
     46     45     47     48     1  180.0000000  4.1731909  2
     46     45     47     69     1  180.0000000  4.1731909  2
     47     48     49     50     1  180.0000000  15.3215155  2
     47     48     49     71     1  180.0000000  15.3215155  2
     47     69     68     50     1  180.0000000  15.3215155  2
     47     69     68     87     1  180.0000000  15.3215155  2
     48     47     69     68     1  180.0000000  15.3215155  2
     48     47     69     88     1  180.0000000  15.3215155  2
     48     49     50     51     1  180.0000000  15.3215155  2
     48     49     50     68     1  180.0000000  15.3215155  2
     49     48     47     69     1  180.0000000  15.3215155  2
     49     50     51     52     1  180.0000000  4.8669776  2
     49     50     51     58     1  180.0000000  4.8669776  2
     49     50     68     69     1  180.0000000  15.3215155  2
     49     50     68     87     1  180.0000000  15.3215155  2
     50     49     48     70     1  180.0000000  15.3215155  2
     50     51     52     53     1  180.0000000  15.3215155  2
     50     51     52     59     1  180.0000000  15.3215155  2
     50     51     58     57     1  180.0000000  15.3215155  2
     50     51     58     77     1  180.0000000  15.3215155  2
     50     68     69     88     1  180.0000000  15.3215155  2
     51     50     49     71     1  180.0000000  15.3215155  2
     51     50     68     69     1  180.0000000  15.3215155  2
     51     50     68     87     1  180.0000000  15.3215155  2
     51     52     53     54     1  180.0000000  15.3215155  2
     51     52     53     72     1  180.0000000  15.3215155  2
     51     52     59     60     1  180.0000000  4.8669776  2
     51     52     59     64     1  180.0000000  4.8669776  2
     51     58     57     54     1  180.0000000  15.3215155  2
     51     58     57     76     1  180.0000000  15.3215155  2
     52     51     50     68     1  180.0000000  4.8669776  2
     52     51     58     57     1  180.0000000  15.3215155  2
     52     51     58     77     1  180.0000000  15.3215155  2
     52     53     54     55     1  180.0000000  15.3215155  2
     52     53     54     57     1  180.0000000  15.3215155  2
     52     59     60     61     1  180.0000000  15.3215155  2
     52     59     60     78     1  180.0000000  15.3215155  2
     52     59     64     63     1  180.0000000  15.3215155  2
     52     59     64     81     1  180.0000000  15.3215155  2
     53     52     51     58     1  180.0000000  15.3215155  2
     53     52     59     60     1  180.0000000  4.8669776  2
     53     52     59     64     1  180.0000000  4.8669776  2
     53     54     55     56     1  180.0000000  6.4108617  2
     53     54     57     58     1  180.0000000  15.3215155  2
     53     54     57     76     1  180.0000000  15.3215155  2
     54     53     52     59     1  180.0000000  15.3215155  2
     54     55     56     73     1  0.0000000  0.1982205  3
     54     55     56     74     1  0.0000000  0.1982205  3
     54     55     56     75     1  0.0000000  0.1982205  3
     54     57     58     77     1  180.0000000  15.3215155  2
     55     54     53     72     1  180.0000000  15.3215155  2
     55     54     57     58     1  180.0000000  15.3215155  2
     55     54     57     76     1  180.0000000  15.3215155  2
     56     55     54     57     1  180.0000000  6.4108617  2
     57     54     53     72     1  180.0000000  15.3215155  2
     58     51     50     68     1  180.0000000  4.8669776  2
     58     51     52     59     1  180.0000000  15.3215155  2
     59     52     53     72     1  180.0000000  15.3215155  2
     59     60     61     62     1  180.0000000  15.3215155  2
     59     60     61     79     1  180.0000000  15.3215155  2
     59     64     63     62     1  180.0000000  15.3215155  2
     59     64     63     65     1  180.0000000  15.3215155  2
     60     59     64     63     1  180.0000000  15.3215155  2
     60     59     64     81     1  180.0000000  15.3215155  2
     60     61     62     63     1  180.0000000  15.3215155  2
     60     61     62     80     1  180.0000000  15.3215155  2
     61     60     59     64     1  180.0000000  15.3215155  2
     61     62     63     64     1  180.0000000  15.3215155  2
     61     62     63     65     1  180.0000000  15.3215155  2
     62     61     60     78     1  180.0000000  15.3215155  2
     62     63     64     81     1  180.0000000  15.3215155  2
     62     63     65     66     1  0.0000000  0.1115010  3
     62     63     65     67     1  0.0000000  0.1115010  3
     62     63     65     82     1  0.0000000  0.1115010  3
     63     62     61     79     1  180.0000000  15.3215155  2
     63     65     66     83     1  0.0000000  0.7624859  2
     63     65     66     83     1  0.0000000  0.1243628  3
     63     65     66     89     1  180.0000000  -2.8834993  2
     63     65     66     89     1  0.0000000  1.1413309  1
     63     65     67     84     1  0.0000000  0.4834079  3
     63     65     67     85     1  0.0000000  0.4834079  3
     63     65     67     86     1  0.0000000  0.4834079  3
     64     59     60     78     1  180.0000000  15.3215155  2
     64     63     62     80     1  180.0000000  15.3215155  2
     64     63     65     66     1  0.0000000  0.1115010  3
     64     63     65     67     1  0.0000000  0.1115010  3
     64     63     65     82     1  0.0000000  0.1115010  3
     65     63     62     80     1  180.0000000  15.3215155  2
     65     63     64     81     1  180.0000000  15.3215155  2
     65     66     89     90     1  180.0000000  12.9785537  2
     65     66     89     90     1  0.0000000  -1.7791009  1
     65     66     89     91     1  180.0000000  7.5690543  2
     65     66     89     91     1  0.0000000  -0.2015131  1
     66     65     67     84     1  0.0000000  0.4834079  3
     66     65     67     85     1  0.0000000  0.4834079  3
     66     65     67     86     1  0.0000000  0.4834079  3
     66     89     91     92     1  180.0000000  4.1731909  2
     66     89     91    113     1  180.0000000  4.1731909  2
     67     65     66     83     1  0.0000000  0.7624859  2
     67     65     66     83     1  0.0000000  0.1243628  3
     67     65     66     89     1  180.0000000  -0.6228629  4
     67     65     66     89     1  180.0000000  -0.5147696  3
     67     65     66     89     1  0.0000000  1.2298012  2
     67     65     66     89     1  0.0000000  -1.2652947  1
     68     50     49     71     1  180.0000000  15.3215155  2
     69     47     48     70     1  180.0000000  15.3215155  2
     70     48     49     71     1  180.0000000  15.3215155  2
     76     57     58     77     1  180.0000000  15.3215155  2
     78     60     61     79     1  180.0000000  15.3215155  2
     79     61     62     80     1  180.0000000  15.3215155  2
     82     65     66     83     1  0.0000000  0.7624859  2
     82     65     66     83     1  0.0000000  0.1243628  3
     82     65     66     89     1  0.0000000  0.7624859  2
     82     65     66     89     1  0.0000000  0.1243628  3
     82     65     67     84     1  0.0000000  0.7999501  3
     82     65     67     85     1  0.0000000  0.7999501  3
     82     65     67     86     1  0.0000000  0.7999501  3
     83     66     89     90     1  180.0000000  9.8256037  2
     83     66     89     90     1  0.0000000  5.2557574  1
     83     66     89     91     1  180.0000000  7.5690543  2
     83     66     89     91     1  0.0000000  -0.2015131  1
     87     68     69     88     1  180.0000000  15.3215155  2
     89     91     92     93     1  180.0000000  15.3215155  2
     89     91     92    114     1  180.0000000  15.3215155  2
     89     91    113    112     1  180.0000000  15.3215155  2
     89     91    113    132     1  180.0000000  15.3215155  2
     90     89     91     92     1  180.0000000  4.1731909  2
     90     89     91    113     1  180.0000000  4.1731909  2
     91     92     93     94     1  180.0000000  15.3215155  2
     91     92     93    115     1  180.0000000  15.3215155  2
     91    113    112     94     1  180.0000000  15.3215155  2
     91    113    112    131     1  180.0000000  15.3215155  2
     92     91    113    112     1  180.0000000  15.3215155  2
     92     91    113    132     1  180.0000000  15.3215155  2
     92     93     94     95     1  180.0000000  15.3215155  2
     92     93     94    112     1  180.0000000  15.3215155  2
     93     92     91    113     1  180.0000000  15.3215155  2
     93     94     95     96     1  180.0000000  4.8669776  2
     93     94     95    102     1  180.0000000  4.8669776  2
     93     94    112    113     1  180.0000000  15.3215155  2
     93     94    112    131     1  180.0000000  15.3215155  2
     94     93     92    114     1  180.0000000  15.3215155  2
     94     95     96     97     1  180.0000000  15.3215155  2
     94     95     96    103     1  180.0000000  15.3215155  2
     94     95    102    101     1  180.0000000  15.3215155  2
     94     95    102    121     1  180.0000000  15.3215155  2
     94    112    113    132     1  180.0000000  15.3215155  2
     95     94     93    115     1  180.0000000  15.3215155  2
     95     94    112    113     1  180.0000000  15.3215155  2
     95     94    112    131     1  180.0000000  15.3215155  2
     95     96     97     98     1  180.0000000  15.3215155  2
     95     96     97    116     1  180.0000000  15.3215155  2
     95     96    103    104     1  180.0000000  4.8669776  2
     95     96    103    108     1  180.0000000  4.8669776  2
     95    102    101     98     1  180.0000000  15.3215155  2
     95    102    101    120     1  180.0000000  15.3215155  2
     96     95     94    112     1  180.0000000  4.8669776  2
     96     95    102    101     1  180.0000000  15.3215155  2
     96     95    102    121     1  180.0000000  15.3215155  2
     96     97     98     99     1  180.0000000  15.3215155  2
     96     97     98    101     1  180.0000000  15.3215155  2
     96    103    104    105     1  180.0000000  15.3215155  2
     96    103    104    122     1  180.0000000  15.3215155  2
     96    103    108    107     1  180.0000000  15.3215155  2
     96    103    108    125     1  180.0000000  15.3215155  2
     97     96     95    102     1  180.0000000  15.3215155  2
     97     96    103    104     1  180.0000000  4.8669776  2
     97     96    103    108     1  180.0000000  4.8669776  2
     97     98     99    100     1  180.0000000  6.4108617  2
     97     98    101    102     1  180.0000000  15.3215155  2
     97     98    101    120     1  180.0000000  15.3215155  2
     98     97     96    103     1  180.0000000  15.3215155  2
     98     99    100    117     1  0.0000000  0.1982205  3
     98     99    100    118     1  0.0000000  0.1982205  3
     98     99    100    119     1  0.0000000  0.1982205  3
     98    101    102    121     1  180.0000000  15.3215155  2
     99     98     97    116     1  180.0000000  15.3215155  2
     99     98    101    102     1  180.0000000  15.3215155  2
     99     98    101    120     1  180.0000000  15.3215155  2
    100     99     98    101     1  180.0000000  6.4108617  2
    101     98     97    116     1  180.0000000  15.3215155  2
    102     95     94    112     1  180.0000000  4.8669776  2
    102     95     96    103     1  180.0000000  15.3215155  2
    103     96     97    116     1  180.0000000  15.3215155  2
    103    104    105    106     1  180.0000000  15.3215155  2
    103    104    105    123     1  180.0000000  15.3215155  2
    103    108    107    106     1  180.0000000  15.3215155  2
    103    108    107    109     1  180.0000000  15.3215155  2
    104    103    108    107     1  180.0000000  15.3215155  2
    104    103    108    125     1  180.0000000  15.3215155  2
    104    105    106    107     1  180.0000000  15.3215155  2
    104    105    106    124     1  180.0000000  15.3215155  2
    105    104    103    108     1  180.0000000  15.3215155  2
    105    106    107    108     1  180.0000000  15.3215155  2
    105    106    107    109     1  180.0000000  15.3215155  2
    106    105    104    122     1  180.0000000  15.3215155  2
    106    107    108    125     1  180.0000000  15.3215155  2
    106    107    109    110     1  0.0000000  0.1115010  3
    106    107    109    111     1  0.0000000  0.1115010  3
    106    107    109    126     1  0.0000000  0.1115010  3
    107    106    105    123     1  180.0000000  15.3215155  2
    107    109    110    127     1  0.0000000  0.7624859  2
    107    109    110    127     1  0.0000000  0.1243628  3
    107    109    110    133     1  180.0000000  -2.8834993  2
    107    109    110    133     1  0.0000000  1.1413309  1
    107    109    111    128     1  0.0000000  0.4834079  3
    107    109    111    129     1  0.0000000  0.4834079  3
    107    109    111    130     1  0.0000000  0.4834079  3
    108    103    104    122     1  180.0000000  15.3215155  2
    108    107    106    124     1  180.0000000  15.3215155  2
    108    107    109    110     1  0.0000000  0.1115010  3
    108    107    109    111     1  0.0000000  0.1115010  3
    108    107    109    126     1  0.0000000  0.1115010  3
    109    107    106    124     1  180.0000000  15.3215155  2
    109    107    108    125     1  180.0000000  15.3215155  2
    109    110    133    134     1  180.0000000  12.9785537  2
    109    110    133    134     1  0.0000000  -1.7791009  1
    109    110    133    135     1  180.0000000  7.5690543  2
    109    110    133    135     1  0.0000000  -0.2015131  1
    110    109    111    128     1  0.0000000  0.4834079  3
    110    109    111    129     1  0.0000000  0.4834079  3
    110    109    111    130     1  0.0000000  0.4834079  3
    110    133    135    136     1  180.0000000  4.1731909  2
    110    133    135    157     1  180.0000000  4.1731909  2
    111    109    110    127     1  0.0000000  0.7624859  2
    111    109    110    127     1  0.0000000  0.1243628  3
    111    109    110    133     1  180.0000000  -0.6228629  4
    111    109    110    133     1  180.0000000  -0.5147696  3
    111    109    110    133     1  0.0000000  1.2298012  2
    111    109    110    133     1  0.0000000  -1.2652947  1
    112     94     93    115     1  180.0000000  15.3215155  2
    113     91     92    114     1  180.0000000  15.3215155  2
    114     92     93    115     1  180.0000000  15.3215155  2
    120    101    102    121     1  180.0000000  15.3215155  2
    122    104    105    123     1  180.0000000  15.3215155  2
    123    105    106    124     1  180.0000000  15.3215155  2
    126    109    110    127     1  0.0000000  0.7624859  2
    126    109    110    127     1  0.0000000  0.1243628  3
    126    109    110    133     1  0.0000000  0.7624859  2
    126    109    110    133     1  0.0000000  0.1243628  3
    126    109    111    128     1  0.0000000  0.7999501  3
    126    109    111    129     1  0.0000000  0.7999501  3
    126    109    111    130     1  0.0000000  0.7999501  3
    127    110    133    134     1  180.0000000  9.8256037  2
    127    110    133    134     1  0.0000000  5.2557574  1
    127    110    133    135     1  180.0000000  7.5690543  2
    127    110    133    135     1  0.0000000  -0.2015131  1
    131    112    113    132     1  180.0000000  15.3215155  2
    133    135    136    137     1  180.0000000  15.3215155  2
    133    135    136    158     1  180.0000000  15.3215155  2
    133    135    157    156     1  180.0000000  15.3215155  2
    133    135    157    176     1  180.0000000  15.3215155  2
    134    133    135    136     1  180.0000000  4.1731909  2
    134    133    135    157     1  180.0000000  4.1731909  2
    135    136    137    138     1  180.0000000  15.3215155  2
    135    136    137    159     1  180.0000000  15.3215155  2
    135    157    156    138     1  180.0000000  15.3215155  2
    135    157    156    175     1  180.0000000  15.3215155  2
    136    135    157    156     1  180.0000000  15.3215155  2
    136    135    157    176     1  180.0000000  15.3215155  2
    136    137    138    139     1  180.0000000  15.3215155  2
    136    137    138    156     1  180.0000000  15.3215155  2
    137    136    135    157     1  180.0000000  15.3215155  2
    137    138    139    140     1  180.0000000  4.8669776  2
    137    138    139    146     1  180.0000000  4.8669776  2
    137    138    156    157     1  180.0000000  15.3215155  2
    137    138    156    175     1  180.0000000  15.3215155  2
    138    137    136    158     1  180.0000000  15.3215155  2
    138    139    140    141     1  180.0000000  15.3215155  2
    138    139    140    147     1  180.0000000  15.3215155  2
    138    139    146    145     1  180.0000000  15.3215155  2
    138    139    146    165     1  180.0000000  15.3215155  2
    138    156    157    176     1  180.0000000  15.3215155  2
    139    138    137    159     1  180.0000000  15.3215155  2
    139    138    156    157     1  180.0000000  15.3215155  2
    139    138    156    175     1  180.0000000  15.3215155  2
    139    140    141    142     1  180.0000000  15.3215155  2
    139    140    141    160     1  180.0000000  15.3215155  2
    139    140    147    148     1  180.0000000  4.8669776  2
    139    140    147    152     1  180.0000000  4.8669776  2
    139    146    145    142     1  180.0000000  15.3215155  2
    139    146    145    164     1  180.0000000  15.3215155  2
    140    139    138    156     1  180.0000000  4.8669776  2
    140    139    146    145     1  180.0000000  15.3215155  2
    140    139    146    165     1  180.0000000  15.3215155  2
    140    141    142    143     1  180.0000000  15.3215155  2
    140    141    142    145     1  180.0000000  15.3215155  2
    140    147    148    149     1  180.0000000  15.3215155  2
    140    147    148    166     1  180.0000000  15.3215155  2
    140    147    152    151     1  180.0000000  15.3215155  2
    140    147    152    169     1  180.0000000  15.3215155  2
    141    140    139    146     1  180.0000000  15.3215155  2
    141    140    147    148     1  180.0000000  4.8669776  2
    141    140    147    152     1  180.0000000  4.8669776  2
    141    142    143    144     1  180.0000000  6.4108617  2
    141    142    145    146     1  180.0000000  15.3215155  2
    141    142    145    164     1  180.0000000  15.3215155  2
    142    141    140    147     1  180.0000000  15.3215155  2
    142    143    144    161     1  0.0000000  0.1982205  3
    142    143    144    162     1  0.0000000  0.1982205  3
    142    143    144    163     1  0.0000000  0.1982205  3
    142    145    146    165     1  180.0000000  15.3215155  2
    143    142    141    160     1  180.0000000  15.3215155  2
    143    142    145    146     1  180.0000000  15.3215155  2
    143    142    145    164     1  180.0000000  15.3215155  2
    144    143    142    145     1  180.0000000  6.4108617  2
    145    142    141    160     1  180.0000000  15.3215155  2
    146    139    138    156     1  180.0000000  4.8669776  2
    146    139    140    147     1  180.0000000  15.3215155  2
    147    140    141    160     1  180.0000000  15.3215155  2
    147    148    149    150     1  180.0000000  15.3215155  2
    147    148    149    167     1  180.0000000  15.3215155  2
    147    152    151    150     1  180.0000000  15.3215155  2
    147    152    151    153     1  180.0000000  15.3215155  2
    148    147    152    151     1  180.0000000  15.3215155  2
    148    147    152    169     1  180.0000000  15.3215155  2
    148    149    150    151     1  180.0000000  15.3215155  2
    148    149    150    168     1  180.0000000  15.3215155  2
    149    148    147    152     1  180.0000000  15.3215155  2
    149    150    151    152     1  180.0000000  15.3215155  2
    149    150    151    153     1  180.0000000  15.3215155  2
    150    149    148    166     1  180.0000000  15.3215155  2
    150    151    152    169     1  180.0000000  15.3215155  2
    150    151    153    154     1  0.0000000  0.1115010  3
    150    151    153    155     1  0.0000000  0.1115010  3
    150    151    153    170     1  0.0000000  0.1115010  3
    151    150    149    167     1  180.0000000  15.3215155  2
    151    153    154    171     1  0.0000000  0.7624859  2
    151    153    154    171     1  0.0000000  0.1243628  3
    151    153    154    187     1  180.0000000  -2.8834993  2
    151    153    154    187     1  0.0000000  1.1413309  1
    151    153    155    172     1  0.0000000  0.4834079  3
    151    153    155    173     1  0.0000000  0.4834079  3
    151    153    155    174     1  0.0000000  0.4834079  3
    152    147    148    166     1  180.0000000  15.3215155  2
    152    151    150    168     1  180.0000000  15.3215155  2
    152    151    153    154     1  0.0000000  0.1115010  3
    152    151    153    155     1  0.0000000  0.1115010  3
    152    151    153    170     1  0.0000000  0.1115010  3
    153    151    150    168     1  180.0000000  15.3215155  2
    153    151    152    169     1  180.0000000  15.3215155  2
    153    154    187    186     1  180.0000000  7.5690543  2
    153    154    187    186     1  0.0000000  -0.2015131  1
    153    154    187    188     1  180.0000000  7.5690543  2
    153    154    187    188     1  0.0000000  -0.2015131  1
    154    153    155    172     1  0.0000000  0.4834079  3
    154    153    155    173     1  0.0000000  0.4834079  3
    154    153    155    174     1  0.0000000  0.4834079  3
    154    187    186    183     1  180.0000000  11.6309081  2
    155    153    154    171     1  0.0000000  0.7624859  2
    155    153    154    171     1  0.0000000  0.1243628  3
    155    153    154    187     1  180.0000000  -0.6228629  4
    155    153    154    187     1  180.0000000  -0.5147696  3
    155    153    154    187     1  0.0000000  1.2298012  2
    155    153    154    187     1  0.0000000  -1.2652947  1
    156    138    137    159     1  180.0000000  15.3215155  2
    157    135    136    158     1  180.0000000  15.3215155  2
    158    136    137    159     1  180.0000000  15.3215155  2
    164    145    146    165     1  180.0000000  15.3215155  2
    166    148    149    167     1  180.0000000  15.3215155  2
    167    149    150    168     1  180.0000000  15.3215155  2
    170    153    154    171     1  0.0000000  0.7624859  2
    170    153    154    171     1  0.0000000  0.1243628  3
    170    153    154    187     1  0.0000000  0.7624859  2
    170    153    154    187     1  0.0000000  0.1243628  3
    170    153    155    172     1  0.0000000  0.7999501  3
    170    153    155    173     1  0.0000000  0.7999501  3
    170    153    155    174     1  0.0000000  0.7999501  3
    171    154    187    186     1  180.0000000  7.5690543  2
    171    154    187    186     1  0.0000000  -0.2015131  1
    171    154    187    188     1  180.0000000  2.0338395  2
    171    154    187    188     1  0.0000000  3.7308670  1
    175    156    157    176     1  180.0000000  15.3215155  2
    182    183    184    192     1  0.0000000  0.4354138  3
    182    183    184    193     1  0.0000000  0.4354138  3
    182    183    184    194     1  0.0000000  0.4354138  3
    182    183    185    195     1  0.0000000  0.4354138  3
    182    183    185    196     1  0.0000000  0.4354138  3
    182    183    185    197     1  0.0000000  0.4354138  3
    182    183    186    187     1  0.0000000  0.8026052  3
    182    183    186    187     1  180.0000000  3.8501921  1
    183    186    187    188     1  180.0000000  4.8693776  2
    183    186    187    188     1  180.0000000  0.7025718  1
    184    183    182    189     1  0.0000000  0.4354138  3
    184    183    182    190     1  0.0000000  0.4354138  3
    184    183    182    191     1  0.0000000  0.4354138  3
    184    183    185    195     1  0.0000000  0.4354138  3
    184    183    185    196     1  0.0000000  0.4354138  3
    184    183    185    197     1  0.0000000  0.4354138  3
    184    183    186    187     1  0.0000000  0.8026052  3
    184    183    186    187     1  180.0000000  3.8501921  1
    185    183    182    189     1  0.0000000  0.4354138  3
    185    183    182    190     1  0.0000000  0.4354138  3
    185    183    182    191     1  0.0000000  0.4354138  3
    185    183    184    192     1  0.0000000  0.4354138  3
    185    183    184    193     1  0.0000000  0.4354138  3
    185    183    184    194     1  0.0000000  0.4354138  3
    185    183    186    187     1  0.0000000  0.8026052  3
    185    183    186    187     1  180.0000000  3.8501921  1
    186    183    182    189     1  0.0000000  0.4667359  3
    186    183    182    189     1  0.0000000  1.4361539  1
    186    183    182    190     1  0.0000000  0.4667359  3
    186    183    182    190     1  0.0000000  1.4361539  1
    186    183    182    191     1  0.0000000  0.4667359  3
    186    183    182    191     1  0.0000000  1.4361539  1
    186    183    184    192     1  0.0000000  0.4667359  3
    186    183    184    192     1  0.0000000  1.4361539  1
    186    183    184    193     1  0.0000000  0.4667359  3
    186    183    184    193     1  0.0000000  1.4361539  1
    186    183    184    194     1  0.0000000  0.4667359  3
    186    183    184    194     1  0.0000000  1.4361539  1
    186    183    185    195     1  0.0000000  0.4667359  3
    186    183    185    195     1  0.0000000  1.4361539  1
    186    183    185    196     1  0.0000000  0.4667359  3
    186    183    185    196     1  0.0000000  1.4361539  1
    186    183    185    197     1  0.0000000  0.4667359  3
    186    183    185    197     1  0.0000000  1.4361539  1
    146    165    139    145     4  180.0000000  1.5341333  2
    104    122    103    105     4  180.0000000  1.5341333  2
    142    145    141    143     4  180.0000000  1.5341333  2
     53     54     72     52     4  180.0000000  1.5341333  2
     13     32     10     14     4  180.0000000  1.5341333  2
     14     33      7     13     4  180.0000000  1.5341333  2
     45     46     47     22     4  180.0000000  1.5341333  2
     60     59     61     78     4  180.0000000  1.5341333  2
    151    153    150    152     4  180.0000000  1.5341333  2
      3     25      1      4     4  180.0000000  1.5341333  2
      3      1      4     25     4  180.0000000  1.5341333  2
    136    137    158    135     4  180.0000000  1.5341333  2
     61     62     79     60     4  180.0000000  1.5341333  2
     68     87     50     69     4  180.0000000  1.5341333  2
     18     17     19     36     4  180.0000000  1.5341333  2
     60     61     78     59     4  180.0000000  1.5341333  2
    138    139    156    137     4  180.0000000  1.5341333  2
     62     61     63     80     4  180.0000000  1.5341333  2
     66     89     65     83     4  180.0000000  1.3946667  2
     22     39     45     21     4  180.0000000  1.3946667  2
    187    186    188    154     4  180.0000000  14.6440000  2
     94     95    112     93     4  180.0000000  1.5341333  2
     66     65     83     89     4  180.0000000  1.3946667  2
     57     54     58     76     4  180.0000000  1.5341333  2
    141    142    160    140     4  180.0000000  1.5341333  2
     48     49     70     47     4  180.0000000  1.5341333  2
    157    135    156    176     4  180.0000000  1.5341333  2
     16     17     34     15     4  180.0000000  1.5341333  2
    135    157    133    136     4  180.0000000  1.5341333  2
      4      5     26      3     4  180.0000000  1.5341333  2
     92    114     91     93     4  180.0000000  1.5341333  2
    137    136    138    159     4  180.0000000  1.5341333  2
     61     60     62     79     4  180.0000000  1.5341333  2
    147    140    148    152     4  180.0000000  1.5341333  2
     51     52     58     50     4  180.0000000  1.5341333  2
    105    106    123    104     4  180.0000000  1.5341333  2
     89     90     91     66     4  180.0000000  1.5341333  2
    112    113    131     94     4  180.0000000  1.5341333  2
     48     70     47     49     4  180.0000000  1.5341333  2
      6      5      7     24     4  180.0000000  1.5341333  2
    133    135    110    134     4  180.0000000  1.5341333  2
    105    123    104    106     4  180.0000000  1.5341333  2
      1    178      2      3     4  180.0000000  14.6440000  2
    136    135    137    158     4  180.0000000  1.5341333  2
     45     47     22     46     4  180.0000000  1.5341333  2
    187    154    186    188     4  180.0000000  14.6440000  2
     61     79     60     62     4  180.0000000  1.5341333  2
    101    120     98    102     4  180.0000000  1.5341333  2
     60     78     59     61     4  180.0000000  1.5341333  2
     63     64     65     62     4  180.0000000  1.5341333  2
    156    157    175    138     4  180.0000000  1.5341333  2
    108    125    103    107     4  180.0000000  1.5341333  2
     96     97    103     95     4  180.0000000  1.5341333  2
     50     49     51     68     4  180.0000000  1.5341333  2
     64     59     63     81     4  180.0000000  1.5341333  2
     63     62     64     65     4  180.0000000  1.5341333  2
     20     37     15     19     4  180.0000000  1.5341333  2
     17     16     18     35     4  180.0000000  1.5341333  2
    150    168    149    151     4  180.0000000  1.5341333  2
      7     14      6      8     4  180.0000000  1.5341333  2
     66     83     89     65     4  180.0000000  1.3946667  2
     52     53     59     51     4  180.0000000  1.5341333  2
     49     48     50     71     4  180.0000000  1.5341333  2
    105    104    106    123     4  180.0000000  1.5341333  2
    139    146    138    140     4  180.0000000  1.5341333  2
     97    116     96     98     4  180.0000000  1.5341333  2
    110    127    133    109     4  180.0000000  1.3946667  2
    135    133    136    157     4  180.0000000  1.5341333  2
     10     11     13      9     4  180.0000000  1.5341333  2
    133    110    134    135     4  180.0000000  1.5341333  2
    112    131     94    113     4  180.0000000  1.5341333  2
    110    133    109    127     4  180.0000000  1.3946667  2
     22     45     21     39     4  180.0000000  1.3946667  2
    141    140    142    160     4  180.0000000  1.5341333  2
    113    132     91    112     4  180.0000000  1.5341333  2
     69     47     68     88     4  180.0000000  1.5341333  2
    103     96    104    108     4  180.0000000  1.5341333  2
      4      3      5     26     4  180.0000000  1.5341333  2
    150    151    168    149     4  180.0000000  1.5341333  2
    106    105    107    124     4  180.0000000  1.5341333  2
      1      3    178      2     4  180.0000000  14.6440000  2
      9      8     10     28     4  180.0000000  1.5341333  2
     45     22     46     47     4  180.0000000  1.5341333  2
      9     28      8     10     4  180.0000000  1.5341333  2
     58     57     77     51     4  180.0000000  1.5341333  2
    156    175    138    157     4  180.0000000  1.5341333  2
    107    108    109    106     4  180.0000000  1.5341333  2
     69     68     88     47     4  180.0000000  1.5341333  2
     57     76     54     58     4  180.0000000  1.5341333  2
    142    143    145    141     4  180.0000000  1.5341333  2
     19     18     20     21     4  180.0000000  1.5341333  2
     64     63     81     59     4  180.0000000  1.5341333  2
    110    109    127    133     4  180.0000000  1.3946667  2
    149    167    148    150     4  180.0000000  1.5341333  2
      9     10     28      8     4  180.0000000  1.5341333  2
    152    169    147    151     4  180.0000000  1.5341333  2
    136    158    135    137     4  180.0000000  1.5341333  2
    101     98    102    120     4  180.0000000  1.5341333  2
    101    102    120     98     4  180.0000000  1.5341333  2
      5      6     27      4     4  180.0000000  1.5341333  2
     89     66     90     91     4  180.0000000  1.5341333  2
    138    156    137    139     4  180.0000000  1.5341333  2
    103    104    108     96     4  180.0000000  1.5341333  2
     95     94     96    102     4  180.0000000  1.5341333  2
     97     98    116     96     4  180.0000000  1.5341333  2
     25     44      3     24     4  180.0000000  1.5341333  2
     63     65     62     64     4  180.0000000  1.5341333  2
     14      7     13     33     4  180.0000000  1.5341333  2
     68     69     87     50     4  180.0000000  1.5341333  2
     53     72     52     54     4  180.0000000  1.5341333  2
     24     25     43      6     4  180.0000000  1.5341333  2
     96    103     95     97     4  180.0000000  1.5341333  2
    107    109    106    108     4  180.0000000  1.5341333  2
     62     80     61     63     4  180.0000000  1.5341333  2
     19     20     21     18     4  180.0000000  1.5341333  2
    102    121     95    101     4  180.0000000  1.5341333  2
    139    140    146    138     4  180.0000000  1.5341333  2
    142    141    143    145     4  180.0000000  1.5341333  2
     92     91     93    114     4  180.0000000  1.5341333  2
    149    150    167    148     4  180.0000000  1.5341333  2
    113    112    132     91     4  180.0000000  1.5341333  2
    154    187    153    171     4  180.0000000  1.3946667  2
    157    176    135    156     4  180.0000000  1.5341333  2
     59     60     64     52     4  180.0000000  1.5341333  2
    147    148    152    140     4  180.0000000  1.5341333  2
      5      4      6     27     4  180.0000000  1.5341333  2
    150    149    151    168     4  180.0000000  1.5341333  2
     25      3     24     44     4  180.0000000  1.5341333  2
     10      9     11     13     4  180.0000000  1.5341333  2
    140    147    139    141     4  180.0000000  1.5341333  2
    104    105    122    103     4  180.0000000  1.5341333  2
     98     99    101     97     4  180.0000000  1.5341333  2
     57     58     76     54     4  180.0000000  1.5341333  2
     22     21     39     45     4  180.0000000  1.3946667  2
     93     92     94    115     4  180.0000000  1.5341333  2
     54     53     55     57     4  180.0000000  1.5341333  2
     17     35     16     18     4  180.0000000  1.5341333  2
    113     91    112    132     4  180.0000000  1.5341333  2
     47     69     45     48     4  180.0000000  1.5341333  2
     93     94    115     92     4  180.0000000  1.5341333  2
     49     71     48     50     4  180.0000000  1.5341333  2
     25     24     44      3     4  180.0000000  1.5341333  2
      8      9     15      7     4  180.0000000  1.5341333  2
     98    101     97     99     4  180.0000000  1.5341333  2
    148    149    166    147     4  180.0000000  1.5341333  2
    137    138    159    136     4  180.0000000  1.5341333  2
    145    146    164    142     4  180.0000000  1.5341333  2
     95    102     94     96     4  180.0000000  1.5341333  2
     24     43      6     25     4  180.0000000  1.5341333  2
     59     52     60     64     4  180.0000000  1.5341333  2
     51     50     52     58     4  180.0000000  1.5341333  2
     20     19     37     15     4  180.0000000  1.5341333  2
     14     13     33      7     4  180.0000000  1.5341333  2
    151    150    152    153     4  180.0000000  1.5341333  2
    108    107    125    103     4  180.0000000  1.5341333  2
     50     51     68     49     4  180.0000000  1.5341333  2
     64     81     59     63     4  180.0000000  1.5341333  2
     93    115     92     94     4  180.0000000  1.5341333  2
    103    108     96    104     4  180.0000000  1.5341333  2
    138    137    139    156     4  180.0000000  1.5341333  2
     16     34     15     17     4  180.0000000  1.5341333  2
    152    151    169    147     4  180.0000000  1.5341333  2
    145    164    142    146     4  180.0000000  1.5341333  2
    151    152    153    150     4  180.0000000  1.5341333  2
     98     97     99    101     4  180.0000000  1.5341333  2
     58     51     57     77     4  180.0000000  1.5341333  2
     51     58     50     52     4  180.0000000  1.5341333  2
     15      8     16     20     4  180.0000000  1.5341333  2
     18     19     36     17     4  180.0000000  1.5341333  2
    133    134    135    110     4  180.0000000  1.5341333  2
     47     45     48     69     4  180.0000000  1.5341333  2
    102     95    101    121     4  180.0000000  1.5341333  2
    108    103    107    125     4  180.0000000  1.5341333  2
    148    166    147    149     4  180.0000000  1.5341333  2
     58     77     51     57     4  180.0000000  1.5341333  2
     47     48     69     45     4  180.0000000  1.5341333  2
    157    156    176    135     4  180.0000000  1.5341333  2
     94    112     93     95     4  180.0000000  1.5341333  2
     17     18     35     16     4  180.0000000  1.5341333  2
      8     15      7      9     4  180.0000000  1.5341333  2
    154    153    171    187     4  180.0000000  1.3946667  2
     91     89     92    113     4  180.0000000  1.5341333  2
      3      4     25      1     4  180.0000000  1.5341333  2
      4     26      3      5     4  180.0000000  1.5341333  2
      6      7     24      5     4  180.0000000  1.5341333  2
     49     50     71     48     4  180.0000000  1.5341333  2
    106    124    105    107     4  180.0000000  1.5341333  2
    146    139    145    165     4  180.0000000  1.5341333  2
     95     96    102     94     4  180.0000000  1.5341333  2
      5     27      4      6     4  180.0000000  1.5341333  2
     59     64     52     60     4  180.0000000  1.5341333  2
     68     50     69     87     4  180.0000000  1.5341333  2
    148    147    149    166     4  180.0000000  1.5341333  2
     54     57     53     55     4  180.0000000  1.5341333  2
    147    152    140    148     4  180.0000000  1.5341333  2
     96     95     97    103     4  180.0000000  1.5341333  2
    102    101    121     95     4  180.0000000  1.5341333  2
     15     16     20      8     4  180.0000000  1.5341333  2
     91    113     89     92     4  180.0000000  1.5341333  2
    104    103    105    122     4  180.0000000  1.5341333  2
    146    145    165    139     4  180.0000000  1.5341333  2
    141    160    140    142     4  180.0000000  1.5341333  2
     15     20      8     16     4  180.0000000  1.5341333  2
    156    138    157    175     4  180.0000000  1.5341333  2
    140    141    147    139     4  180.0000000  1.5341333  2
    107    106    108    109     4  180.0000000  1.5341333  2
     10     13      9     11     4  180.0000000  1.5341333  2
     69     88     47     68     4  180.0000000  1.5341333  2
    140    139    141    147     4  180.0000000  1.5341333  2
    135    136    157    133     4  180.0000000  1.5341333  2
     89     91     66     90     4  180.0000000  1.5341333  2
    139    138    140    146     4  180.0000000  1.5341333  2
    149    148    150    167     4  180.0000000  1.5341333  2
     13     10     14     32     4  180.0000000  1.5341333  2
      7      6      8     14     4  180.0000000  1.5341333  2
    106    107    124    105     4  180.0000000  1.5341333  2
     13     14     32     10     4  180.0000000  1.5341333  2
     91     92    113     89     4  180.0000000  1.5341333  2
     48     47     49     70     4  180.0000000  1.5341333  2
    152    147    151    169     4  180.0000000  1.5341333  2
    112     94    113    131     4  180.0000000  1.5341333  2
     24      6     25     43     4  180.0000000  1.5341333  2
      1      2      3    178     4  180.0000000  14.6440000  2
     94     93     95    112     4  180.0000000  1.5341333  2
    154    171    187    153     4  180.0000000  1.3946667  2
     50     68     49     51     4  180.0000000  1.5341333  2
     92     93    114     91     4  180.0000000  1.5341333  2
     62     63     80     61     4  180.0000000  1.5341333  2
    145    142    146    164     4  180.0000000  1.5341333  2
     97     96     98    116     4  180.0000000  1.5341333  2
     18     36     17     19     4  180.0000000  1.5341333  2
    187    188    154    186     4  180.0000000  14.6440000  2
     52     51     53     59     4  180.0000000  1.5341333  2
     19     21     18     20     4  180.0000000  1.5341333  2
    137    159    136    138     4  180.0000000  1.5341333  2
      6     24      5      7     4  180.0000000  1.5341333  2
     52     59     51     53     4  180.0000000  1.5341333  2
     16     15     17     34     4  180.0000000  1.5341333  2
     20     15     19     37     4  180.0000000  1.5341333  2
      8      7      9     15     4  180.0000000  1.5341333  2
      7      8     14      6     4  180.0000000  1.5341333  2
     53     52     54     72     4  180.0000000  1.5341333  2
     54     55     57     53     4  180.0000000  1.5341333  2


[ moleculetype ]
; Name            nrexcl
TCM          3

[ atoms ]
;   nr       type  resnr residue  atom   cgnr    charge       mass  typeB    chargeB      massB
; residue    1 TCM rtp TCM q 0.0
    1      TCM_0      1    TCM     c1      1 0.22438000   9.994886   ; qtot 0.224380
    2      TCM_1      1    TCM    cl1      2 -0.11463000  35.453200   ; qtot 0.109750
    3      TCM_2      1    TCM    cl2      3 -0.11463000  35.453200   ; qtot -0.004880
    4      TCM_3      1    TCM     h1      4 0.11951000   3.023841   ; qtot 0.114630
    5      TCM_4      1    TCM    cl3      5 -0.11463000  35.453200   ; qtot 0.000000

[ bonds ]
;    ai     aj funct         c0         c1         c2         c3
      1      2     1   0.17948 173885.040698
      1      3     1   0.17948 173885.040698
      1      4     1   0.10929 317186.185379
      1      5     1   0.17948 173885.040698

[ angles ]
;    ai     aj     ak funct         c0         c1         c2         c3
      2      1      3     1   107.6607822 425.669015
      2      1      4     1   107.6607822 425.669015
      2      1      5     1   107.6607822 425.669015
      3      1      4     1   107.6607822 425.669015
      3      1      5     1   107.6607822 425.669015
      4      1      5     1   107.6607822 425.669015

[ system ]
; Name
FOO

[ molecules ]
; Compound       #mols
system1              1
TCM                634
