Gnomes, ROck Monsters And Chili Sauce
 3367
    1MOP     C1    1   1.731   0.690   0.533
    1MOP     O2    2   1.713   0.668   0.413
    1MOP     C3    3   1.845   0.774   0.581
    1MOP     C4    4   1.854   0.826   0.710
    1MOP     C5    5   1.968   0.902   0.750
    1MOP     C6    6   2.073   0.930   0.661
    1MOP     C7    7   2.174   1.037   0.684
    1MOP     C8    8   2.271   1.054   0.787
    1MOP     C9    9   2.359   1.166   0.775
    1MOP    C10   10   2.349   1.264   0.677
    1MOP    O11   11   2.438   1.367   0.690
    1MOP    C12   12   2.431   1.468   0.591
    1MOP    C13   13   2.250   1.252   0.583
    1MOP    C14   14   2.165   1.140   0.586
    1MOP    C15   15   2.289   0.983   0.916
    1MOP    C16   16   2.361   0.867   0.933
    1MOP    C17   17   2.395   0.817   1.061
    1MOP    C18   18   2.358   0.885   1.175
    1MOP    C19   19   2.295   1.008   1.163
    1MOP    C20   20   2.267   1.056   1.033
    1MOP    C21   21   2.272   1.094   1.284
    1MOP    N22   22   2.142   1.164   1.288
    1MOP    C23   23   2.391   1.185   1.315
    1MOP    C24   24   2.062   0.871   0.534
    1MOP    C25   25   1.951   0.795   0.494
    1MOP    H26   26   1.775   0.809   0.783
    1MOP    H27   27   1.974   0.941   0.851
    1MOP    H28   28   2.436   1.181   0.852
    1MOP    H29   29   2.508   1.543   0.615
    1MOP    H30   30   2.334   1.518   0.592
    1MOP    H31   31   2.455   1.428   0.492
    1MOP    H32   32   2.234   1.325   0.504
    1MOP    H33   33   2.088   1.135   0.509
    1MOP    H34   34   2.402   0.816   0.848
    1MOP    H35   35   2.454   0.726   1.069
    1MOP    H36   36   2.387   0.846   1.273
    1MOP    H37   37   2.237   1.159   1.020
    1MOP    H38   38   2.265   1.026   1.370
    1MOP    H39   39   2.150   1.228   1.366
    1MOP    H40   40   2.405   1.262   1.237
    1MOP    H41   41   2.484   1.127   1.322
    1MOP    H42   42   2.377   1.237   1.410
    1MOP    H43   43   2.141   0.888   0.460
    1MOP    H44   44   1.948   0.753   0.393
    2MOP    C45   45   2.096   1.243   1.185
    2MOP    O46   46   2.128   1.362   1.181
    2MOP    C47   47   1.991   1.189   1.090
    2MOP    C48   48   1.929   1.063   1.102
    2MOP    C49   49   1.814   1.031   1.023
    2MOP    C50   50   1.763   1.119   0.926
    2MOP    C51   51   1.659   1.085   0.823
    2MOP    C52   52   1.530   1.027   0.840
    2MOP    C53   53   1.451   1.007   0.723
    2MOP    C54   54   1.493   1.036   0.594
    2MOP    O55   55   1.400   1.008   0.498
    2MOP    C56   56   1.438   1.032   0.363
    2MOP    C57   57   1.618   1.089   0.576
    2MOP    C58   58   1.699   1.113   0.688
    2MOP    C59   59   1.461   0.991   0.966
    2MOP    C60   60   1.465   1.068   1.081
    2MOP    C61   61   1.375   1.050   1.185
    2MOP    C62   62   1.288   0.943   1.188
    2MOP    C63   63   1.298   0.850   1.085
    2MOP    C64   64   1.375   0.879   0.971
    2MOP    C65   65   1.276   0.706   1.122
    2MOP    N66   66   1.413   0.655   1.133
    2MOP    C67   67   1.176   0.632   1.034
    2MOP    C68   68   1.830   1.243   0.915
    2MOP    C69   69   1.942   1.277   0.994
    2MOP    H70   70   1.965   0.991   1.175
    2MOP    H71   71   1.769   0.932   1.035
    2MOP    H72   72   1.349   0.970   0.733
    2MOP    H73   73   1.354   1.003   0.299
    2MOP    H74   74   1.525   0.972   0.335
    2MOP    H75   75   1.456   1.139   0.346
    2MOP    H76   76   1.657   1.113   0.478
    2MOP    H77   77   1.797   1.154   0.669
    2MOP    H78   78   1.536   1.149   1.086
    2MOP    H79   79   1.373   1.115   1.271
    2MOP    H80   80   1.226   0.925   1.276
    2MOP    H81   81   1.376   0.807   0.890
    2MOP    H82   82   1.235   0.704   1.223
    2MOP    H83   83   1.473   0.721   1.183
    2MOP    H84   84   1.204   0.631   0.928
    2MOP    H85   85   1.077   0.679   1.041
    2MOP    H86   86   1.165   0.528   1.067
    2MOP    H87   87   1.796   1.317   0.843
    2MOP    H88   88   1.988   1.375   0.981
    3MOP    C89   89   1.478   0.575   1.045
    3MOP    O90   90   1.414   0.501   0.967
    3MOP    C91   91   1.628   0.579   1.033
    3MOP    C92   92   1.721   0.650   1.111
    3MOP    C93   93   1.860   0.644   1.081
    3MOP    C94   94   1.910   0.572   0.971
    3MOP    C95   95   2.051   0.569   0.922
    3MOP    C96   96   2.163   0.525   0.996
    3MOP    C97   97   2.292   0.528   0.936
    3MOP    C98   98   2.311   0.573   0.804
    3MOP    O99   99   2.440   0.584   0.759
    3MOP   C100  100   2.461   0.675   0.649
    3MOP   C101  101   2.201   0.604   0.729
    3MOP   C102  102   2.075   0.599   0.788
    3MOP   C103  103   2.143   0.454   1.123
    3MOP   C104  104   2.083   0.327   1.120
    3MOP   C105  105   2.052   0.259   1.237
    3MOP   C106  106   2.080   0.317   1.359
    3MOP   C107  107   2.140   0.443   1.367
    3MOP   C108  108   2.173   0.511   1.247
    3MOP   C109  109   2.161   0.509   1.502
    3MOP   N110  110   2.060   0.614   1.518
    3MOP   C111  111   2.308   0.545   1.525
    3MOP   C112  112   1.814   0.501   0.896
    3MOP   C113  113   1.679   0.505   0.927
    3MOP   H114  114   1.689   0.711   1.196
    3MOP   H115  115   1.930   0.702   1.144
    3MOP   H116  116   2.379   0.493   0.992
    3MOP   H117  117   2.564   0.711   0.654
    3MOP   H118  118   2.396   0.764   0.651
    3MOP   H119  119   2.446   0.623   0.553
    3MOP   H120  120   2.208   0.632   0.624
    3MOP   H121  121   1.991   0.619   0.723
    3MOP   H122  122   2.058   0.282   1.023
    3MOP   H123  123   2.003   0.162   1.230
    3MOP   H124  124   2.053   0.263   1.450
    3MOP   H125  125   2.218   0.611   1.251
    3MOP   H126  126   2.135   0.435   1.579
    3MOP   H127  127   1.965   0.582   1.502
    3MOP   H128  128   2.345   0.620   1.455
    3MOP   H129  129   2.372   0.456   1.514
    3MOP   H130  130   2.324   0.582   1.627
    3MOP   H131  131   1.844   0.445   0.809
    3MOP   H132  132   1.611   0.448   0.864
    4MOP   C133  133   2.084   0.749   1.520
    4MOP   O134  134   2.197   0.795   1.535
    4MOP   C135  135   1.970   0.845   1.500
    4MOP   C136  136   1.837   0.813   1.473
    4MOP   C137  137   1.743   0.914   1.440
    4MOP   C138  138   1.780   1.051   1.432
    4MOP   C139  139   1.689   1.161   1.388
    4MOP   C140  140   1.568   1.194   1.451
    4MOP   C141  141   1.482   1.291   1.393
    4MOP   C142  142   1.515   1.355   1.272
    4MOP   O143  143   1.421   1.431   1.209
    4MOP   C144  144   1.414   1.411   1.066
    4MOP   C145  145   1.644   1.340   1.224
    4MOP   C146  146   1.728   1.246   1.284
    4MOP   C147  147   1.543   1.136   1.584
    4MOP   C148  148   1.633   1.171   1.686
    4MOP   C149  149   1.637   1.100   1.806
    4MOP   C150  150   1.545   0.998   1.827
    4MOP   C151  151   1.446   0.967   1.730
    4MOP   C152  152   1.449   1.035   1.608
    4MOP   C153  153   1.338   0.868   1.768
    4MOP   N154  154   1.366   0.731   1.726
    4MOP   C155  155   1.197   0.919   1.733
    4MOP   C156  156   1.912   1.081   1.469
    4MOP   C157  157   2.004   0.982   1.502
    4MOP   H158  158   1.802   0.710   1.478
    4MOP   H159  159   1.640   0.886   1.419
    4MOP   H160  160   1.387   1.314   1.439
    4MOP   H161  161   1.333   1.473   1.027
    4MOP   H162  162   1.390   1.308   1.041
    4MOP   H163  163   1.506   1.441   1.015
    4MOP   H164  164   1.680   1.396   1.138
    4MOP   H165  165   1.828   1.240   1.247
    4MOP   H166  166   1.707   1.249   1.668
    4MOP   H167  167   1.713   1.124   1.879
    4MOP   H168  168   1.549   0.944   1.921
    4MOP   H169  169   1.380   1.007   1.528
    4MOP   H170  170   1.339   0.860   1.877
    4MOP   H171  171   1.429   0.675   1.781
    4MOP   H172  172   1.183   0.933   1.626
    4MOP   H173  173   1.179   1.014   1.783
    4MOP   H174  174   1.122   0.847   1.768
    4MOP   H175  175   1.945   1.184   1.467
    4MOP   H176  176   2.105   1.011   1.524
    5CAP   C177  177   1.556   0.543   0.597
    5CAP   O178  178   1.658   0.637   0.634
    5CAP   H179  179   1.458   0.586   0.619
    5CAP   H180  180   1.568   0.453   0.656
    5CAP   H181  181   1.561   0.512   0.492
    6CAP   C182  182   1.470   0.357   1.479
    6CAP   C183  183   1.407   0.497   1.465
    6CAP   C184  184   1.513   0.586   1.404
    6CAP   C185  185   1.278   0.477   1.384
    6CAP   O186  186   1.381   0.550   1.597
    6CAP   C187  187   1.334   0.679   1.605
    6CAP   O188  188   1.280   0.741   1.513
    6CAP   H189  189   1.494   0.316   1.380
    6CAP   H190  190   1.562   0.361   1.538
    6CAP   H191  191   1.403   0.287   1.530
    6CAP   H192  192   1.597   0.599   1.473
    6CAP   H193  193   1.477   0.687   1.383
    6CAP   H194  194   1.554   0.541   1.312
    6CAP   H195  195   1.214   0.401   1.430
    6CAP   H196  196   1.215   0.566   1.379
    6CAP   H197  197   1.299   0.445   1.282
    1TCM     c1  198   4.336   0.335   2.672
    1TCM    cl1  199   4.461   0.360   2.548
    1TCM    cl2  200   4.240   0.484   2.690
    1TCM     h1  201   4.270   0.252   2.642
    1TCM    cl3  202   4.414   0.296   2.828
    1TCM     c1  203   1.484   2.157   4.671
    1TCM    cl1  204   1.440   2.011   4.763
    1TCM    cl2  205   1.554   2.277   4.782
    1TCM     h1  206   1.558   2.130   4.593
    1TCM    cl3  207   1.339   2.224   4.595
    1TCM     c1  208   1.774   2.388   1.249
    1TCM    cl1  209   1.717   2.291   1.111
    1TCM    cl2  210   1.822   2.549   1.191
    1TCM     h1  211   1.692   2.398   1.323
    1TCM    cl3  212   1.914   2.308   1.324
    1TCM     c1  213   2.732   0.604   3.754
    1TCM    cl1  214   2.818   0.710   3.640
    1TCM    cl2  215   2.850   0.518   3.855
    1TCM     h1  216   2.665   0.665   3.818
    1TCM    cl3  217   2.635   0.486   3.663
    1TCM     c1  218   2.263   1.806   2.920
    1TCM    cl1  219   2.369   1.896   3.031
    1TCM    cl2  220   2.192   1.667   3.006
    1TCM     h1  221   2.182   1.873   2.884
    1TCM    cl3  222   2.358   1.748   2.781
    1TCM     c1  223   5.035   1.290   0.555
    1TCM    cl1  224   5.172   1.234   0.457
    1TCM    cl2  225   5.082   1.290   0.727
    1TCM     h1  226   5.006   1.392   0.525
    1TCM    cl3  227   4.897   1.180   0.532
    1TCM     c1  228   2.897   0.800   2.630
    1TCM    cl1  229   2.779   0.916   2.564
    1TCM    cl2  230   2.852   0.635   2.581
    1TCM     h1  231   2.998   0.824   2.591
    1TCM    cl3  232   2.898   0.811   2.807
    1TCM     c1  233   3.860   4.078   4.700
    1TCM    cl1  234   3.790   4.068   4.537
    1TCM    cl2  235   3.750   4.168   4.806
    1TCM     h1  236   3.875   3.975   4.740
    1TCM    cl3  237   4.017   4.161   4.693
    1TCM     c1  238   0.757   4.172   3.456
    1TCM    cl1  239   0.839   4.024   3.400
    1TCM    cl2  240   0.805   4.309   3.353
    1TCM     h1  241   0.647   4.157   3.449
    1TCM    cl3  242   0.802   4.205   3.625
    1TCM     c1  243   3.885   1.313   2.572
    1TCM    cl1  244   3.864   1.376   2.737
    1TCM    cl2  245   4.059   1.307   2.533
    1TCM     h1  246   3.842   1.211   2.565
    1TCM    cl3  247   3.803   1.420   2.456
    1TCM     c1  248   4.912   3.092   4.464
    1TCM    cl1  249   4.735   3.076   4.467
    1TCM    cl2  250   4.985   2.938   4.414
    1TCM     h1  251   4.940   3.171   4.392
    1TCM    cl3  252   4.970   3.135   4.627
    1TCM     c1  253   0.558   2.836   1.444
    1TCM    cl1  254   0.540   3.011   1.473
    1TCM    cl2  255   0.397   2.761   1.437
    1TCM     h1  256   0.610   2.820   1.347
    1TCM    cl3  257   0.652   2.763   1.575
    1TCM     c1  258   1.469   1.907   2.377
    1TCM    cl1  259   1.347   1.785   2.420
    1TCM    cl2  260   1.532   1.873   2.214
    1TCM     h1  261   1.422   2.008   2.378
    1TCM    cl3  262   1.602   1.902   2.494
    1TCM     c1  263   4.262   4.439   0.712
    1TCM    cl1  264   4.426   4.411   0.777
    1TCM    cl2  265   4.219   4.307   0.601
    1TCM     h1  266   4.189   4.442   0.796
    1TCM    cl3  267   4.259   4.594   0.625
    1TCM     c1  268   2.576   5.247   3.757
    1TCM    cl1  269   2.604   5.214   3.930
    1TCM    cl2  270   2.713   5.340   3.692
    1TCM     h1  271   2.567   5.150   3.702
    1TCM    cl3  272   2.426   5.340   3.738
    1TCM     c1  273   2.850   1.888   3.033
    1TCM    cl1  274   3.015   1.833   2.996
    1TCM    cl2  275   2.773   1.775   3.146
    1TCM     h1  276   2.854   1.989   3.079
    1TCM    cl3  277   2.755   1.896   2.883
    1TCM     c1  278   0.683   3.115   5.017
    1TCM    cl1  279   0.813   3.200   4.931
    1TCM    cl2  280   0.693   2.941   4.984
    1TCM     h1  281   0.693   3.132   5.127
    1TCM    cl3  282   0.525   3.177   4.962
    1TCM     c1  283   4.596   3.538   2.146
    1TCM    cl1  284   4.539   3.650   2.020
    1TCM    cl2  285   4.457   3.457   2.221
    1TCM     h1  286   4.663   3.462   2.100
    1TCM    cl3  287   4.685   3.629   2.270
    1TCM     c1  288   5.246   3.662   4.900
    1TCM    cl1  289   5.093   3.739   4.852
    1TCM    cl2  290   5.340   3.774   5.002
    1TCM     h1  291   5.224   3.569   4.958
    1TCM    cl3  292   5.340   3.620   4.755
    1TCM     c1  293   2.185   1.179   3.479
    1TCM    cl1  294   2.331   1.258   3.544
    1TCM    cl2  295   2.218   1.121   3.314
    1TCM     h1  296   2.158   1.093   3.544
    1TCM    cl3  297   2.051   1.296   3.475
    1TCM     c1  298   1.336   2.052   2.681
    1TCM    cl1  299   1.394   1.886   2.654
    1TCM    cl2  300   1.160   2.050   2.706
    1TCM     h1  301   1.385   2.095   2.770
    1TCM    cl3  302   1.374   2.151   2.538
    1TCM     c1  303   3.132   4.698   4.839
    1TCM    cl1  304   3.214   4.764   4.696
    1TCM    cl2  305   3.183   4.529   4.864
    1TCM     h1  306   3.158   4.758   4.928
    1TCM    cl3  307   2.956   4.703   4.814
    1TCM     c1  308   2.704   2.469   2.023
    1TCM    cl1  309   2.622   2.438   1.868
    1TCM    cl2  310   2.658   2.630   2.083
    1TCM     h1  311   2.673   2.392   2.097
    1TCM    cl3  312   2.880   2.461   2.000
    1TCM     c1  313   2.730   2.027   5.067
    1TCM    cl1  314   2.832   1.934   5.178
    1TCM    cl2  315   2.826   2.078   4.926
    1TCM     h1  316   2.645   1.964   5.032
    1TCM    cl3  317   2.667   2.171   5.150
    1TCM     c1  318   4.919   0.243   1.289
    1TCM    cl1  319   4.766   0.201   1.209
    1TCM    cl2  320   4.890   0.366   1.413
    1TCM     h1  321   4.962   0.152   1.336
    1TCM    cl3  322   5.034   0.307   1.168
    1TCM     c1  323   3.033   0.852   1.255
    1TCM    cl1  324   3.107   0.692   1.228
    1TCM    cl2  325   2.861   0.846   1.212
    1TCM     h1  326   3.043   0.879   1.363
    1TCM    cl3  327   3.116   0.973   1.155
    1TCM     c1  328   3.961   3.292   1.863
    1TCM    cl1  329   3.978   3.119   1.827
    1TCM    cl2  330   3.967   3.317   2.039
    1TCM     h1  331   4.044   3.348   1.815
    1TCM    cl3  332   3.805   3.351   1.800
    1TCM     c1  333   1.087   0.926   3.677
    1TCM    cl1  334   0.963   0.812   3.621
    1TCM    cl2  335   1.019   1.031   3.803
    1TCM     h1  336   1.173   0.870   3.718
    1TCM    cl3  337   1.142   1.026   3.540
    1TCM     c1  338   2.831   3.659   3.460
    1TCM    cl1  339   2.954   3.734   3.354
    1TCM    cl2  340   2.845   3.727   3.623
    1TCM     h1  341   2.730   3.680   3.419
    1TCM    cl3  342   2.858   3.484   3.467
    1TCM     c1  343   0.148   0.961   2.575
    1TCM    cl1  344   0.181   0.789   2.543
    1TCM    cl2  345   0.133   1.048   2.421
    1TCM     h1  346   0.054   0.971   2.633
    1TCM    cl3  347   0.282   1.031   2.669
    1TCM     c1  348   4.935   2.059   2.120
    1TCM    cl1  349   4.781   2.066   2.208
    1TCM    cl2  350   4.903   2.022   1.949
    1TCM     h1  351   4.986   2.157   2.127
    1TCM    cl3  352   5.038   1.932   2.189
    1TCM     c1  353   1.250   3.571   2.281
    1TCM    cl1  354   1.360   3.579   2.420
    1TCM    cl2  355   1.261   3.722   2.188
    1TCM     h1  356   1.280   3.486   2.216
    1TCM    cl3  357   1.084   3.547   2.338
    1TCM     c1  358   3.871   1.438   2.053
    1TCM    cl1  359   3.829   1.269   2.020
    1TCM    cl2  360   3.753   1.545   1.972
    1TCM     h1  361   3.868   1.456   2.163
    1TCM    cl3  362   4.034   1.472   1.992
    1TCM     c1  363   0.859   2.246   2.102
    1TCM    cl1  364   0.710   2.274   2.009
    1TCM    cl2  365   0.861   2.355   2.243
    1TCM     h1  366   0.862   2.141   2.137
    1TCM    cl3  367   1.001   2.279   2.000
    1TCM     c1  368   2.245   3.763   1.808
    1TCM    cl1  369   2.250   3.915   1.900
    1TCM    cl2  370   2.115   3.770   1.687
    1TCM     h1  371   2.342   3.747   1.757
    1TCM    cl3  372   2.215   3.627   1.919
    1TCM     c1  373   1.032   4.553   1.176
    1TCM    cl1  374   1.205   4.518   1.154
    1TCM    cl2  375   0.955   4.572   1.017
    1TCM     h1  376   0.984   4.470   1.230
    1TCM    cl3  377   1.013   4.704   1.269
    1TCM     c1  378   0.241   1.277   4.798
    1TCM    cl1  379   0.115   1.215   4.689
    1TCM    cl2  380   0.319   1.142   4.882
    1TCM     h1  381   0.317   1.333   4.738
    1TCM    cl3  382   0.168   1.387   4.917
    1TCM     c1  383   1.334   3.883   4.786
    1TCM    cl1  384   1.171   3.954   4.800
    1TCM    cl2  385   1.456   4.010   4.811
    1TCM     h1  386   1.346   3.804   4.862
    1TCM    cl3  387   1.354   3.812   4.623
    1TCM     c1  388   0.311   0.753   4.846
    1TCM    cl1  389   0.449   0.866   4.854
    1TCM    cl2  390   0.332   0.625   4.967
    1TCM     h1  391   0.217   0.809   4.867
    1TCM    cl3  392   0.303   0.681   4.684
    1TCM     c1  393   1.099   4.307   2.234
    1TCM    cl1  394   1.083   4.254   2.403
    1TCM    cl2  395   1.098   4.165   2.127
    1TCM     h1  396   1.014   4.374   2.208
    1TCM    cl3  397   1.252   4.396   2.214
    1TCM     c1  398   3.698   4.120   0.176
    1TCM    cl1  399   3.597   4.087   0.318
    1TCM    cl2  400   3.659   4.281   0.112
    1TCM     h1  401   3.805   4.117   0.205
    1TCM    cl3  402   3.667   3.997   0.051
    1TCM     c1  403   1.610   1.746   1.361
    1TCM    cl1  404   1.602   1.915   1.305
    1TCM    cl2  405   1.453   1.699   1.430
    1TCM     h1  406   1.634   1.680   1.275
    1TCM    cl3  407   1.737   1.730   1.485
    1TCM     c1  408   3.474   0.649   2.288
    1TCM    cl1  409   3.617   0.687   2.387
    1TCM    cl2  410   3.526   0.621   2.120
    1TCM     h1  411   3.426   0.557   2.327
    1TCM    cl3  412   3.359   0.784   2.293
    1TCM     c1  413   0.169   0.657   2.031
    1TCM    cl1  414   0.172   0.510   1.931
    1TCM    cl2  415   0.257   0.628   2.182
    1TCM     h1  416   0.216   0.740   1.975
    1TCM    cl3  417   0.000   0.700   2.068
    1TCM     c1  418   3.876   2.593   1.124
    1TCM    cl1  419   3.740   2.632   1.232
    1TCM    cl2  420   3.945   2.743   1.059
    1TCM     h1  421   3.953   2.538   1.182
    1TCM    cl3  422   3.818   2.491   0.990
    1TCM     c1  423   4.943   1.743   3.390
    1TCM    cl1  424   4.966   1.606   3.501
    1TCM    cl2  425   5.036   1.715   3.241
    1TCM     h1  426   4.835   1.752   3.365
    1TCM    cl3  427   4.999   1.893   3.467
    1TCM     c1  428   2.028   3.583   2.401
    1TCM    cl1  429   1.940   3.500   2.270
    1TCM    cl2  430   2.085   3.741   2.344
    1TCM     h1  431   1.960   3.597   2.488
    1TCM    cl3  432   2.168   3.484   2.450
    1TCM     c1  433   0.578   0.242   4.872
    1TCM    cl1  434   0.467   0.325   4.761
    1TCM    cl2  435   0.492   0.197   5.021
    1TCM     h1  436   0.618   0.150   4.824
    1TCM    cl3  437   0.713   0.351   4.913
    1TCM     c1  438   4.500   0.598   4.512
    1TCM    cl1  439   4.494   0.436   4.584
    1TCM    cl2  440   4.467   0.586   4.337
    1TCM     h1  441   4.423   0.663   4.559
    1TCM    cl3  442   4.661   0.669   4.537
    1TCM     c1  443   3.839   4.684   1.615
    1TCM    cl1  444   3.742   4.672   1.763
    1TCM    cl2  445   3.813   4.540   1.514
    1TCM     h1  446   3.809   4.775   1.558
    1TCM    cl3  447   4.011   4.695   1.658
    1TCM     c1  448   4.489   4.582   4.900
    1TCM    cl1  449   4.620   4.508   4.806
    1TCM    cl2  450   4.531   4.578   5.073
    1TCM     h1  451   4.474   4.687   4.868
    1TCM    cl3  452   4.338   4.490   4.874
    1TCM     c1  453   4.017   4.315   1.783
    1TCM    cl1  454   3.984   4.478   1.847
    1TCM    cl2  455   4.078   4.328   1.616
    1TCM     h1  456   4.093   4.265   1.846
    1TCM    cl3  457   3.867   4.220   1.784
    1TCM     c1  458   3.833   4.059   3.393
    1TCM    cl1  459   3.678   4.072   3.478
    1TCM    cl2  460   3.938   3.943   3.478
    1TCM     h1  461   3.816   4.024   3.289
    1TCM    cl3  462   3.912   4.218   3.389
    1TCM     c1  463   0.379   0.918   3.401
    1TCM    cl1  464   0.269   0.832   3.291
    1TCM    cl2  465   0.510   0.808   3.452
    1TCM     h1  466   0.423   1.006   3.349
    1TCM    cl3  467   0.289   0.973   3.544
    1TCM     c1  468   3.048   2.657   2.845
    1TCM    cl1  469   2.930   2.524   2.842
    1TCM    cl2  470   3.129   2.660   3.004
    1TCM     h1  471   3.124   2.642   2.766
    1TCM    cl3  472   2.964   2.811   2.819
    1TCM     c1  473   3.686   2.362   2.427
    1TCM    cl1  474   3.569   2.495   2.414
    1TCM    cl2  475   3.695   2.307   2.596
    1TCM     h1  476   3.653   2.278   2.362
    1TCM    cl3  477   3.846   2.419   2.375
    1TCM     c1  478   4.990   0.695   2.437
    1TCM    cl1  479   5.084   0.683   2.588
    1TCM    cl2  480   4.831   0.767   2.471
    1TCM     h1  481   5.044   0.758   2.364
    1TCM    cl3  482   4.968   0.532   2.368
    1TCM     c1  483   0.350   0.155   3.081
    1TCM    cl1  484   0.506   0.228   3.038
    1TCM    cl2  485   0.230   0.284   3.108
    1TCM     h1  486   0.316   0.089   2.999
    1TCM    cl3  487   0.368   0.060   3.230
    1TCM     c1  488   5.115   3.661   1.336
    1TCM    cl1  489   5.073   3.693   1.506
    1TCM    cl2  490   5.161   3.813   1.256
    1TCM     h1  491   5.201   3.590   1.332
    1TCM    cl3  492   4.975   3.589   1.253
    1TCM     c1  493   1.535   3.299   0.920
    1TCM    cl1  494   1.660   3.220   0.823
    1TCM    cl2  495   1.374   3.256   0.857
    1TCM     h1  496   1.543   3.266   1.026
    1TCM    cl3  497   1.556   3.476   0.913
    1TCM     c1  498   2.734   4.424   4.176
    1TCM    cl1  499   2.599   4.321   4.123
    1TCM    cl2  500   2.726   4.446   4.352
    1TCM     h1  501   2.830   4.376   4.149
    1TCM    cl3  502   2.723   4.582   4.096
    1TCM     c1  503   4.665   1.682   0.370
    1TCM    cl1  504   4.656   1.856   0.406
    1TCM    cl2  505   4.759   1.657   0.221
    1TCM     h1  506   4.715   1.629   0.454
    1TCM    cl3  507   4.501   1.617   0.348
    1TCM     c1  508   2.931   4.781   4.491
    1TCM    cl1  509   2.915   4.885   4.634
    1TCM    cl2  510   2.815   4.832   4.367
    1TCM     h1  511   3.034   4.789   4.451
    1TCM    cl3  512   2.899   4.612   4.537
    1TCM     c1  513   3.815   4.132   2.049
    1TCM    cl1  514   3.641   4.114   2.082
    1TCM    cl2  515   3.850   4.302   2.011
    1TCM     h1  516   3.873   4.100   2.138
    1TCM    cl3  517   3.859   4.030   1.910
    1TCM     c1  518   0.893   0.199   3.442
    1TCM    cl1  519   0.996   0.093   3.341
    1TCM    cl2  520   0.727   0.199   3.377
    1TCM     h1  521   0.892   0.161   3.546
    1TCM    cl3  522   0.958   0.364   3.439
    1TCM     c1  523   0.883   1.372   2.642
    1TCM    cl1  524   0.842   1.494   2.520
    1TCM    cl2  525   0.773   1.387   2.781
    1TCM     h1  526   0.873   1.270   2.599
    1TCM    cl3  527   1.051   1.396   2.697
    1TCM     c1  528   1.050   0.932   2.572
    1TCM    cl1  529   1.060   0.801   2.692
    1TCM    cl2  530   0.888   0.932   2.497
    1TCM     h1  531   1.067   1.030   2.622
    1TCM    cl3  532   1.173   0.908   2.446
    1TCM     c1  533   2.906   1.190   3.863
    1TCM    cl1  534   2.875   1.346   3.785
    1TCM    cl2  535   2.978   1.216   4.023
    1TCM     h1  536   2.810   1.135   3.874
    1TCM    cl3  537   3.017   1.094   3.763
    1TCM     c1  538   4.619   5.118   1.281
    1TCM    cl1  539   4.545   5.138   1.120
    1TCM    cl2  540   4.653   5.278   1.351
    1TCM     h1  541   4.549   5.063   1.347
    1TCM    cl3  542   4.770   5.026   1.265
    1TCM     c1  543   0.535   4.434   0.329
    1TCM    cl1  544   0.396   4.445   0.439
    1TCM    cl2  545   0.479   4.454   0.161
    1TCM     h1  546   0.608   4.514   0.354
    1TCM    cl3  547   0.612   4.275   0.347
    1TCM     c1  548   2.380   3.425   2.222
    1TCM    cl1  549   2.496   3.560   2.214
    1TCM    cl2  550   2.353   3.380   2.391
    1TCM     h1  551   2.284   3.456   2.176
    1TCM    cl3  552   2.446   3.286   2.133
    1TCM     c1  553   0.396   3.175   1.114
    1TCM    cl1  554   0.267   3.292   1.151
    1TCM    cl2  555   0.403   3.148   0.938
    1TCM     h1  556   0.493   3.215   1.149
    1TCM    cl3  557   0.362   3.021   1.196
    1TCM     c1  558   3.362   3.638   1.039
    1TCM    cl1  559   3.476   3.758   0.974
    1TCM    cl2  560   3.388   3.621   1.214
    1TCM     h1  561   3.259   3.672   1.020
    1TCM    cl3  562   3.389   3.481   0.959
    1TCM     c1  563   3.247   3.075   5.003
    1TCM    cl1  564   3.364   3.188   4.931
    1TCM    cl2  565   3.173   3.151   5.146
    1TCM     h1  566   3.169   3.051   4.928
    1TCM    cl3  567   3.331   2.926   5.051
    1TCM     c1  568   1.086   1.473   2.019
    1TCM    cl1  569   0.983   1.404   1.891
    1TCM    cl2  570   1.093   1.649   2.000
    1TCM     h1  571   1.043   1.448   2.118
    1TCM    cl3  572   1.250   1.405   2.005
    1TCM     c1  573   1.972   2.660   4.786
    1TCM    cl1  574   2.129   2.657   4.703
    1TCM    cl2  575   1.993   2.724   4.951
    1TCM     h1  576   1.902   2.725   4.730
    1TCM    cl3  577   1.906   2.495   4.794
    1TCM     c1  578   2.231   4.117   4.132
    1TCM    cl1  579   2.353   4.020   4.217
    1TCM    cl2  580   2.097   4.155   4.244
    1TCM     h1  581   2.277   4.211   4.096
    1TCM    cl3  582   2.168   4.025   3.994
    1TCM     c1  583   0.851   0.268   0.143
    1TCM    cl1  584   0.756   0.216   0.001
    1TCM    cl2  585   1.005   0.181   0.146
    1TCM     h1  586   0.870   0.377   0.136
    1TCM    cl3  587   0.760   0.233   0.291
    1TCM     c1  588   1.124   0.628   2.958
    1TCM    cl1  589   1.198   0.660   2.799
    1TCM    cl2  590   1.232   0.687   3.086
    1TCM     h1  591   1.027   0.681   2.965
    1TCM    cl3  592   1.098   0.453   2.977
    1TCM     c1  593   4.490   3.264   3.309
    1TCM    cl1  594   4.623   3.378   3.280
    1TCM    cl2  595   4.515   3.183   3.466
    1TCM     h1  596   4.394   3.318   3.311
    1TCM    cl3  597   4.488   3.142   3.180
    1TCM     c1  598   3.236   4.827   5.237
    1TCM    cl1  599   3.364   4.758   5.340
    1TCM    cl2  600   3.148   4.952   5.328
    1TCM     h1  601   3.281   4.872   5.147
    1TCM    cl3  602   3.123   4.698   5.190
    1TCM     c1  603   1.773   0.106   3.612
    1TCM    cl1  604   1.714   0.183   3.463
    1TCM    cl2  605   1.783   0.227   3.741
    1TCM     h1  606   1.702   0.025   3.642
    1TCM    cl3  607   1.934   0.036   3.583
    1TCM     c1  608   0.979   0.808   4.054
    1TCM    cl1  609   0.971   0.677   4.173
    1TCM    cl2  610   0.864   0.937   4.099
    1TCM     h1  611   1.081   0.849   4.051
    1TCM    cl3  612   0.935   0.745   3.893
    1TCM     c1  613   2.055   5.139   2.409
    1TCM    cl1  614   1.962   5.061   2.279
    1TCM    cl2  615   1.942   5.201   2.532
    1TCM     h1  616   2.123   5.065   2.455
    1TCM    cl3  617   2.149   5.274   2.342
    1TCM     c1  618   1.194   1.294   2.398
    1TCM    cl1  619   1.068   1.291   2.273
    1TCM    cl2  620   1.129   1.230   2.550
    1TCM     h1  621   1.280   1.231   2.365
    1TCM    cl3  622   1.250   1.461   2.422
    1TCM     c1  623   1.498   1.750   0.074
    1TCM    cl1  624   1.544   1.847   0.216
    1TCM    cl2  625   1.389   1.619   0.125
    1TCM     h1  626   1.447   1.815   0.000
    1TCM    cl3  627   1.644   1.680   0.000
    1TCM     c1  628   4.231   3.109   2.489
    1TCM    cl1  629   4.288   2.974   2.388
    1TCM    cl2  630   4.071   3.162   2.431
    1TCM     h1  631   4.223   3.075   2.594
    1TCM    cl3  632   4.346   3.244   2.479
    1TCM     c1  633   2.890   4.786   1.410
    1TCM    cl1  634   2.789   4.792   1.263
    1TCM    cl2  635   3.051   4.852   1.374
    1TCM     h1  636   2.842   4.846   1.490
    1TCM    cl3  637   2.906   4.617   1.464
    1TCM     c1  638   4.321   2.467   3.325
    1TCM    cl1  639   4.490   2.523   3.317
    1TCM    cl2  640   4.245   2.530   3.473
    1TCM     h1  641   4.266   2.504   3.236
    1TCM    cl3  642   4.318   2.289   3.328
    1TCM     c1  643   4.330   0.798   3.663
    1TCM    cl1  644   4.176   0.884   3.684
    1TCM    cl2  645   4.320   0.695   3.518
    1TCM     h1  646   4.412   0.871   3.651
    1TCM    cl3  647   4.361   0.696   3.805
    1TCM     c1  648   4.260   1.013   3.366
    1TCM    cl1  649   4.316   1.157   3.455
    1TCM    cl2  650   4.138   0.927   3.463
    1TCM     h1  651   4.216   1.044   3.270
    1TCM    cl3  652   4.398   0.905   3.337
    1TCM     c1  653   2.136   0.290   3.312
    1TCM    cl1  654   2.077   0.226   3.467
    1TCM    cl2  655   2.071   0.192   3.179
    1TCM     h1  656   2.102   0.395   3.300
    1TCM    cl3  657   2.314   0.284   3.309
    1TCM     c1  658   0.534   4.474   3.665
    1TCM    cl1  659   0.423   4.537   3.542
    1TCM    cl2  660   0.441   4.391   3.792
    1TCM     h1  661   0.604   4.402   3.619
    1TCM    cl3  662   0.625   4.609   3.737
    1TCM     c1  663   0.276   1.932   4.810
    1TCM    cl1  664   0.240   2.105   4.828
    1TCM    cl2  665   0.392   1.908   4.677
    1TCM     h1  666   0.320   1.893   4.905
    1TCM    cl3  667   0.126   1.844   4.774
    1TCM     c1  668   1.079   5.148   5.214
    1TCM    cl1  669   1.020   5.304   5.274
    1TCM    cl2  670   0.984   5.016   5.286
    1TCM     h1  671   1.069   5.144   5.103
    1TCM    cl3  672   1.250   5.128   5.258
    1TCM     c1  673   0.872   2.169   1.196
    1TCM    cl1  674   0.763   2.248   1.313
    1TCM    cl2  675   0.778   2.111   1.057
    1TCM     h1  676   0.948   2.242   1.162
    1TCM    cl3  677   0.953   2.031   1.275
    1TCM     c1  678   4.827   1.656   2.363
    1TCM    cl1  679   4.969   1.614   2.462
    1TCM    cl2  680   4.855   1.604   2.195
    1TCM     h1  681   4.738   1.605   2.403
    1TCM    cl3  682   4.802   1.832   2.367
    1TCM     c1  683   2.938   1.346   2.590
    1TCM    cl1  684   2.862   1.193   2.542
    1TCM    cl2  685   3.034   1.319   2.738
    1TCM     h1  686   3.004   1.382   2.509
    1TCM    cl3  687   2.812   1.467   2.623
    1TCM     c1  688   3.180   0.536   2.625
    1TCM    cl1  689   3.187   0.714   2.627
    1TCM    cl2  690   3.234   0.472   2.782
    1TCM     h1  691   3.076   0.503   2.605
    1TCM    cl3  692   3.286   0.475   2.496
    1TCM     c1  693   2.408   4.714   1.064
    1TCM    cl1  694   2.280   4.604   1.119
    1TCM    cl2  695   2.355   4.798   0.917
    1TCM     h1  696   2.430   4.788   1.144
    1TCM    cl3  697   2.555   4.620   1.029
    1TCM     c1  698   0.568   3.438   4.084
    1TCM    cl1  699   0.442   3.442   4.209
    1TCM    cl2  700   0.570   3.593   3.996
    1TCM     h1  701   0.667   3.421   4.131
    1TCM    cl3  702   0.534   3.306   3.970
    1TCM     c1  703   2.481   0.075   1.762
    1TCM    cl1  704   2.632   0.037   1.847
    1TCM    cl2  705   2.505   0.056   1.586
    1TCM     h1  706   2.401   0.006   1.796
    1TCM    cl3  707   2.433   0.242   1.797
    1TCM     c1  708   2.661   4.938   3.690
    1TCM    cl1  709   2.524   4.934   3.803
    1TCM    cl2  710   2.609   5.010   3.536
    1TCM     h1  711   2.743   4.999   3.733
    1TCM    cl3  712   2.720   4.773   3.661
    1TCM     c1  713   3.610   3.587   4.843
    1TCM    cl1  714   3.508   3.525   4.975
    1TCM    cl2  715   3.695   3.452   4.765
    1TCM     h1  716   3.546   3.639   4.769
    1TCM    cl3  717   3.729   3.702   4.909
    1TCM     c1  718   1.775   0.299   4.690
    1TCM    cl1  719   1.849   0.157   4.766
    1TCM    cl2  720   1.597   0.284   4.696
    1TCM     h1  721   1.806   0.391   4.745
    1TCM    cl3  722   1.827   0.311   4.521
    1TCM     c1  723   3.428   3.778   1.901
    1TCM    cl1  724   3.310   3.905   1.941
    1TCM    cl2  725   3.529   3.832   1.766
    1TCM     h1  726   3.491   3.757   1.989
    1TCM    cl3  727   3.341   3.630   1.854
    1TCM     c1  728   0.200   2.792   2.230
    1TCM    cl1  729   0.049   2.712   2.277
    1TCM    cl2  730   0.257   2.724   2.075
    1TCM     h1  731   0.183   2.901   2.218
    1TCM    cl3  732   0.324   2.765   2.355
    1TCM     c1  733   1.855   0.932   3.569
    1TCM    cl1  734   1.931   0.782   3.628
    1TCM    cl2  735   1.887   1.063   3.685
    1TCM     h1  736   1.898   0.959   3.471
    1TCM    cl3  737   1.680   0.907   3.553
    1TCM     c1  738   1.443   4.579   3.681
    1TCM    cl1  739   1.402   4.428   3.765
    1TCM    cl2  740   1.368   4.580   3.520
    1TCM     h1  741   1.405   4.666   3.740
    1TCM    cl3  742   1.620   4.592   3.664
    1TCM     c1  743   1.328   3.232   3.551
    1TCM    cl1  744   1.256   3.168   3.402
    1TCM    cl2  745   1.300   3.118   3.685
    1TCM     h1  746   1.437   3.246   3.537
    1TCM    cl3  747   1.253   3.389   3.591
    1TCM     c1  748   4.870   2.353   2.494
    1TCM    cl1  749   4.727   2.458   2.509
    1TCM    cl2  750   4.904   2.323   2.322
    1TCM     h1  751   4.957   2.402   2.542
    1TCM    cl3  752   4.838   2.198   2.576
    1TCM     c1  753   2.388   1.393   1.855
    1TCM    cl1  754   2.353   1.524   1.969
    1TCM    cl2  755   2.512   1.446   1.739
    1TCM     h1  756   2.425   1.304   1.911
    1TCM    cl3  757   2.239   1.349   1.767
    1TCM     c1  758   1.333   0.173   3.712
    1TCM    cl1  759   1.270   0.272   3.578
    1TCM    cl2  760   1.221   0.183   3.850
    1TCM     h1  761   1.342   0.068   3.679
    1TCM    cl3  762   1.493   0.235   3.760
    1TCM     c1  763   4.328   3.798   2.773
    1TCM    cl1  764   4.207   3.756   2.897
    1TCM    cl2  765   4.368   3.970   2.786
    1TCM     h1  766   4.419   3.737   2.789
    1TCM    cl3  767   4.261   3.764   2.612
    1TCM     c1  768   4.446   1.310   4.041
    1TCM    cl1  769   4.274   1.271   4.063
    1TCM    cl2  770   4.518   1.196   3.925
    1TCM     h1  771   4.456   1.413   4.002
    1TCM    cl3  772   4.530   1.297   4.197
    1TCM     c1  773   3.857   2.011   2.601
    1TCM    cl1  774   3.979   1.995   2.472
    1TCM    cl2  775   3.933   2.083   2.745
    1TCM     h1  776   3.775   2.076   2.566
    1TCM    cl3  777   3.793   1.850   2.642
    1TCM     c1  778   4.959   4.075   3.349
    1TCM    cl1  779   5.131   4.104   3.315
    1TCM    cl2  780   4.900   4.198   3.464
    1TCM     h1  781   4.901   4.082   3.254
    1TCM    cl3  782   4.938   3.913   3.419
    1TCM     c1  783   0.452   1.851   0.565
    1TCM    cl1  784   0.287   1.852   0.629
    1TCM    cl2  785   0.523   1.690   0.587
    1TCM     h1  786   0.450   1.876   0.457
    1TCM    cl3  787   0.550   1.971   0.652
    1TCM     c1  788   3.648   1.804   3.585
    1TCM    cl1  789   3.487   1.820   3.659
    1TCM    cl2  790   3.638   1.848   3.413
    1TCM     h1  791   3.719   1.871   3.637
    1TCM    cl3  792   3.703   1.635   3.600
    1TCM     c1  793   1.462   2.427   2.997
    1TCM    cl1  794   1.399   2.334   3.135
    1TCM    cl2  795   1.384   2.587   2.992
    1TCM     h1  796   1.572   2.440   3.008
    1TCM    cl3  797   1.428   2.340   2.846
    1TCM     c1  798   0.318   3.064   0.174
    1TCM    cl1  799   0.180   2.986   0.254
    1TCM    cl2  800   0.274   3.107   0.007
    1TCM     h1  801   0.346   3.156   0.230
    1TCM    cl3  802   0.456   2.952   0.172
    1TCM     c1  803   0.836   4.651   5.019
    1TCM    cl1  804   0.770   4.621   4.856
    1TCM    cl2  805   0.809   4.508   5.121
    1TCM     h1  806   0.944   4.672   5.012
    1TCM    cl3  807   0.753   4.791   5.091
    1TCM     c1  808   4.677   4.853   0.170
    1TCM    cl1  809   4.637   5.003   0.083
    1TCM    cl2  810   4.691   4.887   0.344
    1TCM     h1  811   4.597   4.778   0.153
    1TCM    cl3  812   4.832   4.789   0.110
    1TCM     c1  813   0.764   1.523   0.720
    1TCM    cl1  814   0.666   1.391   0.789
    1TCM    cl2  815   0.843   1.467   0.571
    1TCM     h1  816   0.698   1.610   0.697
    1TCM    cl3  817   0.887   1.573   0.838
    1TCM     c1  818   2.378   0.412   3.553
    1TCM    cl1  819   2.404   0.586   3.582
    1TCM    cl2  820   2.369   0.327   3.709
    1TCM     h1  821   2.283   0.397   3.497
    1TCM    cl3  822   2.514   0.347   3.459
    1TCM     c1  823   0.557   1.450   3.379
    1TCM    cl1  824   0.707   1.457   3.474
    1TCM    cl2  825   0.544   1.596   3.279
    1TCM     h1  826   0.559   1.360   3.314
    1TCM    cl3  827   0.418   1.441   3.489
    1TCM     c1  828   0.314   4.469   5.049
    1TCM    cl1  829   0.337   4.639   5.098
    1TCM    cl2  830   0.472   4.397   5.009
    1TCM     h1  831   0.268   4.413   5.133
    1TCM    cl3  832   0.208   4.462   4.907
    1TCM     c1  833   4.302   1.418   2.213
    1TCM    cl1  834   4.392   1.549   2.293
    1TCM    cl2  835   4.339   1.418   2.039
    1TCM     h1  836   4.331   1.321   2.257
    1TCM    cl3  837   4.127   1.444   2.236
    1TCM     c1  838   0.996   0.644   1.934
    1TCM    cl1  839   1.020   0.476   1.986
    1TCM    cl2  840   1.025   0.753   2.071
    1TCM     h1  841   1.067   0.668   1.852
    1TCM    cl3  842   0.829   0.665   1.876
    1TCM     c1  843   0.127   5.130   3.494
    1TCM    cl1  844   0.203   5.291   3.493
    1TCM    cl2  845   0.022   5.116   3.637
    1TCM     h1  846   0.066   5.118   3.402
    1TCM    cl3  847   0.253   5.005   3.500
    1TCM     c1  848   2.038   1.829   3.531
    1TCM    cl1  849   2.075   1.712   3.660
    1TCM    cl2  850   1.988   1.741   3.384
    1TCM     h1  851   1.955   1.895   3.564
    1TCM    cl3  852   2.182   1.926   3.496
    1TCM     c1  853   2.656   3.594   3.831
    1TCM    cl1  854   2.481   3.578   3.860
    1TCM    cl2  855   2.741   3.465   3.919
    1TCM     h1  856   2.677   3.585   3.723
    1TCM    cl3  857   2.711   3.753   3.890
    1TCM     c1  858   0.848   1.379   3.720
    1TCM    cl1  859   1.024   1.385   3.699
    1TCM    cl2  860   0.810   1.361   3.893
    1TCM     h1  861   0.802   1.473   3.682
    1TCM    cl3  862   0.782   1.240   3.631
    1TCM     c1  863   0.795   4.423   1.936
    1TCM    cl1  864   0.777   4.345   1.777
    1TCM    cl2  865   0.668   4.364   2.045
    1TCM     h1  866   0.895   4.397   1.978
    1TCM    cl3  867   0.782   4.599   1.918
    1TCM     c1  868   3.740   4.147   2.612
    1TCM    cl1  869   3.677   4.115   2.449
    1TCM    cl2  870   3.605   4.191   2.720
    1TCM     h1  871   3.790   4.056   2.651
    1TCM    cl3  872   3.856   4.281   2.605
    1TCM     c1  873   0.637   2.549   3.559
    1TCM    cl1  874   0.737   2.533   3.412
    1TCM    cl2  875   0.566   2.392   3.600
    1TCM     h1  876   0.700   2.585   3.643
    1TCM    cl3  877   0.507   2.667   3.529
    1TCM     c1  878   1.748   3.834   1.720
    1TCM    cl1  879   1.881   3.937   1.662
    1TCM    cl2  880   1.798   3.752   1.870
    1TCM     h1  881   1.658   3.896   1.739
    1TCM    cl3  882   1.710   3.712   1.596
    1TCM     c1  883   1.583   1.520   2.599
    1TCM    cl1  884   1.706   1.520   2.470
    1TCM    cl2  885   1.566   1.685   2.664
    1TCM     h1  886   1.486   1.487   2.557
    1TCM    cl3  887   1.634   1.410   2.729
    1TCM     c1  888   3.954   0.137   4.040
    1TCM    cl1  889   3.845   0.058   4.157
    1TCM    cl2  890   3.895   0.108   3.875
    1TCM     h1  891   3.957   0.246   4.060
    1TCM    cl3  892   4.117   0.069   4.057
    1TCM     c1  893   0.158   4.559   4.590
    1TCM    cl1  894   0.280   4.554   4.460
    1TCM    cl2  895   0.236   4.608   4.742
    1TCM     h1  896   0.079   4.632   4.564
    1TCM    cl3  897   0.086   4.398   4.610
    1TCM     c1  898   1.059   1.965   0.763
    1TCM    cl1  899   0.980   1.847   0.655
    1TCM    cl2  900   1.071   1.896   0.926
    1TCM     h1  901   1.160   1.988   0.724
    1TCM    cl3  902   0.962   2.114   0.768
    1TCM     c1  903   2.709   2.796   0.420
    1TCM    cl1  904   2.713   2.943   0.320
    1TCM    cl2  905   2.692   2.654   0.315
    1TCM     h1  906   2.803   2.789   0.478
    1TCM    cl3  907   2.570   2.804   0.532
    1TCM     c1  908   3.666   1.388   3.454
    1TCM    cl1  909   3.508   1.439   3.390
    1TCM    cl2  910   3.720   1.242   3.367
    1TCM     h1  911   3.740   1.469   3.439
    1TCM    cl3  912   3.651   1.352   3.627
    1TCM     c1  913   3.500   0.327   1.959
    1TCM    cl1  914   3.356   0.236   1.909
    1TCM    cl2  915   3.586   0.385   1.815
    1TCM     h1  916   3.469   0.414   2.022
    1TCM    cl3  917   3.607   0.221   2.054
    1TCM     c1  918   4.137   2.672   1.523
    1TCM    cl1  919   4.129   2.813   1.631
    1TCM    cl2  920   4.249   2.707   1.388
    1TCM     h1  921   4.173   2.584   1.579
    1TCM    cl3  922   3.975   2.638   1.457
    1TCM     c1  923   2.976   4.250   2.641
    1TCM    cl1  924   2.937   4.344   2.786
    1TCM    cl2  925   2.952   4.077   2.674
    1TCM     h1  926   2.909   4.281   2.558
    1TCM    cl3  927   3.145   4.279   2.595
    1TCM     c1  928   4.460   1.112   2.764
    1TCM    cl1  929   4.349   0.991   2.696
    1TCM    cl2  930   4.493   1.073   2.934
    1TCM     h1  931   4.555   1.112   2.707
    1TCM    cl3  932   4.385   1.274   2.754
    1TCM     c1  933   0.967   2.042   5.055
    1TCM    cl1  934   0.998   2.166   5.179
    1TCM    cl2  935   1.000   1.881   5.123
    1TCM     h1  936   0.861   2.047   5.023
    1TCM    cl3  937   1.073   2.070   4.915
    1TCM     c1  938   2.297   4.640   4.605
    1TCM    cl1  939   2.282   4.791   4.513
    1TCM    cl2  940   2.261   4.670   4.776
    1TCM     h1  941   2.225   4.565   4.564
    1TCM    cl3  942   2.463   4.577   4.589
    1TCM     c1  943   2.362   5.194   5.058
    1TCM    cl1  944   2.504   5.199   4.951
    1TCM    cl2  945   2.403   5.104   5.206
    1TCM     h1  946   2.332   5.297   5.084
    1TCM    cl3  947   2.228   5.112   4.974
    1TCM     c1  948   2.000   1.275   3.026
    1TCM    cl1  949   1.981   1.437   3.095
    1TCM    cl2  950   2.166   1.257   2.963
    1TCM     h1  951   1.982   1.199   3.104
    1TCM    cl3  952   1.884   1.253   2.893
    1TCM     c1  953   1.923   2.222   5.146
    1TCM    cl1  954   2.024   2.272   5.283
    1TCM    cl2  955   1.907   2.045   5.144
    1TCM     h1  956   1.822   2.268   5.155
    1TCM    cl3  957   1.998   2.276   4.994
    1TCM     c1  958   2.314   1.858   1.666
    1TCM    cl1  959   2.245   2.000   1.749
    1TCM    cl2  960   2.378   1.907   1.508
    1TCM     h1  961   2.396   1.816   1.728
    1TCM    cl3  962   2.187   1.735   1.643
    1TCM     c1  963   2.680   2.642   0.867
    1TCM    cl1  964   2.835   2.686   0.942
    1TCM    cl2  965   2.706   2.599   0.696
    1TCM     h1  966   2.636   2.555   0.920
    1TCM    cl3  967   2.568   2.780   0.876
    1TCM     c1  968   3.054   1.869   1.996
    1TCM    cl1  969   3.128   1.756   2.112
    1TCM    cl2  970   3.183   1.964   1.916
    1TCM     h1  971   2.998   1.812   1.919
    1TCM    cl3  972   2.944   1.980   2.081
    1TCM     c1  973   4.663   4.646   2.705
    1TCM    cl1  974   4.529   4.724   2.792
    1TCM    cl2  975   4.659   4.696   2.534
    1TCM     h1  976   4.759   4.677   2.750
    1TCM    cl3  977   4.646   4.470   2.715
    1TCM     c1  978   3.249   0.404   4.841
    1TCM    cl1  979   3.153   0.306   4.955
    1TCM    cl2  980   3.191   0.376   4.675
    1TCM     h1  981   3.238   0.511   4.866
    1TCM    cl3  982   3.420   0.357   4.853
    1TCM     c1  983   3.970   3.984   4.126
    1TCM    cl1  984   4.117   4.016   4.220
    1TCM    cl2  985   3.909   4.137   4.057
    1TCM     h1  986   3.993   3.913   4.044
    1TCM    cl3  987   3.846   3.914   4.232
    1TCM     c1  988   2.096   1.425   2.648
    1TCM    cl1  989   2.151   1.259   2.679
    1TCM    cl2  990   2.202   1.539   2.735
    1TCM     h1  991   2.101   1.446   2.539
    1TCM    cl3  992   1.929   1.444   2.705
    1TCM     c1  993   2.708   0.498   0.116
    1TCM    cl1  994   2.543   0.554   0.083
    1TCM    cl2  995   2.740   0.510   0.291
    1TCM     h1  996   2.718   0.393   0.084
    1TCM    cl3  997   2.824   0.600   0.027
    1TCM     c1  998   2.422   2.932   2.034
    1TCM    cl1  999   2.569   2.834   2.015
    1TCM    cl2 1000   2.410   2.987   2.203
    1TCM     h1 1001   2.428   3.020   1.967
    1TCM    cl3 1002   2.280   2.834   1.993
    1TCM     c1 1003   1.094   4.934   1.605
    1TCM    cl1 1004   0.999   5.043   1.709
    1TCM    cl2 1005   1.092   4.994   1.438
    1TCM     h1 1006   1.199   4.930   1.642
    1TCM    cl3 1007   1.024   4.771   1.611
    1TCM     c1 1008   4.235   2.311   4.423
    1TCM    cl1 1009   4.333   2.447   4.484
    1TCM    cl2 1010   4.343   2.179   4.372
    1TCM     h1 1011   4.168   2.275   4.503
    1TCM    cl3 1012   4.138   2.365   4.285
    1TCM     c1 1013   1.906   5.080   5.182
    1TCM    cl1 1014   1.763   5.167   5.242
    1TCM    cl2 1015   1.855   4.927   5.107
    1TCM     h1 1016   1.958   5.142   5.106
    1TCM    cl3 1017   2.016   5.046   5.317
    1TCM     c1 1018   3.497   3.864   0.554
    1TCM    cl1 1019   3.448   3.905   0.388
    1TCM    cl2 1020   3.496   4.010   0.654
    1TCM     h1 1021   3.427   3.789   0.596
    1TCM    cl3 1022   3.661   3.795   0.552
    1TCM     c1 1023   4.662   0.990   1.072
    1TCM    cl1 1024   4.580   0.860   0.984
    1TCM    cl2 1025   4.745   0.922   1.214
    1TCM     h1 1026   4.737   1.039   1.006
    1TCM    cl3 1027   4.543   1.111   1.126
    1TCM     c1 1028   4.212   1.848   1.950
    1TCM    cl1 1029   4.263   1.921   2.104
    1TCM    cl2 1030   4.160   1.976   1.839
    1TCM     h1 1031   4.297   1.792   1.906
    1TCM    cl3 1032   4.076   1.736   1.980
    1TCM     c1 1033   4.119   1.728   0.139
    1TCM    cl1 1034   4.237   1.764   0.011
    1TCM    cl2 1035   4.067   1.880   0.216
    1TCM     h1 1036   4.031   1.677   0.095
    1TCM    cl3 1037   4.194   1.622   0.261
    1TCM     c1 1038   4.002   3.255   4.815
    1TCM    cl1 1039   4.062   3.095   4.864
    1TCM    cl2 1040   3.825   3.260   4.830
    1TCM     h1 1041   4.047   3.333   4.880
    1TCM    cl3 1042   4.048   3.286   4.646
    1TCM     c1 1043   1.223   0.525   3.845
    1TCM    cl1 1044   1.168   0.649   3.730
    1TCM    cl2 1045   1.206   0.587   4.011
    1TCM     h1 1046   1.161   0.434   3.834
    1TCM    cl3 1047   1.393   0.486   3.814
    1TCM     c1 1048   3.583   0.356   1.428
    1TCM    cl1 1049   3.556   0.189   1.482
    1TCM    cl2 1050   3.688   0.441   1.544
    1TCM     h1 1051   3.631   0.356   1.328
    1TCM    cl3 1052   3.426   0.441   1.418
    1TCM     c1 1053   1.282   0.223   4.232
    1TCM    cl1 1054   1.235   0.291   4.390
    1TCM    cl2 1055   1.248   0.342   4.104
    1TCM     h1 1056   1.390   0.200   4.233
    1TCM    cl3 1057   1.189   0.075   4.201
    1TCM     c1 1058   3.151   5.259   3.576
    1TCM    cl1 1059   3.183   5.340   3.732
    1TCM    cl2 1060   2.985   5.197   3.574
    1TCM     h1 1061   3.165   5.332   3.494
    1TCM    cl3 1062   3.265   5.124   3.556
    1TCM     c1 1063   2.278   1.137   4.298
    1TCM    cl1 1064   2.454   1.151   4.283
    1TCM    cl2 1065   2.201   1.187   4.146
    1TCM     h1 1066   2.251   1.032   4.321
    1TCM    cl3 1067   2.221   1.242   4.430
    1TCM     c1 1068   3.367   0.722   0.433
    1TCM    cl1 1069   3.490   0.743   0.559
    1TCM    cl2 1070   3.434   0.768   0.275
    1TCM     h1 1071   3.335   0.615   0.430
    1TCM    cl3 1072   3.227   0.825   0.470
    1TCM     c1 1073   1.710   2.150   2.780
    1TCM    cl1 1074   1.661   2.247   2.921
    1TCM    cl2 1075   1.609   2.193   2.640
    1TCM     h1 1076   1.816   2.170   2.756
    1TCM    cl3 1077   1.689   1.977   2.817
    1TCM     c1 1078   4.950   3.973   4.699
    1TCM    cl1 1079   4.888   4.140   4.690
    1TCM    cl2 1080   5.112   3.966   4.625
    1TCM     h1 1081   4.956   3.941   4.805
    1TCM    cl3 1082   4.840   3.864   4.610
    1TCM     c1 1083   0.831   0.953   2.788
    1TCM    cl1 1084   0.810   0.798   2.704
    1TCM    cl2 1085   0.776   1.085   2.683
    1TCM     h1 1086   0.771   0.952   2.882
    1TCM    cl3 1087   1.003   0.976   2.828
    1TCM     c1 1088   4.734   0.981   3.655
    1TCM    cl1 1089   4.713   1.157   3.640
    1TCM    cl2 1090   4.659   0.900   3.516
    1TCM     h1 1091   4.843   0.957   3.658
    1TCM    cl3 1092   4.657   0.925   3.805
    1TCM     c1 1093   5.093   4.788   0.678
    1TCM    cl1 1094   5.126   4.622   0.732
    1TCM    cl2 1095   5.218   4.837   0.561
    1TCM     h1 1096   4.993   4.792   0.630
    1TCM    cl3 1097   5.097   4.897   0.818
    1TCM     c1 1098   0.741   3.368   0.350
    1TCM    cl1 1099   0.852   3.480   0.433
    1TCM    cl2 1100   0.804   3.332   0.187
    1TCM     h1 1101   0.733   3.274   0.407
    1TCM    cl3 1102   0.581   3.443   0.336
    1TCM     c1 1103   1.187   2.633   4.815
    1TCM    cl1 1104   1.144   2.804   4.839
    1TCM    cl2 1105   1.103   2.570   4.672
    1TCM     h1 1106   1.297   2.624   4.801
    1TCM    cl3 1107   1.138   2.539   4.958
    1TCM     c1 1108   0.686   3.252   0.754
    1TCM    cl1 1109   0.619   3.142   0.877
    1TCM    cl2 1110   0.723   3.160   0.606
    1TCM     h1 1111   0.612   3.331   0.731
    1TCM    cl3 1112   0.835   3.326   0.817
    1TCM     c1 1113   4.256   1.648   2.609
    1TCM    cl1 1114   4.170   1.555   2.734
    1TCM    cl2 1115   4.201   1.595   2.448
    1TCM     h1 1116   4.235   1.756   2.622
    1TCM    cl3 1117   4.431   1.619   2.624
    1TCM     c1 1118   2.079   0.604   4.410
    1TCM    cl1 1119   2.047   0.744   4.305
    1TCM    cl2 1120   2.029   0.641   4.576
    1TCM     h1 1121   2.022   0.516   4.372
    1TCM    cl3 1122   2.253   0.567   4.407
    1TCM     c1 1123   0.444   0.141   2.577
    1TCM    cl1 1124   0.346   0.161   2.430
    1TCM    cl2 1125   0.339   0.150   2.720
    1TCM     h1 1126   0.495   0.042   2.575
    1TCM    cl3 1127   0.566   0.270   2.585
    1TCM     c1 1128   1.854   4.574   4.430
    1TCM    cl1 1129   1.906   4.428   4.517
    1TCM    cl2 1130   1.990   4.688   4.420
    1TCM     h1 1131   1.821   4.546   4.327
    1TCM    cl3 1132   1.719   4.651   4.517
    1TCM     c1 1133   4.236   4.672   1.516
    1TCM    cl1 1134   4.345   4.780   1.426
    1TCM    cl2 1135   4.232   4.720   1.687
    1TCM     h1 1136   4.134   4.678   1.473
    1TCM    cl3 1137   4.295   4.504   1.503
    1TCM     c1 1138   1.084   2.607   0.528
    1TCM    cl1 1139   0.906   2.605   0.520
    1TCM    cl2 1140   1.147   2.447   0.484
    1TCM     h1 1141   1.123   2.684   0.458
    1TCM    cl3 1142   1.135   2.647   0.694
    1TCM     c1 1143   1.358   1.005   4.261
    1TCM    cl1 1144   1.431   1.098   4.394
    1TCM    cl2 1145   1.389   1.088   4.107
    1TCM     h1 1146   1.403   0.903   4.258
    1TCM    cl3 1147   1.183   0.991   4.287
    1TCM     c1 1148   2.300   1.619   0.919
    1TCM    cl1 1149   2.380   1.760   0.993
    1TCM    cl2 1150   2.394   1.565   0.778
    1TCM     h1 1151   2.294   1.537   0.993
    1TCM    cl3 1152   2.136   1.665   0.867
    1TCM     c1 1153   1.264   4.602   1.446
    1TCM    cl1 1154   1.372   4.695   1.340
    1TCM    cl2 1155   1.264   4.674   1.609
    1TCM     h1 1156   1.161   4.604   1.405
    1TCM    cl3 1157   1.320   4.434   1.456
    1TCM     c1 1158   5.091   2.770   2.629
    1TCM    cl1 1159   4.931   2.698   2.658
    1TCM    cl2 1160   5.104   2.819   2.459
    1TCM     h1 1161   5.104   2.859   2.694
    1TCM    cl3 1162   5.217   2.650   2.665
    1TCM     c1 1163   0.919   2.460   0.238
    1TCM    cl1 1164   1.091   2.424   0.266
    1TCM    cl2 1165   0.885   2.451   0.063
    1TCM     h1 1166   0.857   2.386   0.292
    1TCM    cl3 1167   0.882   2.624   0.296
    1TCM     c1 1168   3.653   4.778   3.352
    1TCM    cl1 1169   3.529   4.765   3.224
    1TCM    cl2 1170   3.594   4.886   3.480
    1TCM     h1 1171   3.673   4.677   3.394
    1TCM    cl3 1172   3.802   4.844   3.283
    1TCM     c1 1173   2.165   0.994   2.422
    1TCM    cl1 1174   2.103   0.953   2.260
    1TCM    cl2 1175   2.075   0.902   2.545
    1TCM     h1 1176   2.273   0.967   2.428
    1TCM    cl3 1177   2.145   1.168   2.451
    1TCM     c1 1178   0.691   4.575   4.491
    1TCM    cl1 1179   0.861   4.611   4.455
    1TCM    cl2 1180   0.595   4.724   4.482
    1TCM     h1 1181   0.652   4.502   4.417
    1TCM    cl3 1182   0.678   4.506   4.655
    1TCM     c1 1183   2.054   4.861   3.924
    1TCM    cl1 1184   2.004   4.814   4.088
    1TCM    cl2 1185   1.926   4.817   3.809
    1TCM     h1 1186   2.071   4.970   3.920
    1TCM    cl3 1187   2.204   4.775   3.882
    1TCM     c1 1188   2.079   2.664   4.011
    1TCM    cl1 1189   1.962   2.649   3.878
    1TCM    cl2 1190   2.043   2.810   4.106
    1TCM     h1 1191   2.073   2.575   4.076
    1TCM    cl3 1192   2.243   2.676   3.943
    1TCM     c1 1193   2.555   3.108   1.089
    1TCM    cl1 1194   2.695   2.998   1.091
    1TCM    cl2 1195   2.483   3.114   1.252
    1TCM     h1 1196   2.588   3.209   1.059
    1TCM    cl3 1197   2.434   3.048   0.974
    1TCM     c1 1198   1.014   3.614   1.106
    1TCM    cl1 1199   0.851   3.663   1.158
    1TCM    cl2 1200   1.134   3.722   1.180
    1TCM     h1 1201   1.034   3.510   1.138
    1TCM    cl3 1202   1.026   3.625   0.929
    1TCM     c1 1203   3.765   2.387   2.052
    1TCM    cl1 1204   3.823   2.461   1.902
    1TCM    cl2 1205   3.676   2.238   2.014
    1TCM     h1 1206   3.852   2.363   2.117
    1TCM    cl3 1207   3.657   2.500   2.136
    1TCM     c1 1208   2.724   2.466   1.265
    1TCM    cl1 1209   2.807   2.602   1.187
    1TCM    cl2 1210   2.844   2.344   1.314
    1TCM     h1 1211   2.670   2.503   1.355
    1TCM    cl3 1212   2.608   2.394   1.152
    1TCM     c1 1213   2.745   3.493   4.294
    1TCM    cl1 1214   2.650   3.488   4.144
    1TCM    cl2 1215   2.753   3.661   4.354
    1TCM     h1 1216   2.697   3.429   4.371
    1TCM    cl3 1217   2.910   3.434   4.263
    1TCM     c1 1218   1.150   2.839   4.164
    1TCM    cl1 1219   1.256   2.967   4.101
    1TCM    cl2 1220   1.240   2.686   4.171
    1TCM     h1 1221   1.116   2.866   4.266
    1TCM    cl3 1222   1.009   2.820   4.057
    1TCM     c1 1223   1.530   2.981   3.474
    1TCM    cl1 1224   1.606   3.026   3.628
    1TCM    cl2 1225   1.361   2.933   3.503
    1TCM     h1 1226   1.532   3.069   3.405
    1TCM    cl3 1227   1.618   2.846   3.401
    1TCM     c1 1228   3.802   4.795   3.966
    1TCM    cl1 1229   3.793   4.629   4.030
    1TCM    cl2 1230   3.700   4.808   3.820
    1TCM     h1 1231   3.766   4.866   4.042
    1TCM    cl3 1232   3.970   4.832   3.923
    1TCM     c1 1233   0.184   3.220   0.510
    1TCM    cl1 1234   0.076   3.113   0.418
    1TCM    cl2 1235   0.188   3.168   0.680
    1TCM     h1 1236   0.286   3.216   0.468
    1TCM    cl3 1237   0.123   3.387   0.501
    1TCM     c1 1238   1.427   2.304   5.087
    1TCM    cl1 1239   1.516   2.344   5.235
    1TCM    cl2 1240   1.425   2.127   5.065
    1TCM     h1 1241   1.323   2.341   5.095
    1TCM    cl3 1242   1.506   2.379   4.947
    1TCM     c1 1243   0.293   1.917   3.053
    1TCM    cl1 1244   0.256   1.788   2.937
    1TCM    cl2 1245   0.306   1.849   3.217
    1TCM     h1 1246   0.389   1.965   3.025
    1TCM    cl3 1247   0.163   2.039   3.050
    1TCM     c1 1248   3.634   0.275   5.036
    1TCM    cl1 1249   3.609   0.169   4.895
    1TCM    cl2 1250   3.674   0.439   4.981
    1TCM     h1 1251   3.541   0.278   5.097
    1TCM    cl3 1252   3.767   0.211   5.135
    1TCM     c1 1253   1.758   2.759   2.129
    1TCM    cl1 1254   1.787   2.922   2.064
    1TCM    cl2 1255   1.588   2.714   2.100
    1TCM     h1 1256   1.824   2.687   2.078
    1TCM    cl3 1257   1.790   2.758   2.303
    1TCM     c1 1258   4.207   0.609   4.285
    1TCM    cl1 1259   4.165   0.696   4.434
    1TCM    cl2 1260   4.316   0.709   4.186
    1TCM     h1 1261   4.257   0.513   4.310
    1TCM    cl3 1262   4.058   0.575   4.193
    1TCM     c1 1263   0.342   3.825   1.611
    1TCM    cl1 1264   0.390   3.752   1.456
    1TCM    cl2 1265   0.212   3.728   1.684
    1TCM     h1 1266   0.430   3.828   1.679
    1TCM    cl3 1267   0.284   3.991   1.583
    1TCM     c1 1268   0.230   1.620   0.920
    1TCM    cl1 1269   0.332   1.739   0.835
    1TCM    cl2 1270   0.114   1.706   1.024
    1TCM     h1 1271   0.175   1.559   0.846
    1TCM    cl3 1272   0.333   1.515   1.020
    1TCM     c1 1273   3.688   2.586   2.885
    1TCM    cl1 1274   3.534   2.559   2.968
    1TCM    cl2 1275   3.796   2.681   2.989
    1TCM     h1 1276   3.735   2.489   2.861
    1TCM    cl3 1277   3.658   2.676   2.734
    1TCM     c1 1278   0.272   4.855   2.868
    1TCM    cl1 1279   0.209   5.021   2.852
    1TCM    cl2 1280   0.154   4.756   2.956
    1TCM     h1 1281   0.289   4.812   2.767
    1TCM    cl3 1282   0.426   4.859   2.957
    1TCM     c1 1283   0.127   4.632   2.467
    1TCM    cl1 1284   0.085   4.543   2.319
    1TCM    cl2 1285   0.027   4.572   2.602
    1TCM     h1 1286   0.234   4.616   2.491
    1TCM    cl3 1287   0.097   4.805   2.444
    1TCM     c1 1288   0.539   2.479   2.314
    1TCM    cl1 1289   0.399   2.460   2.422
    1TCM    cl2 1290   0.545   2.646   2.253
    1TCM     h1 1291   0.632   2.456   2.370
    1TCM    cl3 1292   0.523   2.367   2.177
    1TCM     c1 1293   0.604   4.043   2.846
    1TCM    cl1 1294   0.572   3.989   2.680
    1TCM    cl2 1295   0.776   4.083   2.864
    1TCM     h1 1296   0.543   4.133   2.869
    1TCM    cl3 1297   0.562   3.913   2.960
    1TCM     c1 1298   2.352   0.735   3.974
    1TCM    cl1 1299   2.194   0.667   4.017
    1TCM    cl2 1300   2.468   0.604   3.947
    1TCM     h1 1301   2.342   0.796   3.882
    1TCM    cl3 1302   2.410   0.839   4.107
    1TCM     c1 1303   1.816   2.065   2.217
    1TCM    cl1 1304   1.955   1.998   2.305
    1TCM    cl2 1305   1.681   2.090   2.330
    1TCM     h1 1306   1.844   2.163   2.171
    1TCM    cl3 1307   1.766   1.952   2.089
    1TCM     c1 1308   0.914   3.213   2.344
    1TCM    cl1 1309   1.046   3.312   2.279
    1TCM    cl2 1310   0.758   3.291   2.308
    1TCM     h1 1311   0.916   3.112   2.297
    1TCM    cl3 1312   0.933   3.196   2.520
    1TCM     c1 1313   4.747   3.694   3.145
    1TCM    cl1 1314   4.907   3.707   3.222
    1TCM    cl2 1315   4.684   3.857   3.113
    1TCM     h1 1316   4.757   3.639   3.049
    1TCM    cl3 1317   4.636   3.607   3.253
    1TCM     c1 1318   4.275   1.074   4.533
    1TCM    cl1 1319   4.164   1.180   4.444
    1TCM    cl2 1320   4.249   0.905   4.484
    1TCM     h1 1321   4.380   1.104   4.511
    1TCM    cl3 1322   4.245   1.091   4.708
    1TCM     c1 1323   0.149   3.131   4.656
    1TCM    cl1 1324   0.236   3.181   4.802
    1TCM    cl2 1325   0.252   3.156   4.513
    1TCM     h1 1326   0.122   3.023   4.664
    1TCM    cl3 1327   0.000   3.227   4.640
    1TCM     c1 1328   1.116   1.967   0.295
    1TCM    cl1 1329   1.271   1.939   0.377
    1TCM    cl2 1330   1.014   2.072   0.395
    1TCM     h1 1331   1.134   2.015   0.197
    1TCM    cl3 1332   1.034   1.811   0.270
    1TCM     c1 1333   1.964   2.238   1.777
    1TCM    cl1 1334   1.985   2.302   1.941
    1TCM    cl2 1335   1.909   2.369   1.669
    1TCM     h1 1336   2.061   2.199   1.740
    1TCM    cl3 1337   1.844   2.108   1.778
    1TCM     c1 1338   2.552   4.489   3.843
    1TCM    cl1 1339   2.418   4.421   3.937
    1TCM    cl2 1340   2.499   4.518   3.676
    1TCM     h1 1341   2.585   4.585   3.889
    1TCM    cl3 1342   2.688   4.374   3.843
    1TCM     c1 1343   3.295   0.560   1.752
    1TCM    cl1 1344   3.292   0.704   1.856
    1TCM    cl2 1345   3.310   0.610   1.582
    1TCM     h1 1346   3.381   0.496   1.780
    1TCM    cl3 1347   3.143   0.469   1.773
    1TCM     c1 1348   2.481   4.823   4.887
    1TCM    cl1 1349   2.652   4.801   4.930
    1TCM    cl2 1350   2.455   4.771   4.719
    1TCM     h1 1351   2.418   4.763   4.955
    1TCM    cl3 1352   2.438   4.995   4.903
    1TCM     c1 1353   2.666   1.883   3.430
    1TCM    cl1 1354   2.621   1.729   3.353
    1TCM    cl2 1355   2.813   1.946   3.352
    1TCM     h1 1356   2.584   1.956   3.417
    1TCM    cl3 1357   2.697   1.857   3.603
    1TCM     c1 1358   0.868   1.747   4.927
    1TCM    cl1 1359   1.045   1.735   4.938
    1TCM    cl2 1360   0.800   1.764   5.090
    1TCM     h1 1361   0.841   1.837   4.866
    1TCM    cl3 1362   0.802   1.601   4.849
    1TCM     c1 1363   3.146   1.156   3.115
    1TCM    cl1 1364   3.058   1.074   3.246
    1TCM    cl2 1365   3.319   1.117   3.126
    1TCM     h1 1366   3.107   1.122   3.017
    1TCM    cl3 1367   3.124   1.332   3.129
    1TCM     c1 1368   3.694   0.767   1.656
    1TCM    cl1 1369   3.773   0.713   1.806
    1TCM    cl2 1370   3.813   0.849   1.552
    1TCM     h1 1371   3.652   0.679   1.603
    1TCM    cl3 1372   3.562   0.879   1.696
    1TCM     c1 1373   0.428   0.328   0.708
    1TCM    cl1 1374   0.553   0.203   0.697
    1TCM    cl2 1375   0.470   0.464   0.601
    1TCM     h1 1376   0.330   0.286   0.677
    1TCM    cl3 1377   0.416   0.386   0.876
    1TCM     c1 1378   0.854   3.824   3.744
    1TCM    cl1 1379   1.012   3.854   3.822
    1TCM    cl2 1380   0.724   3.885   3.849
    1TCM     h1 1381   0.850   3.876   3.647
    1TCM    cl3 1382   0.833   3.649   3.720
    1TCM     c1 1383   5.239   4.272   4.445
    1TCM    cl1 1384   5.232   4.439   4.507
    1TCM    cl2 1385   5.314   4.167   4.567
    1TCM     h1 1386   5.136   4.237   4.424
    1TCM    cl3 1387   5.335   4.268   4.296
    1TCM     c1 1388   3.752   1.789   0.941
    1TCM    cl1 1389   3.862   1.846   1.068
    1TCM    cl2 1390   3.830   1.808   0.782
    1TCM     h1 1391   3.728   1.682   0.957
    1TCM    cl3 1392   3.603   1.885   0.945
    1TCM     c1 1393   3.434   4.482   3.765
    1TCM    cl1 1394   3.531   4.587   3.659
    1TCM    cl2 1395   3.519   4.461   3.920
    1TCM     h1 1396   3.335   4.529   3.783
    1TCM    cl3 1397   3.411   4.324   3.688
    1TCM     c1 1398   1.689   4.719   3.248
    1TCM    cl1 1399   1.773   4.605   3.356
    1TCM    cl2 1400   1.655   4.640   3.093
    1TCM     h1 1401   1.593   4.751   3.295
    1TCM    cl3 1402   1.791   4.862   3.221
    1TCM     c1 1403   2.567   0.549   2.614
    1TCM    cl1 1404   2.660   0.403   2.570
    1TCM    cl2 1405   2.582   0.670   2.485
    1TCM     h1 1406   2.460   0.521   2.628
    1TCM    cl3 1407   2.630   0.615   2.766
    1TCM     c1 1408   3.335   2.128   4.223
    1TCM    cl1 1409   3.428   2.218   4.345
    1TCM    cl2 1410   3.237   2.242   4.128
    1TCM     h1 1411   3.405   2.074   4.155
    1TCM    cl3 1412   3.228   2.011   4.304
    1TCM     c1 1413   2.978   2.480   0.585
    1TCM    cl1 1414   2.887   2.385   0.705
    1TCM    cl2 1415   3.089   2.590   0.668
    1TCM     h1 1416   3.036   2.411   0.520
    1TCM    cl3 1417   2.864   2.573   0.485
    1TCM     c1 1418   1.584   0.447   5.036
    1TCM    cl1 1419   1.702   0.559   4.963
    1TCM    cl2 1420   1.671   0.315   5.116
    1TCM     h1 1421   1.523   0.502   5.111
    1TCM    cl3 1422   1.478   0.381   4.910
    1TCM     c1 1423   0.710   1.937   1.708
    1TCM    cl1 1424   0.799   2.047   1.601
    1TCM    cl2 1425   0.703   2.006   1.872
    1TCM     h1 1426   0.607   1.923   1.670
    1TCM    cl3 1427   0.793   1.780   1.714
    1TCM     c1 1428   4.964   3.177   0.282
    1TCM    cl1 1429   4.883   3.214   0.436
    1TCM    cl2 1430   4.994   3.002   0.271
    1TCM     h1 1431   4.899   3.209   0.198
    1TCM    cl3 1432   5.119   3.264   0.274
    1TCM     c1 1433   0.679   1.709   4.023
    1TCM    cl1 1434   0.700   1.564   3.922
    1TCM    cl2 1435   0.510   1.722   4.075
    1TCM     h1 1436   0.746   1.702   4.111
    1TCM    cl3 1437   0.723   1.854   3.928
    1TCM     c1 1438   0.847   0.950   0.352
    1TCM    cl1 1439   0.745   0.994   0.213
    1TCM    cl2 1440   0.751   0.857   0.469
    1TCM     h1 1441   0.933   0.889   0.317
    1TCM    cl3 1442   0.908   1.098   0.430
    1TCM     c1 1443   3.487   4.920   4.873
    1TCM    cl1 1444   3.342   4.981   4.790
    1TCM    cl2 1445   3.453   4.760   4.941
    1TCM     h1 1446   3.570   4.912   4.800
    1TCM    cl3 1447   3.532   5.032   5.003
    1TCM     c1 1448   3.090   3.883   3.608
    1TCM    cl1 1449   3.005   3.843   3.758
    1TCM    cl2 1450   3.158   3.735   3.537
    1TCM     h1 1451   3.019   3.930   3.536
    1TCM    cl3 1452   3.222   3.998   3.643
    1TCM     c1 1453   2.931   4.255   3.326
    1TCM    cl1 1454   3.070   4.206   3.425
    1TCM    cl2 1455   2.948   4.187   3.162
    1TCM     h1 1456   2.838   4.218   3.372
    1TCM    cl3 1457   2.926   4.432   3.315
    1TCM     c1 1458   3.511   1.332   2.678
    1TCM    cl1 1459   3.545   1.500   2.632
    1TCM    cl2 1460   3.427   1.330   2.835
    1TCM     h1 1461   3.447   1.285   2.601
    1TCM    cl3 1462   3.664   1.242   2.691
    1TCM     c1 1463   4.563   2.088   5.144
    1TCM    cl1 1464   4.414   2.178   5.108
    1TCM    cl2 1465   4.555   2.026   5.311
    1TCM     h1 1466   4.573   2.003   5.074
    1TCM    cl3 1467   4.703   2.196   5.128
    1TCM     c1 1468   3.173   2.237   0.797
    1TCM    cl1 1469   3.191   2.259   0.972
    1TCM    cl2 1470   3.042   2.121   0.765
    1TCM     h1 1471   3.148   2.335   0.750
    1TCM    cl3 1472   3.325   2.176   0.728
    1TCM     c1 1473   4.629   4.827   1.539
    1TCM    cl1 1474   4.724   4.819   1.388
    1TCM    cl2 1475   4.727   4.903   1.666
    1TCM     h1 1476   4.538   4.887   1.521
    1TCM    cl3 1477   4.584   4.662   1.589
    1TCM     c1 1478   4.654   0.704   3.253
    1TCM    cl1 1479   4.583   0.602   3.126
    1TCM    cl2 1480   4.537   0.722   3.386
    1TCM     h1 1481   4.747   0.657   3.290
    1TCM    cl3 1482   4.692   0.864   3.185
    1TCM     c1 1483   3.555   2.215   0.447
    1TCM    cl1 1484   3.579   2.043   0.485
    1TCM    cl2 1485   3.501   2.232   0.278
    1TCM     h1 1486   3.478   2.258   0.514
    1TCM    cl3 1487   3.708   2.303   0.469
    1TCM     c1 1488   1.757   0.160   2.738
    1TCM    cl1 1489   1.874   0.293   2.727
    1TCM    cl2 1490   1.838   0.015   2.802
    1TCM     h1 1491   1.674   0.188   2.806
    1TCM    cl3 1492   1.691   0.124   2.576
    1TCM     c1 1493   1.300   4.609   5.070
    1TCM    cl1 1494   1.163   4.709   5.119
    1TCM    cl2 1495   1.452   4.697   5.100
    1TCM     h1 1496   1.300   4.514   5.128
    1TCM    cl3 1497   1.287   4.571   4.896
    1TCM     c1 1498   5.133   0.288   4.507
    1TCM    cl1 1499   5.078   0.154   4.404
    1TCM    cl2 1500   5.128   0.237   4.678
    1TCM     h1 1501   5.237   0.315   4.480
    1TCM    cl3 1502   5.026   0.428   4.484
    1TCM     c1 1503   4.343   4.884   0.269
    1TCM    cl1 1504   4.395   4.856   0.101
    1TCM    cl2 1505   4.369   4.736   0.365
    1TCM     h1 1506   4.401   4.967   0.313
    1TCM    cl3 1507   4.170   4.925   0.271
    1TCM     c1 1508   0.625   2.506   3.876
    1TCM    cl1 1509   0.500   2.589   3.781
    1TCM    cl2 1510   0.571   2.491   4.045
    1TCM     h1 1511   0.642   2.405   3.834
    1TCM    cl3 1512   0.776   2.600   3.870
    1TCM     c1 1513   4.142   1.327   1.660
    1TCM    cl1 1514   4.132   1.495   1.717
    1TCM    cl2 1515   4.165   1.219   1.800
    1TCM     h1 1516   4.048   1.299   1.607
    1TCM    cl3 1517   4.279   1.310   1.549
    1TCM     c1 1518   1.394   4.899   0.408
    1TCM    cl1 1519   1.481   4.940   0.259
    1TCM    cl2 1520   1.305   5.042   0.466
    1TCM     h1 1521   1.322   4.817   0.388
    1TCM    cl3 1522   1.510   4.847   0.532
    1TCM     c1 1523   3.300   1.050   4.032
    1TCM    cl1 1524   3.241   1.196   3.950
    1TCM    cl2 1525   3.254   1.056   4.204
    1TCM     h1 1526   3.256   0.960   3.985
    1TCM    cl3 1527   3.478   1.042   4.019
    1TCM     c1 1528   4.651   3.552   3.716
    1TCM    cl1 1529   4.532   3.642   3.619
    1TCM    cl2 1530   4.774   3.483   3.609
    1TCM     h1 1531   4.699   3.621   3.789
    1TCM    cl3 1532   4.568   3.422   3.804
    1TCM     c1 1533   1.780   0.992   0.352
    1TCM    cl1 1534   1.915   1.083   0.424
    1TCM    cl2 1535   1.843   0.882   0.227
    1TCM     h1 1536   1.729   0.933   0.431
    1TCM    cl3 1537   1.664   1.105   0.279
    1TCM     c1 1538   1.166   2.081   1.073
    1TCM    cl1 1539   1.206   2.177   1.217
    1TCM    cl2 1540   1.311   1.996   1.016
    1TCM     h1 1541   1.087   2.008   1.098
    1TCM    cl3 1542   1.107   2.190   0.945
    1TCM     c1 1543   3.470   3.066   2.417
    1TCM    cl1 1544   3.545   2.930   2.503
    1TCM    cl2 1545   3.506   3.053   2.243
    1TCM     h1 1546   3.360   3.064   2.432
    1TCM    cl3 1547   3.535   3.219   2.480
    1TCM     c1 1548   3.241   3.549   2.837
    1TCM    cl1 1549   3.331   3.671   2.743
    1TCM    cl2 1550   3.087   3.619   2.892
    1TCM     h1 1551   3.221   3.461   2.773
    1TCM    cl3 1552   3.338   3.500   2.978
    1TCM     c1 1553   1.129   1.194   0.064
    1TCM    cl1 1554   1.112   1.193   0.241
    1TCM    cl2 1555   1.192   1.037   0.010
    1TCM     h1 1556   1.030   1.212   0.018
    1TCM    cl3 1557   1.242   1.322   0.016
    1TCM     c1 1558   3.055   0.245   0.886
    1TCM    cl1 1559   3.092   0.095   0.976
    1TCM    cl2 1560   2.918   0.216   0.777
    1TCM     h1 1561   3.029   0.325   0.958
    1TCM    cl3 1562   3.197   0.294   0.791
    1TCM     c1 1563   1.929   3.365   1.061
    1TCM    cl1 1564   2.042   3.488   1.122
    1TCM    cl2 1565   1.875   3.263   1.196
    1TCM     h1 1566   1.842   3.415   1.015
    1TCM    cl3 1567   2.011   3.264   0.940
    1TCM     c1 1568   2.957   3.783   1.995
    1TCM    cl1 1569   2.865   3.931   1.957
    1TCM    cl2 1570   2.996   3.780   2.168
    1TCM     h1 1571   2.896   3.694   1.969
    1TCM    cl3 1572   3.108   3.781   1.900
    1TCM     c1 1573   4.634   0.567   4.128
    1TCM    cl1 1574   4.681   0.646   3.976
    1TCM    cl2 1575   4.650   0.683   4.262
    1TCM     h1 1576   4.528   0.533   4.121
    1TCM    cl3 1577   4.740   0.427   4.158
    1TCM     c1 1578   4.661   3.025   4.775
    1TCM    cl1 1579   4.585   2.891   4.863
    1TCM    cl2 1580   4.835   3.029   4.814
    1TCM     h1 1581   4.648   3.010   4.666
    1TCM    cl3 1582   4.587   3.179   4.825
    1TCM     c1 1583   1.075   4.696   2.389
    1TCM    cl1 1584   1.135   4.570   2.279
    1TCM    cl2 1585   1.093   4.642   2.557
    1TCM     h1 1586   1.133   4.790   2.374
    1TCM    cl3 1587   0.903   4.727   2.355
    1TCM     c1 1588   5.123   0.224   0.368
    1TCM    cl1 1589   5.035   0.331   0.258
    1TCM    cl2 1590   5.253   0.315   0.449
    1TCM     h1 1591   5.053   0.183   0.444
    1TCM    cl3 1592   5.194   0.089   0.276
    1TCM     c1 1593   4.618   0.490   3.694
    1TCM    cl1 1594   4.447   0.458   3.731
    1TCM    cl2 1595   4.635   0.532   3.522
    1TCM     h1 1596   4.653   0.575   3.757
    1TCM    cl3 1597   4.715   0.346   3.730
    1TCM     c1 1598   3.602   5.115   4.455
    1TCM    cl1 1599   3.603   5.003   4.317
    1TCM    cl2 1600   3.666   5.272   4.405
    1TCM     h1 1601   3.497   5.127   4.491
    1TCM    cl3 1602   3.702   5.048   4.586
    1TCM     c1 1603   1.485   2.037   1.803
    1TCM    cl1 1604   1.373   2.168   1.847
    1TCM    cl2 1605   1.572   1.982   1.949
    1TCM     h1 1606   1.429   1.952   1.760
    1TCM    cl3 1607   1.603   2.097   1.684
    1TCM     c1 1608   5.259   0.236   1.475
    1TCM    cl1 1609   5.340   0.257   1.318
    1TCM    cl2 1610   5.089   0.283   1.461
    1TCM     h1 1611   5.266   0.129   1.506
    1TCM    cl3 1612   5.339   0.338   1.596
    1TCM     c1 1613   3.342   1.771   2.784
    1TCM    cl1 1614   3.170   1.796   2.750
    1TCM    cl2 1615   3.426   1.721   2.635
    1TCM     h1 1616   3.387   1.865   2.822
    1TCM    cl3 1617   3.360   1.644   2.907
    1TCM     c1 1618   3.611   0.403   0.525
    1TCM    cl1 1619   3.545   0.518   0.407
    1TCM    cl2 1620   3.556   0.448   0.689
    1TCM     h1 1621   3.576   0.301   0.502
    1TCM    cl3 1622   3.789   0.408   0.520
    1TCM     c1 1623   0.685   1.370   2.148
    1TCM    cl1 1624   0.720   1.541   2.116
    1TCM    cl2 1625   0.831   1.289   2.209
    1TCM     h1 1626   0.604   1.362   2.223
    1TCM    cl3 1627   0.633   1.291   1.997
    1TCM     c1 1628   2.785   3.838   1.273
    1TCM    cl1 1629   2.737   3.980   1.176
    1TCM    cl2 1630   2.640   3.762   1.342
    1TCM     h1 1631   2.838   3.765   1.209
    1TCM    cl3 1632   2.893   3.890   1.405
    1TCM     c1 1633   2.453   2.557   4.385
    1TCM    cl1 1634   2.363   2.608   4.240
    1TCM    cl2 1635   2.347   2.569   4.527
    1TCM     h1 1636   2.486   2.452   4.372
    1TCM    cl3 1637   2.594   2.662   4.407
    1TCM     c1 1638   0.581   2.357   0.905
    1TCM    cl1 1639   0.715   2.417   0.804
    1TCM    cl2 1640   0.617   2.389   1.076
    1TCM     h1 1641   0.487   2.408   0.877
    1TCM    cl3 1642   0.563   2.182   0.880
    1TCM     c1 1643   2.596   0.494   1.630
    1TCM    cl1 1644   2.723   0.374   1.594
    1TCM    cl2 1645   2.536   0.566   1.479
    1TCM     h1 1646   2.512   0.443   1.683
    1TCM    cl3 1647   2.663   0.621   1.735
    1TCM     c1 1648   2.454   3.652   0.173
    1TCM    cl1 1649   2.613   3.580   0.208
    1TCM    cl2 1650   2.330   3.570   0.270
    1TCM     h1 1651   2.456   3.760   0.198
    1TCM    cl3 1652   2.417   3.632   0.000
    1TCM     c1 1653   0.175   3.446   4.966
    1TCM    cl1 1654   0.133   3.398   4.800
    1TCM    cl2 1655   0.118   3.322   5.079
    1TCM     h1 1656   0.285   3.457   4.975
    1TCM    cl3 1657   0.098   3.602   5.004
    1TCM     c1 1658   3.886   1.955   1.696
    1TCM    cl1 1659   3.997   1.986   1.561
    1TCM    cl2 1660   3.833   2.110   1.766
    1TCM     h1 1661   3.797   1.899   1.660
    1TCM    cl3 1662   3.970   1.859   1.821
    1TCM     c1 1663   2.278   2.804   2.794
    1TCM    cl1 1664   2.174   2.662   2.817
    1TCM    cl2 1665   2.231   2.932   2.909
    1TCM     h1 1666   2.384   2.776   2.811
    1TCM    cl3 1667   2.259   2.865   2.628
    1TCM     c1 1668   4.465   2.822   0.741
    1TCM    cl1 1669   4.332   2.832   0.859
    1TCM    cl2 1670   4.409   2.883   0.584
    1TCM     h1 1671   4.550   2.884   0.777
    1TCM    cl3 1672   4.517   2.653   0.725
    1TCM     c1 1673   5.103   4.310   1.774
    1TCM    cl1 1674   5.269   4.300   1.712
    1TCM    cl2 1675   5.102   4.400   1.927
    1TCM     h1 1676   5.039   4.362   1.700
    1TCM    cl3 1677   5.041   4.145   1.802
    1TCM     c1 1678   3.270   1.706   3.866
    1TCM    cl1 1679   3.139   1.588   3.891
    1TCM    cl2 1680   3.259   1.773   3.702
    1TCM     h1 1681   3.261   1.788   3.940
    1TCM    cl3 1682   3.428   1.625   3.886
    1TCM     c1 1683   0.964   3.765   2.398
    1TCM    cl1 1684   0.852   3.632   2.365
    1TCM    cl2 1685   1.073   3.719   2.530
    1TCM     h1 1686   1.024   3.787   2.307
    1TCM    cl3 1687   0.872   3.910   2.444
    1TCM     c1 1688   3.040   4.162   2.306
    1TCM    cl1 1689   3.064   4.042   2.178
    1TCM    cl2 1690   3.083   4.091   2.463
    1TCM     h1 1691   3.105   4.251   2.287
    1TCM    cl3 1692   2.870   4.214   2.309
    1TCM     c1 1693   1.370   3.056   2.348
    1TCM    cl1 1694   1.324   2.973   2.197
    1TCM    cl2 1695   1.484   2.954   2.438
    1TCM     h1 1696   1.418   3.153   2.324
    1TCM    cl3 1697   1.225   3.084   2.446
    1TCM     c1 1698   4.604   0.167   5.155
    1TCM    cl1 1699   4.730   0.277   5.216
    1TCM    cl2 1700   4.462   0.174   5.262
    1TCM     h1 1701   4.574   0.197   5.053
    1TCM    cl3 1702   4.667   0.001   5.152
    1TCM     c1 1703   4.137   4.955   2.374
    1TCM    cl1 1704   4.182   5.093   2.272
    1TCM    cl2 1705   4.131   5.006   2.545
    1TCM     h1 1706   4.038   4.917   2.344
    1TCM    cl3 1707   4.259   4.826   2.355
    1TCM     c1 1708   1.415   5.058   3.107
    1TCM    cl1 1709   1.512   4.935   3.191
    1TCM    cl2 1710   1.413   5.023   2.933
    1TCM     h1 1711   1.311   5.056   3.146
    1TCM    cl3 1712   1.486   5.219   3.135
    1TCM     c1 1713   3.406   4.929   3.826
    1TCM    cl1 1714   3.394   5.103   3.790
    1TCM    cl2 1715   3.473   4.908   3.990
    1TCM     h1 1716   3.305   4.883   3.821
    1TCM    cl3 1717   3.513   4.851   3.708
    1TCM     c1 1718   3.626   2.191   4.869
    1TCM    cl1 1719   3.633   2.368   4.847
    1TCM    cl2 1720   3.687   2.149   5.030
    1TCM     h1 1721   3.521   2.157   4.858
    1TCM    cl3 1722   3.727   2.113   4.745
    1TCM     c1 1723   4.841   4.204   2.580
    1TCM    cl1 1724   4.967   4.207   2.454
    1TCM    cl2 1725   4.916   4.229   2.739
    1TCM     h1 1726   4.768   4.285   2.560
    1TCM    cl3 1727   4.758   4.047   2.577
    1TCM     c1 1728   5.040   3.114   2.471
    1TCM    cl1 1729   5.027   3.263   2.376
    1TCM    cl2 1730   4.940   2.987   2.395
    1TCM     h1 1731   5.146   3.080   2.474
    1TCM    cl3 1732   4.981   3.143   2.636
    1TCM     c1 1733   1.431   2.323   0.870
    1TCM    cl1 1734   1.513   2.423   0.748
    1TCM    cl2 1735   1.485   2.372   1.033
    1TCM     h1 1736   1.321   2.338   0.862
    1TCM    cl3 1737   1.471   2.152   0.844
    1TCM     c1 1738   1.112   1.982   4.084
    1TCM    cl1 1739   1.128   1.816   4.144
    1TCM    cl2 1740   1.061   1.978   3.913
    1TCM     h1 1741   1.036   2.036   4.144
    1TCM    cl3 1742   1.268   2.066   4.097
    1TCM     c1 1743   4.143   3.550   1.327
    1TCM    cl1 1744   4.233   3.403   1.372
    1TCM    cl2 1745   4.170   3.585   1.155
    1TCM     h1 1746   4.035   3.533   1.345
    1TCM    cl3 1747   4.200   3.687   1.425
    1TCM     c1 1748   0.267   5.160   2.134
    1TCM    cl1 1749   0.295   5.335   2.124
    1TCM    cl2 1750   0.139   5.113   2.020
    1TCM     h1 1751   0.360   5.105   2.109
    1TCM    cl3 1752   0.216   5.117   2.299
    1TCM     c1 1753   1.332   2.547   1.749
    1TCM    cl1 1754   1.383   2.391   1.679
    1TCM    cl2 1755   1.380   2.554   1.920
    1TCM     h1 1756   1.381   2.630   1.693
    1TCM    cl3 1757   1.156   2.563   1.736
    1TCM     c1 1758   0.870   2.375   4.194
    1TCM    cl1 1759   0.907   2.319   4.030
    1TCM    cl2 1760   0.929   2.257   4.313
    1TCM     h1 1761   0.919   2.473   4.212
    1TCM    cl3 1762   0.694   2.394   4.212
    1TCM     c1 1763   1.093   0.908   5.192
    1TCM    cl1 1764   1.221   1.018   5.137
    1TCM    cl2 1765   1.157   0.742   5.200
    1TCM     h1 1766   1.058   0.939   5.292
    1TCM    cl3 1767   0.957   0.913   5.077
    1TCM     c1 1768   3.687   2.969   1.006
    1TCM    cl1 1769   3.512   2.999   0.991
    1TCM    cl2 1770   3.731   2.964   1.178
    1TCM     h1 1771   3.712   2.872   0.959
    1TCM    cl3 1772   3.777   3.099   0.925
    1TCM     c1 1773   3.687   4.992   3.020
    1TCM    cl1 1774   3.589   5.073   3.144
    1TCM    cl2 1775   3.759   5.114   2.911
    1TCM     h1 1776   3.768   4.934   3.069
    1TCM    cl3 1777   3.584   4.882   2.925
    1TCM     c1 1778   4.635   3.189   5.176
    1TCM    cl1 1779   4.544   3.338   5.211
    1TCM    cl2 1780   4.702   3.198   5.011
    1TCM     h1 1781   4.718   3.179   5.249
    1TCM    cl3 1782   4.527   3.049   5.189
    1TCM     c1 1783   4.457   2.820   2.964
    1TCM    cl1 1784   4.346   2.928   2.877
    1TCM    cl2 1785   4.385   2.773   3.119
    1TCM     h1 1786   4.476   2.729   2.903
    1TCM    cl3 1787   4.611   2.905   2.993
    1TCM     c1 1788   2.307   4.559   3.531
    1TCM    cl1 1789   2.170   4.623   3.438
    1TCM    cl2 1790   2.263   4.551   3.704
    1TCM     h1 1791   2.332   4.457   3.495
    1TCM    cl3 1792   2.448   4.666   3.511
    1TCM     c1 1793   3.574   2.246   0.919
    1TCM    cl1 1794   3.604   2.405   0.844
    1TCM    cl2 1795   3.580   2.262   1.096
    1TCM     h1 1796   3.475   2.209   0.888
    1TCM    cl3 1797   3.700   2.132   0.866
    1TCM     c1 1798   2.352   2.040   2.559
    1TCM    cl1 1799   2.284   2.128   2.698
    1TCM    cl2 1800   2.306   2.122   2.408
    1TCM     h1 1801   2.463   2.038   2.568
    1TCM    cl3 1802   2.290   1.874   2.558
    1TCM     c1 1803   2.933   2.890   3.446
    1TCM    cl1 1804   2.929   3.001   3.585
    1TCM    cl2 1805   2.900   2.981   3.296
    1TCM     h1 1806   3.033   2.843   3.439
    1TCM    cl3 1807   2.809   2.764   3.468
    1TCM     c1 1808   5.035   1.892   1.643
    1TCM    cl1 1809   5.038   2.062   1.696
    1TCM    cl2 1810   4.870   1.828   1.658
    1TCM     h1 1811   5.068   1.885   1.537
    1TCM    cl3 1812   5.145   1.797   1.745
    1TCM     c1 1813   1.664   1.369   3.590
    1TCM    cl1 1814   1.536   1.399   3.470
    1TCM    cl2 1815   1.629   1.218   3.677
    1TCM     h1 1816   1.762   1.360   3.538
    1TCM    cl3 1817   1.671   1.504   3.706
    1TCM     c1 1818   3.395   4.197   2.228
    1TCM    cl1 1819   3.303   4.068   2.308
    1TCM    cl2 1820   3.540   4.236   2.324
    1TCM     h1 1821   3.425   4.164   2.127
    1TCM    cl3 1822   3.293   4.342   2.214
    1TCM     c1 1823   2.080   3.584   0.482
    1TCM    cl1 1824   2.061   3.518   0.646
    1TCM    cl2 1825   1.962   3.714   0.455
    1TCM     h1 1826   2.183   3.624   0.470
    1TCM    cl3 1827   2.053   3.454   0.363
    1TCM     c1 1828   4.618   2.144   3.231
    1TCM    cl1 1829   4.716   2.214   3.100
    1TCM    cl2 1830   4.550   2.275   3.330
    1TCM     h1 1831   4.536   2.083   3.188
    1TCM    cl3 1832   4.721   2.041   3.333
    1TCM     c1 1833   2.400   3.937   1.432
    1TCM    cl1 1834   2.468   4.040   1.305
    1TCM    cl2 1835   2.232   3.895   1.390
    1TCM     h1 1836   2.459   3.843   1.440
    1TCM    cl3 1837   2.403   4.023   1.587
    1TCM     c1 1838   0.995   4.948   4.765
    1TCM    cl1 1839   1.031   5.078   4.880
    1TCM    cl2 1840   1.126   4.827   4.769
    1TCM     h1 1841   0.900   4.899   4.792
    1TCM    cl3 1842   0.982   5.016   4.601
    1TCM     c1 1843   3.592   3.186   3.754
    1TCM    cl1 1844   3.714   3.304   3.808
    1TCM    cl2 1845   3.436   3.222   3.832
    1TCM     h1 1846   3.580   3.193   3.644
    1TCM    cl3 1847   3.644   3.022   3.798
    1TCM     c1 1848   3.757   3.886   1.281
    1TCM    cl1 1849   3.644   3.752   1.251
    1TCM    cl2 1850   3.668   4.040   1.273
    1TCM     h1 1851   3.803   3.875   1.381
    1TCM    cl3 1852   3.885   3.885   1.157
    1TCM     c1 1853   2.508   1.317   3.953
    1TCM    cl1 1854   2.669   1.359   4.017
    1TCM    cl2 1855   2.409   1.248   4.084
    1TCM     h1 1856   2.459   1.409   3.915
    1TCM    cl3 1857   2.524   1.199   3.822
    1TCM     c1 1858   2.123   3.594   4.912
    1TCM    cl1 1859   2.052   3.740   4.985
    1TCM    cl2 1860   2.155   3.624   4.740
    1TCM     h1 1861   2.218   3.570   4.964
    1TCM    cl3 1862   2.010   3.458   4.928
    1TCM     c1 1863   4.339   3.844   3.154
    1TCM    cl1 1864   4.346   3.914   3.317
    1TCM    cl2 1865   4.419   3.954   3.039
    1TCM     h1 1866   4.391   3.746   3.153
    1TCM    cl3 1867   4.169   3.822   3.106
    1TCM     c1 1868   3.088   1.571   4.986
    1TCM    cl1 1869   2.997   1.676   4.874
    1TCM    cl2 1870   2.990   1.542   5.132
    1TCM     h1 1871   3.110   1.475   4.936
    1TCM    cl3 1872   3.240   1.652   5.031
    1TCM     c1 1873   0.644   0.634   4.111
    1TCM    cl1 1874   0.725   0.762   4.204
    1TCM    cl2 1875   0.640   0.679   3.939
    1TCM     h1 1876   0.700   0.539   4.123
    1TCM    cl3 1877   0.478   0.613   4.172
    1TCM     c1 1878   3.568   0.952   2.073
    1TCM    cl1 1879   3.532   0.812   1.970
    1TCM    cl2 1880   3.479   1.094   2.013
    1TCM     h1 1881   3.537   0.930   2.177
    1TCM    cl3 1882   3.742   0.985   2.069
    1TCM     c1 1883   2.840   0.121   2.559
    1TCM    cl1 1884   2.764   0.011   2.676
    1TCM    cl2 1885   2.785   0.081   2.395
    1TCM     h1 1886   2.812   0.226   2.583
    1TCM    cl3 1887   3.017   0.104   2.568
    1TCM     c1 1888   2.744   4.529   2.496
    1TCM    cl1 1889   2.884   4.617   2.428
    1TCM    cl2 1890   2.786   4.469   2.658
    1TCM     h1 1891   2.658   4.598   2.503
    1TCM    cl3 1892   2.704   4.392   2.391
    1TCM     c1 1893   0.836   0.910   2.245
    1TCM    cl1 1894   1.008   0.939   2.280
    1TCM    cl2 1895   0.820   0.838   2.083
    1TCM     h1 1896   0.794   0.840   2.321
    1TCM    cl3 1897   0.747   1.063   2.252
    1TCM     c1 1898   2.370   4.304   3.159
    1TCM    cl1 1899   2.250   4.232   3.269
    1TCM    cl2 1900   2.303   4.311   2.994
    1TCM     h1 1901   2.396   4.406   3.193
    1TCM    cl3 1902   2.517   4.203   3.158
    1TCM     c1 1903   4.247   1.841   4.800
    1TCM    cl1 1904   4.420   1.833   4.759
    1TCM    cl2 1905   4.152   1.770   4.668
    1TCM     h1 1906   4.229   1.785   4.894
    1TCM    cl3 1907   4.200   2.011   4.823
    1TCM     c1 1908   0.330   0.651   0.286
    1TCM    cl1 1909   0.191   0.680   0.394
    1TCM    cl2 1910   0.286   0.698   0.120
    1TCM     h1 1911   0.416   0.712   0.320
    1TCM    cl3 1912   0.373   0.479   0.290
    1TCM     c1 1913   3.885   3.834   5.223
    1TCM    cl1 1914   4.029   3.850   5.120
    1TCM    cl2 1915   3.825   3.667   5.217
    1TCM     h1 1916   3.911   3.860   5.328
    1TCM    cl3 1917   3.758   3.945   5.165
    1TCM     c1 1918   1.965   2.449   2.761
    1TCM    cl1 1919   1.913   2.618   2.785
    1TCM    cl2 1920   2.143   2.443   2.749
    1TCM     h1 1921   1.932   2.388   2.847
    1TCM    cl3 1922   1.894   2.386   2.611
    1TCM     c1 1923   2.093   4.165   1.633
    1TCM    cl1 1924   2.211   4.195   1.503
    1TCM    cl2 1925   2.112   3.999   1.692
    1TCM     h1 1926   2.111   4.236   1.716
    1TCM    cl3 1927   1.928   4.187   1.569
    1TCM     c1 1928   4.092   3.620   1.874
    1TCM    cl1 1929   4.129   3.538   1.721
    1TCM    cl2 1930   4.150   3.788   1.867
    1TCM     h1 1931   3.982   3.619   1.890
    1TCM    cl3 1932   4.172   3.535   2.008
    1TCM     c1 1933   2.646   4.658   0.666
    1TCM    cl1 1934   2.629   4.772   0.531
    1TCM    cl2 1935   2.640   4.748   0.820
    1TCM     h1 1936   2.563   4.584   0.663
    1TCM    cl3 1937   2.802   4.574   0.653
    1TCM     c1 1938   2.821   2.328   4.654
    1TCM    cl1 1939   2.901   2.437   4.538
    1TCM    cl2 1940   2.666   2.399   4.705
    1TCM     h1 1941   2.802   2.230   4.604
    1TCM    cl3 1942   2.925   2.303   4.795
    1TCM     c1 1943   1.549   3.337   2.676
    1TCM    cl1 1944   1.377   3.378   2.693
    1TCM    cl2 1945   1.622   3.319   2.838
    1TCM     h1 1946   1.559   3.241   2.621
    1TCM    cl3 1947   1.633   3.466   2.588
    1TCM     c1 1948   0.689   4.142   4.884
    1TCM    cl1 1949   0.777   4.090   4.739
    1TCM    cl2 1950   0.623   4.305   4.858
    1TCM     h1 1951   0.606   4.071   4.905
    1TCM    cl3 1952   0.800   4.145   5.023
    1TCM     c1 1953   0.182   2.441   1.808
    1TCM    cl1 1954   0.331   2.347   1.824
    1TCM    cl2 1955   0.214   2.612   1.848
    1TCM     h1 1956   0.145   2.435   1.703
    1TCM    cl3 1957   0.058   2.377   1.918
    1TCM     c1 1958   4.438   0.998   4.201
    1TCM    cl1 1959   4.600   1.042   4.258
    1TCM    cl2 1960   4.442   0.976   4.024
    1TCM     h1 1961   4.406   0.903   4.249
    1TCM    cl3 1962   4.323   1.127   4.241
    1TCM     c1 1963   3.977   1.141   0.455
    1TCM    cl1 1964   3.839   1.150   0.566
    1TCM    cl2 1965   3.948   1.248   0.315
    1TCM     h1 1966   4.069   1.173   0.508
    1TCM    cl3 1967   3.997   0.974   0.398
    1TCM     c1 1968   1.895   1.844   3.920
    1TCM    cl1 1969   2.001   1.702   3.929
    1TCM    cl2 1970   1.833   1.881   4.083
    1TCM     h1 1971   1.952   1.931   3.882
    1TCM    cl3 1972   1.758   1.809   3.812
    1TCM     c1 1973   0.245   1.941   1.980
    1TCM    cl1 1974   0.334   1.793   1.937
    1TCM    cl2 1975   0.198   1.934   2.151
    1TCM     h1 1976   0.310   2.029   1.963
    1TCM    cl3 1977   0.099   1.954   1.879
    1TCM     c1 1978   1.621   0.540   3.431
    1TCM    cl1 1979   1.651   0.683   3.531
    1TCM    cl2 1980   1.704   0.558   3.275
    1TCM     h1 1981   1.659   0.449   3.482
    1TCM    cl3 1982   1.446   0.522   3.402
    1TCM     c1 1983   2.173   4.241   1.181
    1TCM    cl1 1984   2.120   4.402   1.128
    1TCM    cl2 1985   2.061   4.180   1.305
    1TCM     h1 1986   2.174   4.172   1.094
    1TCM    cl3 1987   2.337   4.252   1.249
    1TCM     c1 1988   3.459   1.758   4.388
    1TCM    cl1 1989   3.482   1.776   4.213
    1TCM    cl2 1990   3.321   1.859   4.440
    1TCM     h1 1991   3.438   1.652   4.412
    1TCM    cl3 1992   3.606   1.811   4.473
    1TCM     c1 1993   2.236   3.765   4.221
    1TCM    cl1 1994   2.235   3.788   4.044
    1TCM    cl2 1995   2.211   3.593   4.258
    1TCM     h1 1996   2.334   3.797   4.262
    1TCM    cl3 1997   2.106   3.861   4.295
    1TCM     c1 1998   3.175   0.992   4.953
    1TCM    cl1 1999   3.035   0.999   5.062
    1TCM    cl2 2000   3.119   1.010   4.785
    1TCM     h1 2001   3.246   1.074   4.977
    1TCM    cl3 2002   3.257   0.836   4.971
    1TCM     c1 2003   3.110   2.795   2.466
    1TCM    cl1 2004   3.274   2.767   2.404
    1TCM    cl2 2005   3.115   2.917   2.595
    1TCM     h1 2006   3.045   2.832   2.383
    1TCM    cl3 2007   3.044   2.643   2.530
    1TCM     c1 2008   4.756   4.224   0.878
    1TCM    cl1 2009   4.665   4.139   0.751
    1TCM    cl2 2010   4.697   4.173   1.038
    1TCM     h1 2011   4.864   4.200   0.869
    1TCM    cl3 2012   4.732   4.400   0.860
    1TCM     c1 2013   2.079   2.848   4.444
    1TCM    cl1 2014   2.168   2.970   4.537
    1TCM    cl2 2015   2.174   2.801   4.301
    1TCM     h1 2016   2.061   2.759   4.507
    1TCM    cl3 2017   1.923   2.916   4.391
    1TCM     c1 2018   2.579   4.134   4.478
    1TCM    cl1 2019   2.635   3.966   4.462
    1TCM    cl2 2020   2.714   4.245   4.449
    1TCM     h1 2021   2.498   4.154   4.404
    1TCM    cl3 2022   2.516   4.160   4.643
    1TCM     c1 2023   4.424   5.158   2.674
    1TCM    cl1 2024   4.544   5.137   2.544
    1TCM    cl2 2025   4.508   5.175   2.830
    1TCM     h1 2026   4.363   5.248   2.654
    1TCM    cl3 2027   4.318   5.015   2.680
    1TCM     c1 2028   1.805   3.782   2.151
    1TCM    cl1 2029   1.878   3.924   2.072
    1TCM    cl2 2030   1.816   3.800   2.328
    1TCM     h1 2031   1.698   3.774   2.122
    1TCM    cl3 2032   1.891   3.635   2.101
    1TCM     c1 2033   3.463   0.795   1.013
    1TCM    cl1 2034   3.481   0.951   0.929
    1TCM    cl2 2035   3.372   0.820   1.164
    1TCM     h1 2036   3.407   0.724   0.948
    1TCM    cl3 2037   3.623   0.728   1.050
    1TCM     c1 2038   0.313   3.751   3.059
    1TCM    cl1 2039   0.419   3.706   2.924
    1TCM    cl2 2040   0.409   3.762   3.208
    1TCM     h1 2041   0.265   3.849   3.039
    1TCM    cl3 2042   0.187   3.627   3.080
    1TCM     c1 2043   2.813   2.682   4.903
    1TCM    cl1 2044   2.857   2.821   5.005
    1TCM    cl2 2045   2.649   2.627   4.945
    1TCM     h1 2046   2.815   2.713   4.796
    1TCM    cl3 2047   2.928   2.550   4.929
    1TCM     c1 2048   1.323   2.349   4.771
    1TCM    cl1 2049   1.359   2.184   4.825
    1TCM    cl2 2050   1.320   2.458   4.911
    1TCM     h1 2051   1.401   2.382   4.699
    1TCM    cl3 2052   1.164   2.352   4.690
    1TCM     c1 2053   2.957   0.343   2.256
    1TCM    cl1 2054   3.021   0.217   2.363
    1TCM    cl2 2055   2.782   0.357   2.278
    1TCM     h1 2056   3.005   0.440   2.280
    1TCM    cl3 2057   2.993   0.301   2.087
    1TCM     c1 2058   1.847   3.602   4.635
    1TCM    cl1 2059   1.772   3.699   4.764
    1TCM    cl2 2060   1.827   3.687   4.479
    1TCM     h1 2061   1.954   3.589   4.656
    1TCM    cl3 2062   1.767   3.444   4.626
    1TCM     c1 2063   0.815   2.835   0.705
    1TCM    cl1 2064   0.959   2.896   0.621
    1TCM    cl2 2065   0.860   2.693   0.804
    1TCM     h1 2066   0.774   2.914   0.771
    1TCM    cl3 2067   0.692   2.787   0.586
    1TCM     c1 2068   3.010   0.208   3.365
    1TCM    cl1 2069   2.933   0.241   3.209
    1TCM    cl2 2070   2.885   0.183   3.490
    1TCM     h1 2071   3.073   0.118   3.358
    1TCM    cl3 2072   3.112   0.347   3.411
    1TCM     c1 2073   2.115   3.058   1.158
    1TCM    cl1 2074   2.104   3.151   1.309
    1TCM    cl2 2075   1.966   3.079   1.064
    1TCM     h1 2076   2.202   3.094   1.099
    1TCM    cl3 2077   2.138   2.885   1.197
    1TCM     c1 2078   3.115   5.175   4.066
    1TCM    cl1 2079   3.059   5.339   4.106
    1TCM    cl2 2080   3.220   5.115   4.197
    1TCM     h1 2081   3.028   5.108   4.055
    1TCM    cl3 2082   3.208   5.180   3.914
    1TCM     c1 2083   2.978   3.302   0.100
    1TCM    cl1 2084   3.150   3.263   0.077
    1TCM    cl2 2085   2.963   3.467   0.165
    1TCM     h1 2086   2.926   3.295   0.003
    1TCM    cl3 2087   2.906   3.187   0.215
    1TCM     c1 2088   0.230   0.401   4.266
    1TCM    cl1 2089   0.261   0.534   4.379
    1TCM    cl2 2090   0.195   0.252   4.357
    1TCM     h1 2091   0.144   0.426   4.201
    1TCM    cl3 2092   0.374   0.375   4.165
    1TCM     c1 2093   2.496   2.663   3.898
    1TCM    cl1 2094   2.459   2.520   3.996
    1TCM    cl2 2095   2.458   2.630   3.727
    1TCM     h1 2096   2.436   2.749   3.934
    1TCM    cl3 2097   2.669   2.702   3.914
    1TCM     c1 2098   0.708   1.436   0.193
    1TCM    cl1 2099   0.768   1.552   0.313
    1TCM    cl2 2100   0.761   1.486   0.030
    1TCM     h1 2101   0.748   1.335   0.215
    1TCM    cl3 2102   0.530   1.431   0.198
    1TCM     c1 2103   4.656   3.000   1.949
    1TCM    cl1 2104   4.554   2.981   1.805
    1TCM    cl2 2105   4.810   3.076   1.903
    1TCM     h1 2106   4.604   3.065   2.023
    1TCM    cl3 2107   4.688   2.841   2.021
    1TCM     c1 2108   3.130   3.253   0.588
    1TCM    cl1 2109   3.102   3.078   0.578
    1TCM    cl2 2110   3.170   3.297   0.756
    1TCM     h1 2111   3.214   3.281   0.521
    1TCM    cl3 2112   2.983   3.339   0.538
    1TCM     c1 2113   2.567   4.907   1.627
    1TCM    cl1 2114   2.467   4.964   1.491
    1TCM    cl2 2115   2.463   4.830   1.749
    1TCM     h1 2116   2.641   4.833   1.589
    1TCM    cl3 2117   2.652   5.045   1.700
    1TCM     c1 2118   2.742   3.982   4.868
    1TCM    cl1 2119   2.654   4.118   4.940
    1TCM    cl2 2120   2.730   3.991   4.690
    1TCM     h1 2121   2.849   3.986   4.898
    1TCM    cl3 2122   2.670   3.829   4.924
    1TCM     c1 2123   4.037   3.996   2.767
    1TCM    cl1 2124   4.052   4.121   2.642
    1TCM    cl2 2125   4.048   3.835   2.692
    1TCM     h1 2126   4.119   4.007   2.841
    1TCM    cl3 2127   3.881   4.012   2.849
    1TCM     c1 2128   2.344   1.532   2.446
    1TCM    cl1 2129   2.191   1.621   2.441
    1TCM    cl2 2130   2.432   1.574   2.595
    1TCM     h1 2131   2.323   1.423   2.445
    1TCM    cl3 2132   2.443   1.575   2.305
    1TCM     c1 2133   4.903   2.376   0.633
    1TCM    cl1 2134   4.843   2.268   0.761
    1TCM    cl2 2135   4.957   2.529   0.705
    1TCM     h1 2136   4.988   2.327   0.581
    1TCM    cl3 2137   4.773   2.407   0.516
    1TCM     c1 2138   4.234   0.583   3.199
    1TCM    cl1 2139   4.300   0.418   3.190
    1TCM    cl2 2140   4.112   0.591   3.328
    1TCM     h1 2141   4.316   0.654   3.221
    1TCM    cl3 2142   4.158   0.625   3.043
    1TCM     c1 2143   4.833   2.313   0.185
    1TCM    cl1 2144   4.917   2.339   0.340
    1TCM    cl2 2145   4.902   2.422   0.062
    1TCM     h1 2146   4.847   2.208   0.153
    1TCM    cl3 2147   4.660   2.347   0.205
    1TCM     c1 2148   3.396   1.225   1.088
    1TCM    cl1 2149   3.421   1.068   1.167
    1TCM    cl2 2150   3.284   1.206   0.951
    1TCM     h1 2151   3.354   1.297   1.160
    1TCM    cl3 2152   3.552   1.286   1.028
    1TCM     c1 2153   2.843   4.330   4.770
    1TCM    cl1 2154   2.878   4.213   4.641
    1TCM    cl2 2155   2.716   4.442   4.717
    1TCM     h1 2156   2.809   4.275   4.861
    1TCM    cl3 2157   2.991   4.421   4.808
    1TCM     c1 2158   1.592   5.225   0.594
    1TCM    cl1 2159   1.577   5.059   0.532
    1TCM    cl2 2160   1.503   5.239   0.747
    1TCM     h1 2161   1.699   5.248   0.611
    1TCM    cl3 2162   1.525   5.339   0.475
    1TCM     c1 2163   1.403   3.312   4.500
    1TCM    cl1 2164   1.570   3.306   4.560
    1TCM    cl2 2165   1.351   3.149   4.453
    1TCM     h1 2166   1.336   3.351   4.580
    1TCM    cl3 2167   1.395   3.420   4.359
    1TCM     c1 2168   1.235   2.338   2.401
    1TCM    cl1 2169   1.277   2.392   2.565
    1TCM    cl2 2170   1.101   2.222   2.409
    1TCM     h1 2171   1.205   2.426   2.340
    1TCM    cl3 2172   1.377   2.260   2.326
    1TCM     c1 2173   1.167   1.264   0.603
    1TCM    cl1 2174   1.342   1.287   0.619
    1TCM    cl2 2175   1.083   1.360   0.727
    1TCM     h1 2176   1.134   1.296   0.502
    1TCM    cl3 2177   1.127   1.092   0.625
    1TCM     c1 2178   0.388   5.175   3.218
    1TCM    cl1 2179   0.289   5.323   3.206
    1TCM    cl2 2180   0.500   5.168   3.081
    1TCM     h1 2181   0.445   5.177   3.313
    1TCM    cl3 2182   0.281   5.033   3.216
    1TCM     c1 2183   2.817   3.979   0.344
    1TCM    cl1 2184   2.864   4.062   0.495
    1TCM    cl2 2185   2.870   4.076   0.205
    1TCM     h1 2186   2.864   3.879   0.340
    1TCM    cl3 2187   2.640   3.961   0.340
    1TCM     c1 2188   5.045   1.808   0.937
    1TCM    cl1 2189   5.072   1.976   0.885
    1TCM    cl2 2190   5.135   1.698   0.831
    1TCM     h1 2191   5.080   1.796   1.042
    1TCM    cl3 2192   4.872   1.770   0.928
    1TCM     c1 2193   3.214   4.745   4.114
    1TCM    cl1 2194   3.263   4.882   4.215
    1TCM    cl2 2195   3.349   4.697   4.009
    1TCM     h1 2196   3.185   4.659   4.179
    1TCM    cl3 2197   3.075   4.792   4.013
    1TCM     c1 2198   0.491   3.256   3.492
    1TCM    cl1 2199   0.496   3.097   3.571
    1TCM    cl2 2200   0.468   3.234   3.317
    1TCM     h1 2201   0.407   3.315   3.533
    1TCM    cl3 2202   0.644   3.342   3.521
    1TCM     c1 2203   2.833   0.517   1.941
    1TCM    cl1 2204   2.851   0.439   1.782
    1TCM    cl2 2205   2.679   0.606   1.946
    1TCM     h1 2206   2.833   0.439   2.020
    1TCM    cl3 2207   2.968   0.629   1.967
    1TCM     c1 2208   4.826   5.012   4.347
    1TCM    cl1 2209   4.935   4.986   4.485
    1TCM    cl2 2210   4.832   4.870   4.240
    1TCM     h1 2211   4.722   5.025   4.384
    1TCM    cl3 2212   4.876   5.157   4.258
    1TCM     c1 2213   4.072   0.942   2.059
    1TCM    cl1 2214   4.096   1.090   1.965
    1TCM    cl2 2215   3.946   0.842   1.982
    1TCM     h1 2216   4.167   0.885   2.064
    1TCM    cl3 2217   4.020   0.984   2.224
    1TCM     c1 2218   2.285   4.778   2.410
    1TCM    cl1 2219   2.263   4.626   2.500
    1TCM    cl2 2220   2.329   4.740   2.241
    1TCM     h1 2221   2.191   4.836   2.412
    1TCM    cl3 2222   2.416   4.873   2.485
    1TCM     c1 2223   2.287   2.623   0.875
    1TCM    cl1 2224   2.350   2.758   0.971
    1TCM    cl2 2225   2.191   2.516   0.979
    1TCM     h1 2226   2.223   2.662   0.793
    1TCM    cl3 2227   2.423   2.532   0.805
    1TCM     c1 2228   2.221   4.759   0.452
    1TCM    cl1 2229   2.165   4.729   0.618
    1TCM    cl2 2230   2.166   4.626   0.347
    1TCM     h1 2231   2.180   4.855   0.416
    1TCM    cl3 2232   2.398   4.766   0.450
    1TCM     c1 2233   3.631   1.222   2.337
    1TCM    cl1 2234   3.656   1.105   2.468
    1TCM    cl2 2235   3.592   1.381   2.407
    1TCM     h1 2236   3.724   1.230   2.276
    1TCM    cl3 2237   3.497   1.169   2.233
    1TCM     c1 2238   3.720   4.039   0.844
    1TCM    cl1 2239   3.721   3.894   0.741
    1TCM    cl2 2240   3.760   3.994   1.011
    1TCM     h1 2241   3.795   4.111   0.806
    1TCM    cl3 2242   3.559   4.113   0.839
    1TCM     c1 2243   1.678   4.332   2.120
    1TCM    cl1 2244   1.767   4.250   1.990
    1TCM    cl2 2245   1.786   4.358   2.259
    1TCM     h1 2246   1.641   4.430   2.083
    1TCM    cl3 2247   1.540   4.232   2.170
    1TCM     c1 2248   4.976   2.792   3.017
    1TCM    cl1 2249   5.151   2.820   3.030
    1TCM    cl2 2250   4.923   2.824   2.850
    1TCM     h1 2251   4.953   2.687   3.044
    1TCM    cl3 2252   4.890   2.901   3.128
    1TCM     c1 2253   1.711   1.228   2.315
    1TCM    cl1 2254   1.766   1.260   2.481
    1TCM    cl2 2255   1.836   1.281   2.200
    1TCM     h1 2256   1.693   1.119   2.302
    1TCM    cl3 2257   1.561   1.318   2.284
    1TCM     c1 2258   1.006   4.425   0.296
    1TCM    cl1 2259   1.010   4.473   0.125
    1TCM    cl2 2260   1.074   4.261   0.313
    1TCM     h1 2261   1.067   4.496   0.356
    1TCM    cl3 2262   0.839   4.426   0.355
    1TCM     c1 2263   3.141   2.707   0.936
    1TCM    cl1 2264   3.315   2.703   0.898
    1TCM    cl2 2265   3.114   2.802   1.084
    1TCM     h1 2266   3.086   2.753   0.851
    1TCM    cl3 2267   3.083   2.541   0.961
    1TCM     c1 2268   0.603   1.981   2.537
    1TCM    cl1 2269   0.462   1.938   2.438
    1TCM    cl2 2270   0.610   1.876   2.680
    1TCM     h1 2271   0.696   1.968   2.477
    1TCM    cl3 2272   0.590   2.151   2.589
    1TCM     c1 2273   2.630   0.768   4.984
    1TCM    cl1 2274   2.731   0.886   5.072
    1TCM    cl2 2275   2.519   0.854   4.875
    1TCM     h1 2276   2.696   0.701   4.925
    1TCM    cl3 2277   2.536   0.672   5.101
    1TCM     c1 2278   0.392   4.375   4.228
    1TCM    cl1 2279   0.492   4.251   4.148
    1TCM    cl2 2280   0.446   4.397   4.395
    1TCM     h1 2281   0.401   4.471   4.173
    1TCM    cl3 2282   0.222   4.323   4.227
    1TCM     c1 2283   5.131   4.058   1.561
    1TCM    cl1 2284   5.141   3.949   1.701
    1TCM    cl2 2285   5.108   3.962   1.413
    1TCM     h1 2286   5.045   4.127   1.574
    1TCM    cl3 2287   5.281   4.153   1.548
    1TCM     c1 2288   2.605   2.270   0.461
    1TCM    cl1 2289   2.486   2.385   0.397
    1TCM    cl2 2290   2.575   2.242   0.634
    1TCM     h1 2291   2.596   2.173   0.406
    1TCM    cl3 2292   2.769   2.335   0.439
    1TCM     c1 2293   5.192   5.049   3.605
    1TCM    cl1 2294   5.201   5.101   3.435
    1TCM    cl2 2295   5.317   5.133   3.699
    1TCM     h1 2296   5.092   5.074   3.645
    1TCM    cl3 2297   5.218   4.873   3.614
    1TCM     c1 2298   3.357   2.484   2.172
    1TCM    cl1 2299   3.463   2.614   2.113
    1TCM    cl2 2300   3.194   2.506   2.107
    1TCM     h1 2301   3.398   2.386   2.139
    1TCM    cl3 2302   3.352   2.488   2.350
    1TCM     c1 2303   4.053   1.213   5.182
    1TCM    cl1 2304   4.096   1.354   5.282
    1TCM    cl2 2305   4.165   1.080   5.218
    1TCM     h1 2306   3.949   1.181   5.206
    1TCM    cl3 2307   4.064   1.257   5.010
    1TCM     c1 2308   1.182   2.126   4.336
    1TCM    cl1 2309   1.359   2.130   4.350
    1TCM    cl2 2310   1.127   1.957   4.331
    1TCM     h1 2311   1.137   2.177   4.424
    1TCM    cl3 2312   1.133   2.209   4.187
    1TCM     c1 2313   0.294   0.250   2.094
    1TCM    cl1 2314   0.287   0.191   1.926
    1TCM    cl2 2315   0.402   0.146   2.189
    1TCM     h1 2316   0.332   0.354   2.095
    1TCM    cl3 2317   0.131   0.246   2.165
    1TCM     c1 2318   3.821   0.424   1.087
    1TCM    cl1 2319   3.921   0.561   1.141
    1TCM    cl2 2320   3.649   0.471   1.092
    1TCM     h1 2321   3.848   0.397   0.983
    1TCM    cl3 2322   3.848   0.285   1.194
    1TCM     c1 2323   3.177   2.267   3.638
    1TCM    cl1 2324   3.316   2.348   3.564
    1TCM    cl2 2325   3.173   2.304   3.812
    1TCM     h1 2326   3.083   2.303   3.590
    1TCM    cl3 2327   3.191   2.091   3.616
    1TCM     c1 2328   3.751   2.856   3.540
    1TCM    cl1 2329   3.874   2.960   3.615
    1TCM    cl2 2330   3.827   2.705   3.485
    1TCM     h1 2331   3.672   2.833   3.614
    1TCM    cl3 2332   3.679   2.941   3.401
    1TCM     c1 2333   3.244   4.439   1.769
    1TCM    cl1 2334   3.201   4.609   1.802
    1TCM    cl2 2335   3.239   4.410   1.593
    1TCM     h1 2336   3.346   4.418   1.807
    1TCM    cl3 2337   3.127   4.332   1.850
    1TCM     c1 2338   0.517   1.329   4.228
    1TCM    cl1 2339   0.430   1.174   4.227
    1TCM    cl2 2340   0.513   1.401   4.065
    1TCM     h1 2341   0.469   1.398   4.300
    1TCM    cl3 2342   0.686   1.302   4.276
    1TCM     c1 2343   0.306   1.866   1.557
    1TCM    cl1 2344   0.246   1.746   1.674
    1TCM    cl2 2345   0.182   1.893   1.432
    1TCM     h1 2346   0.327   1.962   1.610
    1TCM    cl3 2347   0.455   1.806   1.481
    1TCM     c1 2348   0.081   2.911   1.375
    1TCM    cl1 2349   0.200   2.855   1.255
    1TCM    cl2 2350   0.012   3.066   1.322
    1TCM     h1 2351   0.000   2.836   1.385
    1TCM    cl3 2352   0.162   2.933   1.532
    1TCM     c1 2353   0.807   3.721   0.115
    1TCM    cl1 2354   0.796   3.543   0.112
    1TCM    cl2 2355   0.689   3.789   0.000
    1TCM     h1 2356   0.784   3.758   0.217
    1TCM    cl3 2357   0.971   3.771   0.068
    1TCM     c1 2358   3.557   1.326   1.468
    1TCM    cl1 2359   3.512   1.173   1.389
    1TCM    cl2 2360   3.686   1.296   1.586
    1TCM     h1 2361   3.592   1.398   1.392
    1TCM    cl3 2362   3.415   1.393   1.551
    1TCM     c1 2363   3.502   1.719   4.725
    1TCM    cl1 2364   3.347   1.649   4.779
    1TCM    cl2 2365   3.627   1.686   4.847
    1TCM     h1 2366   3.531   1.672   4.628
    1TCM    cl3 2367   3.484   1.894   4.704
    1TCM     c1 2368   0.720   3.963   4.300
    1TCM    cl1 2369   0.566   4.052   4.308
    1TCM    cl2 2370   0.847   4.069   4.236
    1TCM     h1 2371   0.747   3.928   4.402
    1TCM    cl3 2372   0.701   3.822   4.193
    1TCM     c1 2373   3.624   3.218   5.182
    1TCM    cl1 2374   3.587   3.130   5.032
    1TCM    cl2 2375   3.513   3.166   5.310
    1TCM     h1 2376   3.728   3.197   5.212
    1TCM    cl3 2377   3.605   3.393   5.155
    1TCM     c1 2378   0.970   2.723   1.512
    1TCM    cl1 2379   0.912   2.572   1.586
    1TCM    cl2 2380   1.144   2.712   1.482
    1TCM     h1 2381   0.916   2.740   1.416
    1TCM    cl3 2382   0.938   2.859   1.623
    1TCM     c1 2383   4.400   5.075   5.200
    1TCM    cl1 2384   4.280   5.095   5.329
    1TCM    cl2 2385   4.561   5.119   5.261
    1TCM     h1 2386   4.401   4.969   5.166
    1TCM    cl3 2387   4.358   5.180   5.063
    1TCM     c1 2388   4.419   1.108   0.308
    1TCM    cl1 2389   4.259   1.122   0.231
    1TCM    cl2 2390   4.399   1.042   0.472
    1TCM     h1 2391   4.483   1.040   0.248
    1TCM    cl3 2392   4.495   1.268   0.317
    1TCM     c1 2393   3.085   0.845   3.487
    1TCM    cl1 2394   3.047   0.833   3.313
    1TCM    cl2 2395   3.197   0.980   3.514
    1TCM     h1 2396   2.992   0.862   3.544
    1TCM    cl3 2397   3.161   0.694   3.541
    1TCM     c1 2398   4.350   1.434   4.882
    1TCM    cl1 2399   4.486   1.534   4.825
    1TCM    cl2 2400   4.340   1.286   4.784
    1TCM     h1 2401   4.366   1.407   4.988
    1TCM    cl3 2402   4.199   1.526   4.866
    1TCM     c1 2403   4.768   2.155   3.824
    1TCM    cl1 2404   4.673   2.005   3.822
    1TCM    cl2 2405   4.685   2.279   3.727
    1TCM     h1 2406   4.779   2.190   3.928
    1TCM    cl3 2407   4.929   2.123   3.754
    1TCM     c1 2408   0.104   4.928   3.850
    1TCM    cl1 2409   0.000   4.881   3.713
    1TCM    cl2 2410   0.261   4.845   3.836
    1TCM     h1 2411   0.120   5.038   3.848
    1TCM    cl3 2412   0.026   4.883   4.003
    1TCM     c1 2413   3.365   0.742   3.813
    1TCM    cl1 2414   3.219   0.657   3.756
    1TCM    cl2 2415   3.503   0.700   3.709
    1TCM     h1 2416   3.348   0.851   3.810
    1TCM    cl3 2417   3.400   0.693   3.981
    1TCM     c1 2418   3.798   3.751   1.639
    1TCM    cl1 2419   3.948   3.819   1.572
    1TCM    cl2 2420   3.792   3.780   1.814
    1TCM     h1 2421   3.711   3.799   1.590
    1TCM    cl3 2422   3.795   3.576   1.608
    1TCM     c1 2423   0.463   0.254   1.436
    1TCM    cl1 2424   0.601   0.163   1.501
    1TCM    cl2 2425   0.367   0.148   1.330
    1TCM     h1 2426   0.400   0.291   1.519
    1TCM    cl3 2427   0.523   0.393   1.342
    1TCM     c1 2428   2.162   3.968   3.691
    1TCM    cl1 2429   2.292   3.941   3.809
    1TCM    cl2 2430   2.209   3.898   3.534
    1TCM     h1 2431   2.069   3.919   3.727
    1TCM    cl3 2432   2.134   4.142   3.671
    1TCM     c1 2433   4.520   3.949   1.340
    1TCM    cl1 2434   4.549   3.927   1.515
    1TCM    cl2 2435   4.650   4.048   1.271
    1TCM     h1 2436   4.518   3.849   1.291
    1TCM    cl3 2437   4.364   4.030   1.316
    1TCM     c1 2438   3.155   4.369   4.542
    1TCM    cl1 2439   2.981   4.405   4.528
    1TCM    cl2 2440   3.178   4.232   4.654
    1TCM     h1 2441   3.195   4.342   4.443
    1TCM    cl3 2442   3.240   4.511   4.605
    1TCM     c1 2443   2.075   1.870   4.791
    1TCM    cl1 2444   1.937   1.977   4.827
    1TCM    cl2 2445   2.046   1.788   4.636
    1TCM     h1 2446   2.167   1.931   4.785
    1TCM    cl3 2447   2.092   1.749   4.921
    1TCM     c1 2448   1.551   3.470   2.010
    1TCM    cl1 2449   1.472   3.619   2.066
    1TCM    cl2 2450   1.601   3.374   2.151
    1TCM     h1 2451   1.481   3.411   1.948
    1TCM    cl3 2452   1.695   3.512   1.913
    1TCM     c1 2453   1.848   0.068   1.532
    1TCM    cl1 2454   1.934   0.027   1.682
    1TCM    cl2 2455   1.959   0.050   1.394
    1TCM     h1 2456   1.762   0.000   1.519
    1TCM    cl3 2457   1.791   0.236   1.539
    1TCM     c1 2458   4.186   4.352   3.797
    1TCM    cl1 2459   4.095   4.423   3.661
    1TCM    cl2 2460   4.105   4.392   3.950
    1TCM     h1 2461   4.191   4.242   3.785
    1TCM    cl3 2462   4.351   4.418   3.798
    1TCM     c1 2463   0.686   1.031   3.740
    1TCM    cl1 2464   0.672   1.021   3.563
    1TCM    cl2 2465   0.633   0.877   3.812
    1TCM     h1 2466   0.791   1.051   3.768
    1TCM    cl3 2467   0.583   1.163   3.800
    1TCM     c1 2468   1.687   4.458   0.702
    1TCM    cl1 2469   1.814   4.581   0.679
    1TCM    cl2 2470   1.575   4.512   0.830
    1TCM     h1 2471   1.631   4.445   0.607
    1TCM    cl3 2472   1.761   4.304   0.750
    1TCM     c1 2473   3.214   0.431   0.166
    1TCM    cl1 2474   3.266   0.291   0.262
    1TCM    cl2 2475   3.177   0.378   0.000
    1TCM     h1 2476   3.124   0.476   0.211
    1TCM    cl3 2477   3.345   0.552   0.162
    1TCM     c1 2478   3.788   0.937   3.280
    1TCM    cl1 2479   3.777   0.954   3.103
    1TCM    cl2 2480   3.958   0.924   3.328
    1TCM     h1 2481   3.743   1.027   3.328
    1TCM    cl3 2482   3.700   0.792   3.331
    1TCM     c1 2483   0.149   4.597   4.007
    1TCM    cl1 2484   0.285   4.508   3.934
    1TCM    cl2 2485   0.211   4.704   4.135
    1TCM     h1 2486   0.098   4.657   3.929
    1TCM    cl3 2487   0.034   4.482   4.077
    1TCM     c1 2488   4.445   1.695   5.234
    1TCM    cl1 2489   4.593   1.694   5.136
    1TCM    cl2 2490   4.303   1.699   5.127
    1TCM     h1 2491   4.442   1.603   5.297
    1TCM    cl3 2492   4.444   1.838   5.339
    1TCM     c1 2493   0.498   0.664   2.774
    1TCM    cl1 2494   0.632   0.641   2.659
    1TCM    cl2 2495   0.353   0.579   2.713
    1TCM     h1 2496   0.526   0.623   2.873
    1TCM    cl3 2497   0.462   0.837   2.790
    1TCM     c1 2498   0.580   1.999   2.188
    1TCM    cl1 2499   0.569   2.125   2.313
    1TCM    cl2 2500   0.536   2.069   2.030
    1TCM     h1 2501   0.684   1.960   2.183
    1TCM    cl3 2502   0.468   1.866   2.227
    1TCM     c1 2503   3.646   2.231   1.626
    1TCM    cl1 2504   3.495   2.288   1.550
    1TCM    cl2 2505   3.729   2.120   1.515
    1TCM     h1 2506   3.712   2.318   1.647
    1TCM    cl3 2507   3.608   2.147   1.777
    1TCM     c1 2508   2.710   0.890   4.358
    1TCM    cl1 2509   2.591   0.913   4.228
    1TCM    cl2 2510   2.648   0.769   4.473
    1TCM     h1 2511   2.806   0.854   4.315
    1TCM    cl3 2512   2.736   1.044   4.442
    1TCM     c1 2513   4.632   2.545   4.915
    1TCM    cl1 2514   4.615   2.675   5.036
    1TCM    cl2 2515   4.524   2.410   4.958
    1TCM     h1 2516   4.604   2.583   4.815
    1TCM    cl3 2517   4.800   2.488   4.912
    1TCM     c1 2518   3.818   0.758   2.848
    1TCM    cl1 2519   3.711   0.762   2.706
    1TCM    cl2 2520   3.889   0.920   2.873
    1TCM     h1 2521   3.759   0.730   2.938
    1TCM    cl3 2522   3.948   0.640   2.822
    1TCM     c1 2523   3.319   2.225   3.301
    1TCM    cl1 2524   3.341   2.057   3.246
    1TCM    cl2 2525   3.303   2.332   3.160
    1TCM     h1 2526   3.228   2.232   3.364
    1TCM    cl3 2527   3.461   2.274   3.397
    1TCM     c1 2528   3.832   1.617   1.580
    1TCM    cl1 2529   3.889   1.733   1.458
    1TCM    cl2 2530   3.877   1.674   1.742
    1TCM     h1 2531   3.722   1.608   1.573
    1TCM    cl3 2532   3.907   1.459   1.550
    1TCM     c1 2533   0.418   3.446   1.597
    1TCM    cl1 2534   0.253   3.423   1.659
    1TCM    cl2 2535   0.445   3.339   1.457
    1TCM     h1 2536   0.432   3.552   1.566
    1TCM    cl3 2537   0.535   3.406   1.725
    1TCM     c1 2538   2.479   3.792   4.628
    1TCM    cl1 2539   2.413   3.655   4.720
    1TCM    cl2 2540   2.384   3.938   4.665
    1TCM     h1 2541   2.585   3.808   4.656
    1TCM    cl3 2542   2.468   3.757   4.454
    1TCM     c1 2543   1.953   1.694   2.174
    1TCM    cl1 2544   2.047   1.830   2.110
    1TCM    cl2 2545   1.835   1.641   2.051
    1TCM     h1 2546   2.021   1.610   2.198
    1TCM    cl3 2547   1.867   1.745   2.320
    1TCM     c1 2548   4.510   2.589   0.378
    1TCM    cl1 2549   4.655   2.678   0.327
    1TCM    cl2 2550   4.556   2.462   0.493
    1TCM     h1 2551   4.439   2.659   0.427
    1TCM    cl3 2552   4.431   2.516   0.236
    1TCM     c1 2553   3.110   4.600   3.587
    1TCM    cl1 2554   2.962   4.544   3.507
    1TCM    cl2 2555   3.237   4.477   3.569
    1TCM     h1 2556   3.144   4.695   3.541
    1TCM    cl3 2557   3.078   4.626   3.760
    1TCM     c1 2558   5.000   3.886   5.227
    1TCM    cl1 2559   4.868   3.795   5.303
    1TCM    cl2 2560   4.991   4.057   5.277
    1TCM     h1 2561   5.097   3.844   5.258
    1TCM    cl3 2562   4.985   3.877   5.050
    1TCM     c1 2563   1.173   2.673   3.335
    1TCM    cl1 2564   1.056   2.574   3.425
    1TCM    cl2 2565   1.147   2.651   3.160
    1TCM     h1 2566   1.159   2.780   3.361
    1TCM    cl3 2567   1.339   2.623   3.377
    1TCM     c1 2568   2.498   2.832   1.312
    1TCM    cl1 2569   2.368   2.883   1.202
    1TCM    cl2 2570   2.523   2.657   1.297
    1TCM     h1 2571   2.592   2.886   1.285
    1TCM    cl3 2572   2.452   2.872   1.479
    1TCM     c1 2573   0.134   3.562   3.581
    1TCM    cl1 2574   0.247   3.562   3.444
    1TCM    cl2 2575   0.000   3.449   3.547
    1TCM     h1 2576   0.186   3.530   3.673
    1TCM    cl3 2577   0.068   3.726   3.603
    1TCM     c1 2578   2.491   4.873   3.323
    1TCM    cl1 2579   2.638   4.828   3.414
    1TCM    cl2 2580   2.348   4.849   3.426
    1TCM     h1 2581   2.497   4.980   3.293
    1TCM    cl3 2582   2.478   4.771   3.178
    1TCM     c1 2583   4.998   2.731   4.194
    1TCM    cl1 2584   5.169   2.780   4.201
    1TCM    cl2 2585   4.895   2.875   4.188
    1TCM     h1 2586   4.982   2.669   4.103
    1TCM    cl3 2587   4.959   2.635   4.339
    1TCM     c1 2588   2.576   2.253   3.561
    1TCM    cl1 2589   2.415   2.181   3.537
    1TCM    cl2 2590   2.638   2.312   3.405
    1TCM     h1 2591   2.568   2.338   3.632
    1TCM    cl3 2592   2.687   2.131   3.626
    1TCM     c1 2593   1.985   0.883   3.941
    1TCM    cl1 2594   2.030   0.801   4.093
    1TCM    cl2 2595   1.971   1.058   3.971
    1TCM     h1 2596   2.063   0.864   3.865
    1TCM    cl3 2597   1.829   0.820   3.884
    1TCM     c1 2598   0.755   0.140   0.866
    1TCM    cl1 2599   0.860   0.164   1.007
    1TCM    cl2 2600   0.734   0.294   0.781
    1TCM     h1 2601   0.802   0.066   0.797
    1TCM    cl3 2602   0.597   0.079   0.918
    1TCM     c1 2603   4.155   1.430   3.659
    1TCM    cl1 2604   4.050   1.573   3.673
    1TCM    cl2 2605   4.190   1.366   3.821
    1TCM     h1 2606   4.103   1.352   3.599
    1TCM    cl3 2607   4.307   1.475   3.579
    1TCM     c1 2608   3.233   4.977   3.366
    1TCM    cl1 2609   3.399   5.014   3.421
    1TCM    cl2 2610   3.137   4.922   3.505
    1TCM     h1 2611   3.188   5.068   3.323
    1TCM    cl3 2612   3.239   4.849   3.243
    1TCM     c1 2613   2.224   2.549   3.096
    1TCM    cl1 2614   2.144   2.426   2.997
    1TCM    cl2 2615   2.105   2.671   3.149
    1TCM     h1 2616   2.269   2.501   3.185
    1TCM    cl3 2617   2.352   2.628   3.001
    1TCM     c1 2618   1.489   0.711   5.253
    1TCM    cl1 2619   1.512   0.878   5.311
    1TCM    cl2 2620   1.454   0.714   5.078
    1TCM     h1 2621   1.581   0.652   5.271
    1TCM    cl3 2622   1.352   0.637   5.339
    1TCM     c1 2623   2.300   4.358   4.370
    1TCM    cl1 2624   2.185   4.471   4.294
    1TCM    cl2 2625   2.246   4.321   4.535
    1TCM     h1 2626   2.304   4.265   4.310
    1TCM    cl3 2627   2.461   4.432   4.375
    1TCM     c1 2628   0.781   3.762   5.051
    1TCM    cl1 2629   0.771   3.899   4.937
    1TCM    cl2 2630   0.617   3.708   5.093
    1TCM     h1 2631   0.836   3.679   5.004
    1TCM    cl3 2632   0.866   3.814   5.198
    1TCM     c1 2633   5.094   3.053   1.871
    1TCM    cl1 2634   5.071   3.195   1.767
    1TCM    cl2 2635   5.083   3.102   2.042
    1TCM     h1 2636   5.015   2.978   1.849
    1TCM    cl3 2637   5.254   2.981   1.840
    1TCM     c1 2638   3.350   1.217   3.617
    1TCM    cl1 2639   3.402   1.359   3.711
    1TCM    cl2 2640   3.394   1.240   3.446
    1TCM     h1 2641   3.399   1.126   3.656
    1TCM    cl3 2642   3.173   1.199   3.631
    1TCM     c1 2643   0.083   1.324   1.830
    1TCM    cl1 2644   0.251   1.272   1.850
    1TCM    cl2 2645   0.000   1.320   1.987
    1TCM     h1 2646   0.081   1.427   1.789
    1TCM    cl3 2647   0.000   1.214   1.717
    1TCM     c1 2648   1.713   0.080   1.232
    1TCM    cl1 2649   1.619   0.001   1.360
    1TCM    cl2 2650   1.625   0.070   1.078
    1TCM     h1 2651   1.729   0.187   1.258
    1TCM    cl3 2652   1.870  -0.001   1.215
    1TCM     c1 2653   2.757   2.943   3.918
    1TCM    cl1 2654   2.818   2.800   4.005
    1TCM    cl2 2655   2.876   3.074   3.929
    1TCM     h1 2656   2.740   2.917   3.811
    1TCM    cl3 2657   2.604   2.996   3.991
    1TCM     c1 2658   5.132   3.323   1.240
    1TCM    cl1 2659   5.204   3.455   1.145
    1TCM    cl2 2660   5.023   3.390   1.363
    1TCM     h1 2661   5.075   3.256   1.172
    1TCM    cl3 2662   5.262   3.231   1.320
    1TCM     c1 2663   1.824   0.286   0.122
    1TCM    cl1 2664   1.751   0.194   0.255
    1TCM    cl2 2665   1.973   0.205   0.068
    1TCM     h1 2666   1.752   0.292   0.038
    1TCM    cl3 2667   1.863   0.451   0.178
    1TCM     c1 2668   1.129   1.918   3.001
    1TCM    cl1 2669   1.111   1.750   2.944
    1TCM    cl2 2670   1.286   1.936   3.084
    1TCM     h1 2671   1.125   1.987   2.915
    1TCM    cl3 2672   0.998   1.956   3.115
    1TCM     c1 2673   2.703   3.868   2.465
    1TCM    cl1 2674   2.852   3.808   2.388
    1TCM    cl2 2675   2.744   4.000   2.578
    1TCM     h1 2676   2.634   3.906   2.388
    1TCM    cl3 2677   2.626   3.735   2.555
    1TCM     c1 2678   1.495   0.632   2.926
    1TCM    cl1 2679   1.393   0.753   2.843
    1TCM    cl2 2680   1.455   0.630   3.099
    1TCM     h1 2681   1.476   0.532   2.882
    1TCM    cl3 2682   1.666   0.675   2.905
    1TCM     c1 2683   5.119   5.018   2.845
    1TCM    cl1 2684   5.025   4.885   2.774
    1TCM    cl2 2685   5.142   4.988   3.019
    1TCM     h1 2686   5.219   5.024   2.795
    1TCM    cl3 2687   5.033   5.172   2.822
    1TCM     c1 2688   2.611   3.889   3.222
    1TCM    cl1 2689   2.486   3.958   3.328
    1TCM    cl2 2690   2.625   3.989   3.075
    1TCM     h1 2691   2.708   3.887   3.275
    1TCM    cl3 2692   2.564   3.724   3.176
    1TCM     c1 2693   5.085   4.993   0.232
    1TCM    cl1 2694   4.922   5.032   0.173
    1TCM    cl2 2695   5.174   4.904   0.105
    1TCM     h1 2696   5.139   5.087   0.256
    1TCM    cl3 2697   5.073   4.892   0.377
    1TCM     c1 2698   1.540   4.067   5.169
    1TCM    cl1 2699   1.390   4.053   5.075
    1TCM    cl2 2700   1.629   3.913   5.161
    1TCM     h1 2701   1.602   4.148   5.128
    1TCM    cl3 2702   1.500   4.103   5.339
    1TCM     c1 2703   0.449   2.019   3.472
    1TCM    cl1 2704   0.352   2.104   3.350
    1TCM    cl2 2705   0.380   1.858   3.501
    1TCM     h1 2706   0.553   2.009   3.436
    1TCM    cl3 2707   0.448   2.112   3.624
    1TCM     c1 2708   4.646   0.450   4.850
    1TCM    cl1 2709   4.644   0.458   5.028
    1TCM    cl2 2710   4.635   0.614   4.783
    1TCM     h1 2711   4.741   0.402   4.817
    1TCM    cl3 2712   4.509   0.353   4.793
    1TCM     c1 2713   4.343   2.425   2.463
    1TCM    cl1 2714   4.257   2.281   2.523
    1TCM    cl2 2715   4.469   2.472   2.580
    1TCM     h1 2716   4.389   2.402   2.365
    1TCM    cl3 2717   4.227   2.559   2.444
    1TCM     c1 2718   3.486   4.724   1.651
    1TCM    cl1 2719   3.489   4.555   1.706
    1TCM    cl2 2720   3.563   4.736   1.492
    1TCM     h1 2721   3.380   4.758   1.644
    1TCM    cl3 2722   3.573   4.826   1.768
    1TCM     c1 2723   5.207   5.194   0.701
    1TCM    cl1 2724   5.235   5.335   0.805
    1TCM    cl2 2725   5.034   5.181   0.663
    1TCM     h1 2726   5.266   5.205   0.607
    1TCM    cl3 2727   5.261   5.047   0.787
    1TCM     c1 2728   3.973   5.148   0.255
    1TCM    cl1 2729   4.017   5.088   0.416
    1TCM    cl2 2730   4.121   5.187   0.163
    1TCM     h1 2731   3.915   5.070   0.200
    1TCM    cl3 2732   3.873   5.294   0.271
    1TCM     c1 2733   0.705   5.238   2.425
    1TCM    cl1 2734   0.603   5.340   2.529
    1TCM    cl2 2735   0.676   5.278   2.254
    1TCM     h1 2736   0.812   5.256   2.450
    1TCM    cl3 2737   0.666   5.067   2.453
    1TCM     c1 2738   2.877   5.148   4.397
    1TCM    cl1 2739   2.821   5.245   4.259
    1TCM    cl2 2740   2.963   5.004   4.338
    1TCM     h1 2741   2.945   5.208   4.460
    1TCM    cl3 2742   2.737   5.097   4.494
    1TCM     c1 2743   4.416   4.188   1.833
    1TCM    cl1 2744   4.278   4.165   1.724
    1TCM    cl2 2745   4.357   4.207   2.000
    1TCM     h1 2746   4.483   4.100   1.827
    1TCM    cl3 2747   4.506   4.334   1.785
    1TCM     c1 2748   3.251   3.725   4.881
    1TCM    cl1 2749   3.376   3.721   5.007
    1TCM    cl2 2750   3.320   3.670   4.727
    1TCM     h1 2751   3.167   3.658   4.910
    1TCM    cl3 2752   3.190   3.891   4.863
    1TCM     c1 2753   2.768   0.512   4.345
    1TCM    cl1 2754   2.676   0.519   4.498
    1TCM    cl2 2755   2.722   0.365   4.256
    1TCM     h1 2756   2.744   0.602   4.284
    1TCM    cl3 2757   2.942   0.508   4.381
    1TCM     c1 2758   3.344   3.352   1.813
    1TCM    cl1 2759   3.487   3.437   1.749
    1TCM    cl2 2760   3.327   3.387   1.986
    1TCM     h1 2761   3.253   3.387   1.759
    1TCM    cl3 2762   3.363   3.177   1.789
    1TCM     c1 2763   0.131   3.119   3.460
    1TCM    cl1 2764   0.232   3.130   3.315
    1TCM    cl2 2765   0.233   3.135   3.605
    1TCM     h1 2766   0.055   3.200   3.459
    1TCM    cl3 2767   0.049   2.961   3.463
    1TCM     c1 2768   1.509   3.841   3.102
    1TCM    cl1 2769   1.600   3.869   3.252
    1TCM    cl2 2770   1.514   3.987   3.001
    1TCM     h1 2771   1.555   3.756   3.046
    1TCM    cl3 2772   1.340   3.801   3.141
    1TCM     c1 2773   2.839   4.216   1.750
    1TCM    cl1 2774   2.700   4.106   1.746
    1TCM    cl2 2775   2.900   4.228   1.917
    1TCM     h1 2776   2.919   4.178   1.684
    1TCM    cl3 2777   2.788   4.378   1.694
    1TCM     c1 2778   5.139   1.669   2.955
    1TCM    cl1 2779   5.085   1.648   2.787
    1TCM    cl2 2780   5.317   1.674   2.960
    1TCM     h1 2781   5.098   1.763   2.995
    1TCM    cl3 2782   5.081   1.532   3.053
    1TCM     c1 2783   4.412   3.395   2.958
    1TCM    cl1 2784   4.413   3.305   2.805
    1TCM    cl2 2785   4.334   3.297   3.084
    1TCM     h1 2786   4.516   3.418   2.988
    1TCM    cl3 2787   4.321   3.547   2.936
    1TCM     c1 2788   2.712   4.966   2.627
    1TCM    cl1 2789   2.708   4.789   2.637
    1TCM    cl2 2790   2.742   5.034   2.789
    1TCM     h1 2791   2.794   4.998   2.558
    1TCM    cl3 2792   2.556   5.026   2.566
    1TCM     c1 2793   3.023   3.273   2.426
    1TCM    cl1 2794   2.925   3.204   2.295
    1TCM    cl2 2795   3.193   3.285   2.373
    1TCM     h1 2796   2.985   3.374   2.451
    1TCM    cl3 2797   3.014   3.168   2.569
    1TCM     c1 2798   1.926   3.497   4.130
    1TCM    cl1 2799   1.901   3.643   4.032
    1TCM    cl2 2800   1.990   3.542   4.289
    1TCM     h1 2801   1.828   3.444   4.142
    1TCM    cl3 2802   2.040   3.389   4.047
    1TCM     c1 2803   4.978   1.934   0.504
    1TCM    cl1 2804   4.925   1.838   0.364
    1TCM    cl2 2805   4.934   1.849   0.654
    1TCM     h1 2806   5.088   1.947   0.500
    1TCM    cl3 2807   4.899   2.093   0.500
    1TCM     c1 2808   2.066   3.098   2.078
    1TCM    cl1 2809   2.194   3.152   2.189
    1TCM    cl2 2810   2.139   3.009   1.943
    1TCM     h1 2811   1.995   3.032   2.133
    1TCM    cl3 2812   1.977   3.239   2.016
    1TCM     c1 2813   1.991   0.950   4.968
    1TCM    cl1 2814   2.040   1.117   4.934
    1TCM    cl2 2815   2.111   0.838   4.899
    1TCM     h1 2816   1.986   0.934   5.078
    1TCM    cl3 2817   1.832   0.919   4.896
    1TCM     c1 2818   0.320   5.094   4.004
    1TCM    cl1 2819   0.444   5.161   4.112
    1TCM    cl2 2820   0.349   5.150   3.838
    1TCM     h1 2821   0.325   4.983   4.006
    1TCM    cl3 2822   0.159   5.147   4.057
    1TCM     c1 2823   1.659   4.495   1.725
    1TCM    cl1 2824   1.650   4.630   1.609
    1TCM    cl2 2825   1.826   4.479   1.784
    1TCM     h1 2826   1.591   4.515   1.810
    1TCM    cl3 2827   1.609   4.344   1.645
    1TCM     c1 2828   4.922   0.948   4.255
    1TCM    cl1 2829   4.945   0.899   4.424
    1TCM    cl2 2830   4.881   0.805   4.157
    1TCM     h1 2831   4.840   1.023   4.249
    1TCM    cl3 2832   5.073   1.020   4.193
    1TCM     c1 2833   2.351   3.238   0.254
    1TCM    cl1 2834   2.354   3.380   0.147
    1TCM    cl2 2835   2.307   3.288   0.419
    1TCM     h1 2836   2.276   3.165   0.216
    1TCM    cl3 2837   2.511   3.162   0.256
    1TCM     c1 2838   2.666   4.302   1.427
    1TCM    cl1 2839   2.680   4.479   1.439
    1TCM    cl2 2840   2.674   4.253   1.256
    1TCM     h1 2841   2.750   4.255   1.483
    1TCM    cl3 2842   2.511   4.249   1.497
    1TCM     c1 2843   1.651   0.918   4.065
    1TCM    cl1 2844   1.761   0.798   4.138
    1TCM    cl2 2845   1.740   1.016   3.947
    1TCM     h1 2846   1.567   0.865   4.015
    1TCM    cl3 2847   1.586   1.024   4.193
    1TCM     c1 2848   1.589   1.137   2.872
    1TCM    cl1 2849   1.618   1.142   2.697
    1TCM    cl2 2850   1.588   0.968   2.927
    1TCM     h1 2851   1.670   1.192   2.924
    1TCM    cl3 2852   1.432   1.212   2.909
    1TCM     c1 2853   1.990   3.194   3.478
    1TCM    cl1 2854   1.961   3.172   3.304
    1TCM    cl2 2855   2.032   3.363   3.510
    1TCM     h1 2856   1.898   3.168   3.534
    1TCM    cl3 2857   2.123   3.088   3.530
    1TCM     c1 2858   3.872   4.309   3.046
    1TCM    cl1 2859   3.788   4.446   3.122
    1TCM    cl2 2860   3.877   4.333   2.870
    1TCM     h1 2861   3.975   4.303   3.086
    1TCM    cl3 2862   3.785   4.159   3.083
    1TCM     c1 2863   2.711   5.174   0.498
    1TCM    cl1 2864   2.887   5.152   0.492
    1TCM    cl2 2865   2.673   5.335   0.566
    1TCM     h1 2866   2.669   5.166   0.396
    1TCM    cl3 2867   2.639   5.049   0.602
    1TCM     c1 2868   1.650   3.808   4.111
    1TCM    cl1 2869   1.772   3.937   4.103
    1TCM    cl2 2870   1.697   3.689   4.235
    1TCM     h1 2871   1.551   3.851   4.138
    1TCM    cl3 2872   1.638   3.727   3.953
    1TCM     c1 2873   2.361   2.240   1.326
    1TCM    cl1 2874   2.508   2.337   1.353
    1TCM    cl2 2875   2.236   2.343   1.254
    1TCM     h1 2876   2.384   2.156   1.257
    1TCM    cl3 2877   2.303   2.176   1.481
    1TCM     c1 2878   3.065   0.126   3.764
    1TCM    cl1 2879   3.191   0.057   3.869
    1TCM    cl2 2880   2.984   0.260   3.848
    1TCM     h1 2881   3.111   0.163   3.670
    1TCM    cl3 2882   2.945   0.000   3.725
    1TCM     c1 2883   2.147   1.250   2.168
    1TCM    cl1 2884   2.214   1.302   2.012
    1TCM    cl2 2885   2.015   1.134   2.141
    1TCM     h1 2886   2.226   1.201   2.228
    1TCM    cl3 2887   2.084   1.391   2.256
    1TCM     c1 2888   2.314   2.848   0.282
    1TCM    cl1 2889   2.264   2.844   0.452
    1TCM    cl2 2890   2.247   2.707   0.196
    1TCM     h1 2891   2.277   2.941   0.234
    1TCM    cl3 2892   2.492   2.844   0.272
    1TCM     c1 2893   3.596   2.504   4.371
    1TCM    cl1 2894   3.678   2.655   4.415
    1TCM    cl2 2895   3.716   2.383   4.321
    1TCM     h1 2896   3.539   2.466   4.458
    1TCM    cl3 2897   3.484   2.535   4.236
    1TCM     c1 2898   0.692   0.389   2.212
    1TCM    cl1 2899   0.614   0.370   2.053
    1TCM    cl2 2900   0.793   0.536   2.211
    1TCM     h1 2901   0.615   0.397   2.290
    1TCM    cl3 2902   0.795   0.247   2.245
    1TCM     c1 2903   0.081   2.881   3.892
    1TCM    cl1 2904   0.127   3.052   3.908
    1TCM    cl2 2905   0.016   2.823   4.047
    1TCM     h1 2906   0.003   2.870   3.813
    1TCM    cl3 2907   0.223   2.784   3.848
    1TCM     c1 2908   4.293   4.861   0.793
    1TCM    cl1 2909   4.324   4.860   0.968
    1TCM    cl2 2910   4.330   5.022   0.727
    1TCM     h1 2911   4.357   4.785   0.744
    1TCM    cl3 2912   4.122   4.823   0.763
    1TCM     c1 2913   0.282   4.319   1.087
    1TCM    cl1 2914   0.270   4.143   1.066
    1TCM    cl2 2915   0.132   4.396   1.029
    1TCM     h1 2916   0.296   4.343   1.195
    1TCM    cl3 2917   0.420   4.381   0.994
    1TCM     c1 2918   2.185   2.367   3.843
    1TCM    cl1 2919   2.276   2.427   3.703
    1TCM    cl2 2920   2.282   2.390   3.991
    1TCM     h1 2921   2.090   2.424   3.852
    1TCM    cl3 2922   2.149   2.194   3.822
    1TCM     c1 2923   0.589   4.080   1.307
    1TCM    cl1 2924   0.501   4.128   1.160
    1TCM    cl2 2925   0.544   4.189   1.441
    1TCM     h1 2926   0.562   3.976   1.334
    1TCM    cl3 2927   0.764   4.091   1.278
    1TCM     c1 2928   1.525   3.857   0.416
    1TCM    cl1 2929   1.511   3.699   0.334
    1TCM    cl2 2930   1.695   3.885   0.461
    1TCM     h1 2931   1.491   3.937   0.347
    1TCM    cl3 2932   1.425   3.857   0.562
    1TCM     c1 2933   3.153   2.133   2.561
    1TCM    cl1 2934   3.271   2.001   2.549
    1TCM    cl2 2935   3.164   2.237   2.417
    1TCM     h1 2936   3.050   2.091   2.568
    1TCM    cl3 2937   3.187   2.230   2.706
    1TCM     c1 2938   1.936   2.770   2.521
    1TCM    cl1 2939   2.045   2.749   2.659
    1TCM    cl2 2940   1.770   2.728   2.569
    1TCM     h1 2941   1.939   2.875   2.487
    1TCM    cl3 2942   1.987   2.663   2.388
    1TCM     c1 2943   3.412   5.128   2.095
    1TCM    cl1 2944   3.347   5.245   1.979
    1TCM    cl2 2945   3.278   5.042   2.174
    1TCM     h1 2946   3.476   5.054   2.041
    1TCM    cl3 2947   3.510   5.212   2.217
    1TCM     c1 2948   1.066   2.552   4.435
    1TCM    cl1 2949   1.173   2.670   4.513
    1TCM    cl2 2950   1.153   2.472   4.302
    1TCM     h1 2951   1.034   2.476   4.509
    1TCM    cl3 2952   0.923   2.636   4.370
    1TCM     c1 2953   4.605   3.900   4.932
    1TCM    cl1 2954   4.677   3.766   5.024
    1TCM    cl2 2955   4.666   3.896   4.765
    1TCM     h1 2956   4.495   3.890   4.931
    1TCM    cl3 2957   4.650   4.055   5.008
    1TCM     c1 2958   4.918   1.881   4.162
    1TCM    cl1 2959   5.085   1.822   4.184
    1TCM    cl2 2960   4.868   1.856   3.994
    1TCM     h1 2961   4.850   1.825   4.230
    1TCM    cl3 2962   4.911   2.054   4.201
    1TCM     c1 2963   4.085   2.321   2.897
    1TCM    cl1 2964   4.021   2.163   2.949
    1TCM    cl2 2965   3.950   2.423   2.842
    1TCM     h1 2966   4.135   2.370   2.983
    1TCM    cl3 2967   4.201   2.298   2.764
    1TCM     c1 2968   1.467   2.830   5.168
    1TCM    cl1 2969   1.450   2.999   5.220
    1TCM    cl2 2970   1.310   2.747   5.184
    1TCM     h1 2971   1.500   2.827   5.062
    1TCM    cl3 2972   1.588   2.748   5.270
    1TCM     c1 2973   3.654   2.148   3.134
    1TCM    cl1 2974   3.487   2.209   3.128
    1TCM    cl2 2975   3.724   2.184   3.293
    1TCM     h1 2976   3.654   2.038   3.118
    1TCM    cl3 2977   3.750   2.227   3.007
    1TCM     c1 2978   2.806   4.934   0.983
    1TCM    cl1 2979   2.776   5.109   0.966
    1TCM    cl2 2980   2.658   4.853   1.039
    1TCM     h1 2981   2.836   4.892   0.885
    1TCM    cl3 2982   2.936   4.908   1.102
    1TCM     c1 2983   1.657   3.846   0.889
    1TCM    cl1 2984   1.821   3.792   0.934
    1TCM    cl2 2985   1.618   3.785   0.726
    1TCM     h1 2986   1.584   3.807   0.962
    1TCM    cl3 2987   1.652   4.024   0.888
    1TCM     c1 2988   5.070   3.221   5.124
    1TCM    cl1 2989   5.002   3.343   5.233
    1TCM    cl2 2990   4.955   3.087   5.107
    1TCM     h1 2991   5.089   3.266   5.024
    1TCM    cl3 2992   5.223   3.160   5.190
    1TCM     c1 2993   2.934   5.036   3.111
    1TCM    cl1 2994   3.093   5.113   3.129
    1TCM    cl2 2995   2.901   5.008   2.938
    1TCM     h1 2996   2.934   4.939   3.165
    1TCM    cl3 2997   2.809   5.142   3.179
    1TCM     c1 2998   4.814   3.848   3.636
    1TCM    cl1 2999   4.708   3.847   3.779
    1TCM    cl2 3000   4.718   3.886   3.491
    1TCM     h1 3001   4.894   3.924   3.649
    1TCM    cl3 3002   4.889   3.687   3.617
    1TCM     c1 3003   1.696   0.900   3.178
    1TCM    cl1 3004   1.826   1.007   3.120
    1TCM    cl2 3005   1.549   0.995   3.209
    1TCM     h1 3006   1.675   0.823   3.101
    1TCM    cl3 3007   1.748   0.820   3.328
    1TCM     c1 3008   3.338   2.753   4.545
    1TCM    cl1 3009   3.329   2.930   4.539
    1TCM    cl2 3010   3.331   2.687   4.380
    1TCM     h1 3011   3.433   2.723   4.593
    1TCM    cl3 3012   3.201   2.690   4.640
    1TCM     c1 3013   2.367   4.278   0.562
    1TCM    cl1 3014   2.286   4.158   0.458
    1TCM    cl2 3015   2.417   4.201   0.714
    1TCM     h1 3016   2.456   4.318   0.509
    1TCM    cl3 3017   2.254   4.411   0.597
    1TCM     c1 3018   3.239   1.593   0.297
    1TCM    cl1 3019   3.354   1.687   0.199
    1TCM    cl2 3020   3.156   1.475   0.192
    1TCM     h1 3021   3.294   1.539   0.377
    1TCM    cl3 3022   3.119   1.702   0.369
    1TCM     c1 3023   2.409   1.749   4.100
    1TCM    cl1 3024   2.492   1.757   4.257
    1TCM    cl2 3025   2.236   1.719   4.126
    1TCM     h1 3026   2.423   1.844   4.046
    1TCM    cl3 3027   2.478   1.616   4.004
    1TCM     c1 3028   1.327   0.983   2.733
    1TCM    cl1 3029   1.496   0.928   2.727
    1TCM    cl2 3030   1.308   1.128   2.631
    1TCM     h1 3031   1.260   0.903   2.696
    1TCM    cl3 3032   1.283   1.024   2.901
    1TCM     c1 3033   2.818   4.348   5.130
    1TCM    cl1 3034   2.747   4.342   5.293
    1TCM    cl2 3035   2.704   4.425   5.018
    1TCM     h1 3036   2.912   4.407   5.132
    1TCM    cl3 3037   2.853   4.183   5.074
    1TCM     c1 3038   2.370   4.450   1.617
    1TCM    cl1 3039   2.495   4.349   1.693
    1TCM    cl2 3040   2.372   4.425   1.441
    1TCM     h1 3041   2.270   4.423   1.657
    1TCM    cl3 3042   2.403   4.621   1.653
    1TCM     c1 3043   0.966   2.542   5.159
    1TCM    cl1 3044   0.807   2.543   5.239
    1TCM    cl2 3045   0.985   2.390   5.069
    1TCM     h1 3046   0.973   2.627   5.089
    1TCM    cl3 3047   1.094   2.555   5.282
    1TCM     c1 3048   1.974   1.258   1.770
    1TCM    cl1 3049   2.003   1.403   1.671
    1TCM    cl2 3050   1.877   1.302   1.912
    1TCM     h1 3051   1.920   1.183   1.709
    1TCM    cl3 3052   2.130   1.191   1.823
    1TCM     c1 3053   0.529   3.621   3.666
    1TCM    cl1 3054   0.371   3.702   3.661
    1TCM    cl2 3055   0.589   3.597   3.500
    1TCM     h1 3056   0.601   3.683   3.723
    1TCM    cl3 3057   0.512   3.463   3.745
    1TCM     c1 3058   0.297   0.164   3.735
    1TCM    cl1 3059   0.337   0.335   3.709
    1TCM    cl2 3060   0.422   0.062   3.660
    1TCM     h1 3061   0.292   0.143   3.844
    1TCM    cl3 3062   0.139   0.128   3.661
    1TCM     c1 3063   4.261   5.197   3.310
    1TCM    cl1 3064   4.406   5.226   3.408
    1TCM    cl2 3065   4.288   5.056   3.205
    1TCM     h1 3066   4.174   5.177   3.376
    1TCM    cl3 3067   4.227   5.339   3.209
    1TCM     c1 3068   3.253   4.026   1.560
    1TCM    cl1 3069   3.375   4.154   1.578
    1TCM    cl2 3070   3.297   3.888   1.663
    1TCM     h1 3071   3.154   4.064   1.590
    1TCM    cl3 3072   3.247   3.973   1.390
    1TCM     c1 3073   4.660   4.328   3.839
    1TCM    cl1 3074   4.591   4.474   3.914
    1TCM    cl2 3075   4.759   4.242   3.959
    1TCM     h1 3076   4.578   4.262   3.804
    1TCM    cl3 3077   4.762   4.375   3.701
    1TCM     c1 3078   0.975   3.711   0.408
    1TCM    cl1 3079   1.034   3.610   0.541
    1TCM    cl2 3080   0.996   3.625   0.254
    1TCM     h1 3081   0.867   3.734   0.423
    1TCM    cl3 3082   1.067   3.863   0.404
    1TCM     c1 3083   5.127   2.333   5.096
    1TCM    cl1 3084   5.061   2.266   5.247
    1TCM    cl2 3085   5.304   2.349   5.111
    1TCM     h1 3086   5.103   2.265   5.012
    1TCM    cl3 3087   5.055   2.493   5.067
    1TCM     c1 3088   0.988   5.023   2.493
    1TCM    cl1 3089   0.974   5.131   2.634
    1TCM    cl2 3090   1.017   5.121   2.347
    1TCM     h1 3091   1.073   4.953   2.508
    1TCM    cl3 3092   0.838   4.931   2.474
    1TCM     c1 3093   1.025   1.249   4.215
    1TCM    cl1 3094   0.939   1.356   4.328
    1TCM    cl2 3095   0.998   1.305   4.048
    1TCM     h1 3096   1.133   1.251   4.237
    1TCM    cl3 3097   0.963   1.083   4.233
    1TCM     c1 3098   3.912   2.700   4.212
    1TCM    cl1 3099   3.790   2.628   4.104
    1TCM    cl2 3100   3.907   2.619   4.370
    1TCM     h1 3101   4.013   2.687   4.167
    1TCM    cl3 3102   3.878   2.873   4.232
    1TCM     c1 3103   2.307   3.523   5.225
    1TCM    cl1 3104   2.445   3.480   5.122
    1TCM    cl2 3105   2.164   3.429   5.174
    1TCM     h1 3106   2.331   3.499   5.331
    1TCM    cl3 3107   2.273   3.696   5.209
    1TCM     c1 3108   1.894   2.242   0.780
    1TCM    cl1 3109   1.958   2.079   0.810
    1TCM    cl2 3110   1.939   2.294   0.616
    1TCM     h1 3111   1.784   2.241   0.790
    1TCM    cl3 3112   1.963   2.355   0.899
    1TCM     c1 3113   0.394   3.669   0.560
    1TCM    cl1 3114   0.417   3.648   0.385
    1TCM    cl2 3115   0.379   3.510   0.638
    1TCM     h1 3116   0.481   3.724   0.603
    1TCM    cl3 3117   0.245   3.763   0.589
    1TCM     c1 3118   3.218   1.626   3.497
    1TCM    cl1 3119   3.266   1.785   3.433
    1TCM    cl2 3120   3.212   1.508   3.364
    1TCM     h1 3121   3.292   1.593   3.572
    1TCM    cl3 3122   3.058   1.639   3.572
    1TCM     c1 3123   2.743   4.700   0.292
    1TCM    cl1 3124   2.706   4.870   0.256
    1TCM    cl2 3125   2.817   4.624   0.149
    1TCM     h1 3126   2.814   4.695   0.377
    1TCM    cl3 3127   2.594   4.614   0.335
    1TCM     c1 3128   3.716   3.554   3.366
    1TCM    cl1 3129   3.855   3.443   3.371
    1TCM    cl2 3130   3.738   3.671   3.234
    1TCM     h1 3131   3.623   3.496   3.348
    1TCM    cl3 3132   3.703   3.640   3.521
    1TCM     c1 3133   2.955   3.903   0.974
    1TCM    cl1 3134   2.849   4.022   0.895
    1TCM    cl2 3135   2.872   3.746   0.984
    1TCM     h1 3136   3.049   3.892   0.915
    1TCM    cl3 3137   2.995   3.959   1.138
    1TCM     c1 3138   4.473   4.359   1.213
    1TCM    cl1 3139   4.515   4.441   1.061
    1TCM    cl2 3140   4.620   4.295   1.289
    1TCM     h1 3141   4.424   4.431   1.281
    1TCM    cl3 3142   4.360   4.225   1.179
    1TCM     c1 3143   4.613   3.078   0.236
    1TCM    cl1 3144   4.610   3.143   0.402
    1TCM    cl2 3145   4.775   3.017   0.199
    1TCM     h1 3146   4.539   2.995   0.228
    1TCM    cl3 3147   4.570   3.207   0.122
    1TCM     c1 3148   2.921   1.030   2.222
    1TCM    cl1 3149   2.879   0.860   2.254
    1TCM    cl2 3150   2.803   1.100   2.110
    1TCM     h1 3151   2.920   1.087   2.317
    1TCM    cl3 3152   3.084   1.038   2.150
    1TCM     c1 3153   3.448   4.597   2.982
    1TCM    cl1 3154   3.377   4.722   2.878
    1TCM    cl2 3155   3.383   4.614   3.147
    1TCM     h1 3156   3.424   4.497   2.942
    1TCM    cl3 3157   3.625   4.618   2.987
    1TCM     c1 3158   3.759   3.507   3.946
    1TCM    cl1 3159   3.781   3.660   4.033
    1TCM    cl2 3160   3.889   3.394   3.991
    1TCM     h1 3161   3.661   3.463   3.973
    1TCM    cl3 3162   3.765   3.536   3.771
    1TCM     c1 3163   4.168   0.315   0.213
    1TCM    cl1 3164   4.317   0.303   0.310
    1TCM    cl2 3165   4.198   0.248   0.051
    1TCM     h1 3166   4.088   0.257   0.262
    1TCM    cl3 3167   4.120   0.485   0.199
    1TCM     c1 3168   3.292   3.185   3.461
    1TCM    cl1 3169   3.349   3.277   3.603
    1TCM    cl2 3170   3.357   3.258   3.313
    1TCM     h1 3171   3.326   3.080   3.469
    1TCM    cl3 3172   3.114   3.189   3.456
    1TCM     c1 3173   0.596   2.678   1.945
    1TCM    cl1 3174   0.724   2.654   1.824
    1TCM    cl2 3175   0.512   2.523   1.975
    1TCM     h1 3176   0.641   2.714   2.040
    1TCM    cl3 3177   0.479   2.798   1.885
    1TCM     c1 3178   5.191   4.297   3.021
    1TCM    cl1 3179   5.200   4.456   2.942
    1TCM    cl2 3180   5.242   4.312   3.190
    1TCM     h1 3181   5.086   4.260   3.017
    1TCM    cl3 3182   5.297   4.183   2.936
    1TCM     c1 3183   2.323   3.539   1.518
    1TCM    cl1 3184   2.351   3.403   1.408
    1TCM    cl2 3185   2.375   3.494   1.682
    1TCM     h1 3186   2.382   3.627   1.484
    1TCM    cl3 3187   2.150   3.581   1.520
    1TCM     c1 3188   5.071   1.389   2.442
    1TCM    cl1 3189   5.178   1.497   2.348
    1TCM    cl2 3190   5.142   1.226   2.448
    1TCM     h1 3191   5.060   1.429   2.545
    1TCM    cl3 3192   4.912   1.381   2.363
    1TCM     c1 3193   4.190   3.121   3.998
    1TCM    cl1 3194   4.034   3.062   4.058
    1TCM    cl2 3195   4.313   2.994   4.018
    1TCM     h1 3196   4.182   3.147   3.891
    1TCM    cl3 3197   4.239   3.265   4.090
    1TCM     c1 3198   1.604   3.553   3.467
    1TCM    cl1 3199   1.686   3.649   3.342
    1TCM    cl2 3200   1.621   3.380   3.430
    1TCM     h1 3201   1.649   3.574   3.566
    1TCM    cl3 3202   1.431   3.596   3.471
    1TCM     c1 3203   2.567   3.268   2.633
    1TCM    cl1 3204   2.440   3.205   2.740
    1TCM    cl2 3205   2.727   3.232   2.703
    1TCM     h1 3206   2.559   3.220   2.533
    1TCM    cl3 3207   2.549   3.444   2.616
    1TCM     c1 3208   1.895   2.904   0.177
    1TCM    cl1 3209   1.843   2.770   0.282
    1TCM    cl2 3210   1.907   2.846   0.009
    1TCM     h1 3211   1.821   2.986   0.183
    1TCM    cl3 3212   2.054   2.964   0.230
    1TCM     c1 3213   4.820   0.836   2.890
    1TCM    cl1 3214   4.774   0.671   2.937
    1TCM    cl2 3215   4.720   0.888   2.752
    1TCM     h1 3216   4.804   0.905   2.975
    1TCM    cl3 3217   4.991   0.839   2.843
    1TCM     c1 3218   4.885   2.049   1.275
    1TCM    cl1 3219   4.759   2.019   1.154
    1TCM    cl2 3220   4.841   2.190   1.373
    1TCM     h1 3221   4.896   1.960   1.341
    1TCM    cl3 3222   5.040   2.079   1.193
    1TCM     c1 3223   3.137   4.020   0.455
    1TCM    cl1 3224   3.237   3.877   0.494
    1TCM    cl2 3225   3.240   4.145   0.381
    1TCM     h1 3226   3.057   3.991   0.384
    1TCM    cl3 3227   3.064   4.083   0.604
    1TCM     c1 3228   2.674   4.104   3.622
    1TCM    cl1 3229   2.838   4.119   3.690
    1TCM    cl2 3230   2.685   4.055   3.452
    1TCM     h1 3231   2.618   4.027   3.680
    1TCM    cl3 3232   2.591   4.260   3.634
    1TCM     c1 3233   2.075   4.517   2.254
    1TCM    cl1 3234   2.244   4.511   2.307
    1TCM    cl2 3235   1.968   4.515   2.397
    1TCM     h1 3236   2.057   4.610   2.196
    1TCM    cl3 3237   2.039   4.376   2.152
    1TCM     c1 3238   1.638   1.783   0.659
    1TCM    cl1 3239   1.671   1.844   0.822
    1TCM    cl2 3240   1.515   1.886   0.581
    1TCM     h1 3241   1.731   1.786   0.599
    1TCM    cl3 3242   1.578   1.616   0.669
    1TCM     c1 3243   0.269   2.800   4.368
    1TCM    cl1 3244   0.375   2.875   4.246
    1TCM    cl2 3245   0.259   2.625   4.338
    1TCM     h1 3246   0.311   2.818   4.469
    1TCM    cl3 3247   0.107   2.872   4.357
    1TCM     c1 3248   0.538   1.631   4.722
    1TCM    cl1 3249   0.658   1.759   4.696
    1TCM    cl2 3250   0.590   1.527   4.857
    1TCM     h1 3251   0.440   1.676   4.747
    1TCM    cl3 3252   0.522   1.533   4.575
    1TCM     c1 3253   5.067   2.921   0.646
    1TCM    cl1 3254   4.896   2.962   0.670
    1TCM    cl2 3255   5.096   2.753   0.699
    1TCM     h1 3256   5.093   2.930   0.538
    1TCM    cl3 3257   5.169   3.031   0.742
    1TCM     c1 3258   2.187   4.287   4.813
    1TCM    cl1 3259   2.260   4.147   4.733
    1TCM    cl2 3260   2.235   4.290   4.984
    1TCM     h1 3261   2.221   4.380   4.763
    1TCM    cl3 3262   2.010   4.276   4.802
    1TCM     c1 3263   3.081   3.454   3.249
    1TCM    cl1 3264   2.913   3.428   3.196
    1TCM    cl2 3265   3.133   3.617   3.200
    1TCM     h1 3266   3.086   3.446   3.360
    1TCM    cl3 3267   3.187   3.333   3.175
    1TCM     c1 3268   2.971   4.357   0.367
    1TCM    cl1 3269   3.045   4.294   0.515
    1TCM    cl2 3270   3.092   4.450   0.275
    1TCM     h1 3271   2.934   4.273   0.305
    1TCM    cl3 3272   2.835   4.463   0.409
    1TCM     c1 3273   3.453   4.476   0.473
    1TCM    cl1 3274   3.516   4.368   0.346
    1TCM    cl2 3275   3.524   4.432   0.629
    1TCM     h1 3276   3.479   4.581   0.448
    1TCM    cl3 3277   3.276   4.460   0.482
    1TCM     c1 3278   2.415   3.745   1.047
    1TCM    cl1 3279   2.582   3.806   1.035
    1TCM    cl2 3280   2.397   3.654   1.198
    1TCM     h1 3281   2.345   3.831   1.047
    1TCM    cl3 3282   2.381   3.639   0.909
    1TCM     c1 3283   4.082   3.940   3.749
    1TCM    cl1 3284   4.193   3.909   3.614
    1TCM    cl2 3285   4.176   3.984   3.894
    1TCM     h1 3286   4.014   4.023   3.723
    1TCM    cl3 3287   3.987   3.794   3.783
    1TCM     c1 3288   5.215   4.783   4.201
    1TCM    cl1 3289   5.061   4.745   4.121
    1TCM    cl2 3290   5.184   4.842   4.365
    1TCM     h1 3291   5.278   4.692   4.206
    1TCM    cl3 3292   5.301   4.909   4.108
    1TCM     c1 3293   4.164   0.347   3.520
    1TCM    cl1 3294   4.229   0.210   3.614
    1TCM    cl2 3295   4.010   0.400   3.591
    1TCM     h1 3296   4.237   0.431   3.522
    1TCM    cl3 3297   4.137   0.296   3.352
    1TCM     c1 3298   2.425   2.679   3.425
    1TCM    cl1 3299   2.382   2.795   3.298
    1TCM    cl2 3300   2.382   2.747   3.584
    1TCM     h1 3301   2.371   2.584   3.409
    1TCM    cl3 3302   2.601   2.649   3.420
    1TCM     c1 3303   5.005   4.621   2.611
    1TCM    cl1 3304   5.017   4.790   2.559
    1TCM    cl2 3305   4.999   4.613   2.789
    1TCM     h1 3306   4.913   4.575   2.569
    1TCM    cl3 3307   5.148   4.531   2.553
    1TCM     c1 3308   2.397   0.821   2.093
    1TCM    cl1 3309   2.233   0.801   2.026
    1TCM    cl2 3310   2.390   0.812   2.270
    1TCM     h1 3311   2.463   0.740   2.054
    1TCM    cl3 3312   2.462   0.979   2.044
    1TCM     c1 3313   0.270   2.392   3.031
    1TCM    cl1 3314   0.122   2.462   2.962
    1TCM    cl2 3315   0.314   2.244   2.943
    1TCM     h1 3316   0.353   2.466   3.023
    1TCM    cl3 3317   0.243   2.353   3.203
    1TCM     c1 3318   1.098   4.058   1.113
    1TCM    cl1 3319   1.100   4.059   0.935
    1TCM    cl2 3320   1.231   3.957   1.174
    1TCM     h1 3321   1.110   4.162   1.150
    1TCM    cl3 3322   0.942   3.992   1.169
    1TCM     c1 3323   2.625   3.044   0.691
    1TCM    cl1 3324   2.688   3.095   0.533
    1TCM    cl2 3325   2.556   3.185   0.775
    1TCM     h1 3326   2.547   2.967   0.677
    1TCM    cl3 3327   2.758   2.977   0.789
    1TCM     c1 3328   0.523   0.761   0.677
    1TCM    cl1 3329   0.629   0.626   0.632
    1TCM    cl2 3330   0.373   0.698   0.748
    1TCM     h1 3331   0.575   0.826   0.751
    1TCM    cl3 3332   0.484   0.857   0.532
    1TCM     c1 3333   5.032   2.201   3.276
    1TCM    cl1 3334   4.905   2.310   3.335
    1TCM    cl2 3335   5.071   2.241   3.108
    1TCM     h1 3336   5.122   2.212   3.339
    1TCM    cl3 3337   4.974   2.033   3.285
    1TCM     c1 3338   2.507   0.998   3.496
    1TCM    cl1 3339   2.624   1.010   3.363
    1TCM    cl2 3340   2.573   1.076   3.641
    1TCM     h1 3341   2.412   1.048   3.467
    1TCM    cl3 3342   2.474   0.827   3.531
    1TCM     c1 3343   5.120   1.008   2.242
    1TCM    cl1 3344   5.130   1.181   2.199
    1TCM    cl2 3345   5.248   0.919   2.157
    1TCM     h1 3346   5.134   0.997   2.351
    1TCM    cl3 3347   4.961   0.944   2.194
    1TCM     c1 3348   3.938   0.524   4.502
    1TCM    cl1 3349   3.895   0.435   4.649
    1TCM    cl2 3350   3.958   0.697   4.540
    1TCM     h1 3351   4.033   0.484   4.461
    1TCM    cl3 3352   3.809   0.504   4.381
    1TCM     c1 3353   5.107   0.885   5.065
    1TCM    cl1 3354   5.202   0.803   4.939
    1TCM    cl2 3355   5.185   0.861   5.223
    1TCM     h1 3356   5.101   0.993   5.043
    1TCM    cl3 3357   4.942   0.817   5.069
    1TCM     c1 3358   2.938   0.580   1.511
    1TCM    cl1 3359   3.056   0.611   1.641
    1TCM    cl2 3360   2.790   0.673   1.543
    1TCM     h1 3361   2.981   0.612   1.414
    1TCM    cl3 3362   2.900   0.407   1.506
    1TCM     c1 3363   2.087   1.356   3.825
    1TCM    cl1 3364   2.028   1.403   3.986
    1TCM    cl2 3365   1.956   1.275   3.735
    1TCM     h1 3366   2.120   1.446   3.769
    1TCM    cl3 3367   2.224   1.244   3.843
   5.54000   5.54000   5.54000
