Generated by Interchange
197
    1MOM     C1    1  -0.109   0.540  -0.236
    1MOM     O2    2  -0.022   0.433  -0.199
    1MOM     C3    3  -0.079   0.321  -0.146
    1MOM     C4    4  -0.215   0.300  -0.123
    1MOM     C5    5  -0.258   0.180  -0.066
    1MOM     C6    6  -0.169   0.077  -0.031
    1MOM     C7    7  -0.221  -0.044   0.037
    1MOM     C8    8  -0.324  -0.125  -0.021
    1MOM     C9    9  -0.372  -0.238   0.046
    1MOM    C10   10  -0.477  -0.321  -0.021
    1MOM    O11   11  -0.536  -0.285  -0.122
    1MOM    C12   12  -0.321  -0.270   0.172
    1MOM    C13   13  -0.217  -0.197   0.227
    1MOM    C14   14  -0.170  -0.084   0.161
    1MOM    C15   15  -0.031   0.095  -0.058
    1MOM    C16   16   0.071  -0.009  -0.034
    1MOM    C17   17   0.184   0.017   0.045
    1MOM    C18   18   0.280  -0.082   0.069
    1MOM    C19   19   0.397  -0.052   0.160
    1MOM    C20   20   0.525  -0.041   0.078
    1MOM    N21   21   0.410  -0.145   0.272
    1MOM    C22   22   0.264  -0.210   0.014
    1MOM    C23   23   0.152  -0.238  -0.064
    1MOM    C24   24   0.058  -0.138  -0.089
    1MOM    C25   25   0.011   0.219  -0.113
    1MOM    H26   26  -0.163   0.579  -0.150
    1MOM    H27   27  -0.179   0.509  -0.315
    1MOM    H28   28  -0.047   0.620  -0.277
    1MOM    H29   29  -0.289   0.375  -0.148
    1MOM    H30   30  -0.365   0.168  -0.046
    1MOM    H31   31  -0.363  -0.098  -0.118
    1MOM    H32   32  -0.361  -0.353   0.230
    1MOM    H33   33  -0.172  -0.229   0.321
    1MOM    H34   34  -0.090  -0.027   0.209
    1MOM    H35   35   0.194   0.114   0.092
    1MOM    H36   36   0.381   0.046   0.208
    1MOM    H37   37   0.550  -0.135   0.028
    1MOM    H38   38   0.514   0.036   0.000
    1MOM    H39   39   0.610  -0.013   0.140
    1MOM    H40   40   0.499  -0.135   0.318
    1MOM    H41   41   0.335  -0.289   0.036
    1MOM    H42   42   0.138  -0.338  -0.104
    1MOM    H43   43  -0.028  -0.162  -0.150
    1MOM    H44   44   0.117   0.236  -0.132
    2MOM    C45   45  -0.320  -0.237   1.081
    2MOM    O46   46  -0.239  -0.121   1.068
    2MOM    C47   47  -0.136  -0.124   0.979
    2MOM    C48   48  -0.099  -0.231   0.899
    2MOM    C49   49   0.011  -0.220   0.813
    2MOM    C50   50   0.087  -0.102   0.804
    2MOM    C51   51   0.208  -0.102   0.718
    2MOM    C52   52   0.201  -0.133   0.581
    2MOM    C53   53   0.316  -0.131   0.500
    2MOM    C54   54   0.300  -0.162   0.355
    2MOM    O55   55   0.189  -0.196   0.315
    2MOM    C56   56   0.439  -0.094   0.556
    2MOM    C57   57   0.447  -0.064   0.691
    2MOM    C58   58   0.333  -0.069   0.771
    2MOM    C59   59   0.047   0.010   0.882
    2MOM    C60   60   0.115   0.141   0.873
    2MOM    C61   61   0.167   0.201   0.988
    2MOM    C62   62   0.234   0.324   0.981
    2MOM    C63   63   0.294   0.383   1.106
    2MOM    C64   64   0.212   0.505   1.149
    2MOM    N65   65   0.436   0.414   1.092
    2MOM    C66   66   0.249   0.388   0.857
    2MOM    C67   67   0.199   0.329   0.742
    2MOM    C68   68   0.132   0.207   0.751
    2MOM    C69   69  -0.063  -0.005   0.969
    2MOM    H70   70  -0.262  -0.323   1.116
    2MOM    H71   71  -0.372  -0.260   0.987
    2MOM    H72   72  -0.397  -0.217   1.156
    2MOM    H73   73  -0.152  -0.326   0.903
    2MOM    H74   74   0.039  -0.307   0.754
    2MOM    H75   75   0.104  -0.156   0.536
    2MOM    H76   76   0.530  -0.085   0.498
    2MOM    H77   77   0.542  -0.033   0.734
    2MOM    H78   78   0.344  -0.043   0.876
    2MOM    H79   79   0.159   0.151   1.084
    2MOM    H80   80   0.289   0.310   1.187
    2MOM    H81   81   0.214   0.584   1.074
    2MOM    H82   82   0.107   0.476   1.164
    2MOM    H83   83   0.249   0.546   1.243
    2MOM    H84   84   0.468   0.472   1.167
    2MOM    H85   85   0.305   0.481   0.850
    2MOM    H86   86   0.214   0.377   0.646
    2MOM    H87   87   0.094   0.162   0.659
    2MOM    H88   88  -0.093   0.079   1.031
    3MOM    C89   89   1.216  -0.342   0.970
    3MOM    O90   90   1.144  -0.331   1.092
    3MOM    C91   91   1.064  -0.222   1.109
    3MOM    C92   92   1.045  -0.119   1.018
    3MOM    C93   93   0.960  -0.012   1.049
    3MOM    C94   94   0.891  -0.004   1.172
    3MOM    C95   95   0.811   0.116   1.202
    3MOM    C96   96   0.709   0.160   1.116
    3MOM    C97   97   0.633   0.274   1.146
    3MOM    C98   98   0.521   0.310   1.054
    3MOM    O99   99   0.507   0.245   0.951
    3MOM   C100  100   0.657   0.344   1.264
    3MOM   C101  101   0.758   0.303   1.350
    3MOM   C102  102   0.835   0.191   1.318
    3MOM   C103  103   0.906  -0.112   1.263
    3MOM   C104  104   0.832  -0.119   1.391
    3MOM   C105  105   0.900  -0.134   1.512
    3MOM   C106  106   0.830  -0.141   1.633
    3MOM   C107  107   0.907  -0.150   1.762
    3MOM   C108  108   0.890  -0.289   1.823
    3MOM   N109  109   0.871  -0.045   1.856
    3MOM   C110  110   0.691  -0.130   1.634
    3MOM   C111  111   0.622  -0.113   1.515
    3MOM   C112  112   0.692  -0.109   1.395
    3MOM   C113  113   0.994  -0.217   1.230
    3MOM   H114  114   1.286  -0.259   0.956
    3MOM   H115  115   1.148  -0.351   0.885
    3MOM   H116  116   1.275  -0.434   0.974
    3MOM   H117  117   1.096  -0.117   0.922
    3MOM   H118  118   0.949   0.069   0.976
    3MOM   H119  119   0.686   0.102   1.026
    3MOM   H120  120   0.600   0.430   1.295
    3MOM   H121  121   0.776   0.356   1.443
    3MOM   H122  122   0.912   0.160   1.388
    3MOM   H123  123   1.009  -0.136   1.513
    3MOM   H124  124   1.014  -0.135   1.743
    3MOM   H125  125   0.786  -0.308   1.851
    3MOM   H126  126   0.920  -0.366   1.751
    3MOM   H127  127   0.951  -0.301   1.913
    3MOM   H128  128   0.903  -0.064   1.948
    3MOM   H129  129   0.637  -0.128   1.729
    3MOM   H130  130   0.514  -0.101   1.517
    3MOM   H131  131   0.636  -0.096   1.303
    3MOM   H132  132   1.008  -0.300   1.300
    4MOM   C133  133   1.106   1.014   1.697
    4MOM   O134  134   1.210   0.918   1.717
    4MOM   C135  135   1.174   0.793   1.758
    4MOM   C136  136   1.044   0.749   1.782
    4MOM   C137  137   1.022   0.617   1.824
    4MOM   C138  138   1.127   0.525   1.842
    4MOM   C139  139   1.093   0.391   1.894
    4MOM   C140  140   1.004   0.304   1.831
    4MOM   C141  141   0.976   0.175   1.884
    4MOM   C142  142   0.885   0.086   1.811
    4MOM   O143  143   0.830   0.132   1.709
    4MOM   C144  144   1.042   0.130   1.997
    4MOM   C145  145   1.126   0.216   2.062
    4MOM   C146  146   1.149   0.345   2.013
    4MOM   C147  147   1.260   0.569   1.816
    4MOM   C148  148   1.379   0.481   1.826
    4MOM   C149  149   1.490   0.517   1.905
    4MOM   C150  150   1.602   0.433   1.917
    4MOM   C151  151   1.717   0.475   2.008
    4MOM   C152  152   1.838   0.512   1.922
    4MOM   N153  153   1.745   0.370   2.105
    4MOM   C154  154   1.604   0.310   1.849
    4MOM   C155  155   1.496   0.274   1.769
    4MOM   C156  156   1.385   0.359   1.757
    4MOM   C157  157   1.280   0.703   1.775
    4MOM   H158  158   1.053   1.035   1.791
    4MOM   H159  159   1.037   0.983   1.619
    4MOM   H160  160   1.153   1.107   1.664
    4MOM   H161  161   0.958   0.814   1.771
    4MOM   H162  162   0.919   0.586   1.846
    4MOM   H163  163   0.956   0.335   1.739
    4MOM   H164  164   1.033   0.031   2.039
    4MOM   H165  165   1.174   0.176   2.150
    4MOM   H166  166   1.215   0.413   2.066
    4MOM   H167  167   1.489   0.610   1.961
    4MOM   H168  168   1.690   0.564   2.065
    4MOM   H169  169   1.876   0.427   1.863
    4MOM   H170  170   1.811   0.592   1.852
    4MOM   H171  171   1.921   0.548   1.984
    4MOM   H172  172   1.834   0.374   2.152
    4MOM   H173  173   1.688   0.242   1.859
    4MOM   H174  174   1.497   0.179   1.716
    4MOM   H175  175   1.303   0.328   1.694
    4MOM   H176  176   1.381   0.739   1.755
    5CAP   C177  177  -0.412  -0.539   0.048
    5CAP   O178  178  -0.510  -0.435   0.046
    5CAP   H179  179  -0.381  -0.564  -0.054
    5CAP   H180  180  -0.456  -0.627   0.096
    5CAP   H181  181  -0.324  -0.513   0.106
    6CAP   C182  182   1.355   0.533   2.281
    6CAP   C183  183   1.439   0.404   2.295
    6CAP   C184  184   1.475   0.383   2.441
    6CAP   C185  185   1.359   0.286   2.248
    6CAP   O186  186   1.554   0.425   2.211
    6CAP   C187  187   1.647   0.329   2.192
    6CAP   O188  188   1.651   0.220   2.248
    6CAP   H189  189   1.262   0.528   2.339
    6CAP   H190  190   1.412   0.620   2.314
    6CAP   H191  191   1.329   0.553   2.176
    6CAP   H192  192   1.543   0.462   2.476
    6CAP   H193  193   1.526   0.287   2.456
    6CAP   H194  194   1.385   0.383   2.504
    6CAP   H195  195   1.357   0.289   2.139
    6CAP   H196  196   1.404   0.188   2.270
    6CAP   H197  197   1.260   0.287   2.293
  5.0000000  5.0000000  5.0000000
