Generated by Interchange
197
    1MOM     C1    1  -0.116   0.537  -0.240
    1MOM     O2    2  -0.026   0.433  -0.205
    1MOM     C3    3  -0.081   0.319  -0.153
    1MOM     C4    4  -0.216   0.300  -0.123
    1MOM     C5    5  -0.258   0.180  -0.066
    1MOM     C6    6  -0.167   0.076  -0.037
    1MOM     C7    7  -0.218  -0.043   0.034
    1MOM     C8    8  -0.318  -0.125  -0.021
    1MOM     C9    9  -0.368  -0.236   0.050
    1MOM    C10   10  -0.471  -0.321  -0.016
    1MOM    O11   11  -0.526  -0.294  -0.121
    1MOM    C12   12  -0.320  -0.263   0.178
    1MOM    C13   13  -0.220  -0.184   0.234
    1MOM    C14   14  -0.170  -0.075   0.162
    1MOM    C15   15  -0.030   0.094  -0.070
    1MOM    C16   16   0.072  -0.010  -0.047
    1MOM    C17   17   0.182   0.018   0.037
    1MOM    C18   18   0.280  -0.080   0.064
    1MOM    C19   19   0.393  -0.047   0.159
    1MOM    C20   20   0.526  -0.043   0.083
    1MOM    N21   21   0.403  -0.135   0.275
    1MOM    C22   22   0.267  -0.207   0.006
    1MOM    C23   23   0.160  -0.235  -0.079
    1MOM    C24   24   0.064  -0.137  -0.106
    1MOM    C25   25   0.010   0.216  -0.127
    1MOM    H26   26  -0.168   0.576  -0.152
    1MOM    H27   27  -0.186   0.504  -0.318
    1MOM    H28   28  -0.057   0.619  -0.282
    1MOM    H29   29  -0.290   0.377  -0.140
    1MOM    H30   30  -0.363   0.169  -0.040
    1MOM    H31   31  -0.356  -0.104  -0.121
    1MOM    H32   32  -0.359  -0.347   0.236
    1MOM    H33   33  -0.180  -0.207   0.332
    1MOM    H34   34  -0.092  -0.015   0.208
    1MOM    H35   35   0.188   0.116   0.085
    1MOM    H36   36   0.376   0.053   0.201
    1MOM    H37   37   0.553  -0.141   0.042
    1MOM    H38   38   0.521   0.029  -0.000
    1MOM    H39   39   0.607  -0.012   0.150
    1MOM    H40   40   0.494  -0.131   0.319
    1MOM    H41   41   0.339  -0.285   0.029
    1MOM    H42   42   0.150  -0.334  -0.123
    1MOM    H43   43  -0.019  -0.161  -0.171
    1MOM    H44   44   0.114   0.233  -0.152
    2MOM    C45   45  -0.321  -0.239   1.078
    2MOM    O46   46  -0.246  -0.119   1.062
    2MOM    C47   47  -0.142  -0.123   0.974
    2MOM    C48   48  -0.101  -0.234   0.901
    2MOM    C49   49   0.012  -0.224   0.818
    2MOM    C50   50   0.086  -0.105   0.806
    2MOM    C51   51   0.209  -0.106   0.725
    2MOM    C52   52   0.202  -0.136   0.588
    2MOM    C53   53   0.316  -0.131   0.506
    2MOM    C54   54   0.294  -0.148   0.359
    2MOM    O55   55   0.180  -0.166   0.319
    2MOM    C56   56   0.440  -0.099   0.563
    2MOM    C57   57   0.448  -0.071   0.700
    2MOM    C58   58   0.334  -0.074   0.779
    2MOM    C59   59   0.041   0.009   0.877
    2MOM    C60   60   0.107   0.141   0.869
    2MOM    C61   61   0.159   0.201   0.985
    2MOM    C62   62   0.229   0.323   0.981
    2MOM    C63   63   0.288   0.377   1.109
    2MOM    C64   64   0.215   0.505   1.150
    2MOM    N65   65   0.432   0.398   1.105
    2MOM    C66   66   0.245   0.387   0.857
    2MOM    C67   67   0.192   0.330   0.741
    2MOM    C68   68   0.123   0.209   0.747
    2MOM    C69   69  -0.072  -0.003   0.962
    2MOM    H70   70  -0.258  -0.320   1.116
    2MOM    H71   71  -0.369  -0.268   0.984
    2MOM    H72   72  -0.400  -0.220   1.152
    2MOM    H73   73  -0.153  -0.329   0.905
    2MOM    H74   74   0.043  -0.313   0.762
    2MOM    H75   75   0.105  -0.157   0.543
    2MOM    H76   76   0.531  -0.091   0.505
    2MOM    H77   77   0.543  -0.043   0.744
    2MOM    H78   78   0.343  -0.049   0.885
    2MOM    H79   79   0.150   0.148   1.080
    2MOM    H80   80   0.273   0.304   1.189
    2MOM    H81   81   0.228   0.585   1.077
    2MOM    H82   82   0.108   0.487   1.162
    2MOM    H83   83   0.254   0.542   1.246
    2MOM    H84   84   0.465   0.462   1.175
    2MOM    H85   85   0.302   0.479   0.851
    2MOM    H86   86   0.207   0.379   0.646
    2MOM    H87   87   0.084   0.166   0.655
    2MOM    H88   88  -0.106   0.083   1.019
    3MOM    C89   89   1.225  -0.322   0.920
    3MOM    O90   90   1.169  -0.305   1.050
    3MOM    C91   91   1.090  -0.195   1.069
    3MOM    C92   92   1.059  -0.098   0.974
    3MOM    C93   93   0.980   0.011   1.009
    3MOM    C94   94   0.928   0.027   1.139
    3MOM    C95   95   0.850   0.148   1.171
    3MOM    C96   96   0.731   0.176   1.103
    3MOM    C97   97   0.651   0.287   1.135
    3MOM    C98   98   0.518   0.295   1.068
    3MOM    O99   99   0.487   0.207   0.989
    3MOM   C100  100   0.694   0.375   1.235
    3MOM   C101  101   0.813   0.349   1.303
    3MOM   C102  102   0.890   0.238   1.271
    3MOM   C103  103   0.955  -0.074   1.235
    3MOM   C104  104   0.903  -0.071   1.373
    3MOM   C105  105   0.992  -0.071   1.481
    3MOM   C106  106   0.947  -0.065   1.613
    3MOM   C107  107   1.048  -0.056   1.725
    3MOM   C108  108   1.043  -0.180   1.814
    3MOM   N109  109   1.034   0.066   1.804
    3MOM   C110  110   0.809  -0.059   1.638
    3MOM   C111  111   0.719  -0.060   1.532
    3MOM   C112  112   0.766  -0.068   1.400
    3MOM   C113  113   1.037  -0.183   1.197
    3MOM   H114  114   1.288  -0.237   0.893
    3MOM   H115  115   1.146  -0.339   0.846
    3MOM   H116  116   1.288  -0.412   0.923
    3MOM   H117  117   1.096  -0.104   0.872
    3MOM   H118  118   0.959   0.087   0.933
    3MOM   H119  119   0.696   0.105   1.027
    3MOM   H120  120   0.637   0.462   1.265
    3MOM   H121  121   0.845   0.414   1.384
    3MOM   H122  122   0.981   0.219   1.329
    3MOM   H123  123   1.099  -0.069   1.461
    3MOM   H124  124   1.149  -0.050   1.682
    3MOM   H125  125   0.946  -0.189   1.864
    3MOM   H126  126   1.060  -0.270   1.755
    3MOM   H127  127   1.120  -0.175   1.892
    3MOM   H128  128   1.075   0.058   1.895
    3MOM   H129  129   0.772  -0.048   1.740
    3MOM   H130  130   0.612  -0.053   1.551
    3MOM   H131  131   0.694  -0.069   1.319
    3MOM   H132  132   1.060  -0.260   1.270
    4MOM   C133  133   1.116   1.116   1.513
    4MOM   O134  134   1.231   1.038   1.541
    4MOM   C135  135   1.210   0.916   1.600
    4MOM   C136  136   1.087   0.862   1.635
    4MOM   C137  137   1.080   0.737   1.697
    4MOM   C138  138   1.196   0.662   1.725
    4MOM   C139  139   1.179   0.535   1.798
    4MOM   C140  140   1.110   0.426   1.743
    4MOM   C141  141   1.100   0.303   1.812
    4MOM   C142  142   1.038   0.189   1.741
    4MOM   O143  143   1.000   0.210   1.625
    4MOM   C144  144   1.157   0.289   1.938
    4MOM   C145  145   1.221   0.398   1.994
    4MOM   C146  146   1.230   0.520   1.926
    4MOM   C147  147   1.323   0.716   1.689
    4MOM   C148  148   1.452   0.647   1.714
    4MOM   C149  149   1.554   0.709   1.790
    4MOM   C150  150   1.677   0.647   1.816
    4MOM   C151  151   1.782   0.718   1.901
    4MOM   C152  152   1.903   0.757   1.816
    4MOM   N153  153   1.826   0.635   2.013
    4MOM   C154  154   1.698   0.518   1.765
    4MOM   C155  155   1.600   0.455   1.688
    4MOM   C156  156   1.479   0.520   1.662
    4MOM   C157  157   1.326   0.843   1.627
    4MOM   H158  158   1.061   1.141   1.604
    4MOM   H159  159   1.051   1.066   1.440
    4MOM   H160  160   1.150   1.210   1.468
    4MOM   H161  161   0.994   0.915   1.616
    4MOM   H162  162   0.983   0.699   1.725
    4MOM   H163  163   1.067   0.435   1.644
    4MOM   H164  164   1.156   0.198   1.995
    4MOM   H165  165   1.266   0.383   2.092
    4MOM   H166  166   1.279   0.605   1.972
    4MOM   H167  167   1.536   0.809   1.831
    4MOM   H168  168   1.739   0.809   1.942
    4MOM   H169  169   1.956   0.669   1.776
    4MOM   H170  170   1.873   0.819   1.731
    4MOM   H171  171   1.975   0.814   1.876
    4MOM   H172  172   1.908   0.670   2.060
    4MOM   H173  173   1.791   0.465   1.786
    4MOM   H174  174   1.618   0.355   1.648
    4MOM   H175  175   1.405   0.469   1.601
    4MOM   H176  176   1.422   0.886   1.598
    5CAP   C177  177  -0.418  -0.543   0.028
    5CAP   O178  178  -0.501  -0.431   0.058
    5CAP   H179  179  -0.400  -0.552  -0.080
    5CAP   H180  180  -0.468  -0.634   0.063
    5CAP   H181  181  -0.323  -0.535   0.082
    6CAP   C182  182   1.431   0.780   2.183
    6CAP   C183  183   1.524   0.660   2.206
    6CAP   C184  184   1.556   0.645   2.354
    6CAP   C185  185   1.457   0.535   2.156
    6CAP   O186  186   1.640   0.689   2.126
    6CAP   C187  187   1.737   0.596   2.109
    6CAP   O188  188   1.749   0.492   2.172
    6CAP   H189  189   1.335   0.769   2.236
    6CAP   H190  190   1.478   0.873   2.217
    6CAP   H191  191   1.410   0.794   2.077
    6CAP   H192  192   1.613   0.730   2.392
    6CAP   H193  193   1.616   0.555   2.373
    6CAP   H194  194   1.464   0.634   2.413
    6CAP   H195  195   1.458   0.536   2.046
    6CAP   H196  196   1.509   0.442   2.183
    6CAP   H197  197   1.356   0.529   2.196
  5.0000000  5.0000000  5.0000000
