Generated by Interchange
3367
    1mop_t    C    1   0.706   1.421   0.322
    1mop_t    O    2   0.699   1.316   0.252
    1mop_t    C    3   0.629   1.542   0.286
    1mop_t    C    4   0.639   1.657   0.365
    1mop_t    C    5   0.567   1.772   0.332
    1mop_t    C    6   0.485   1.775   0.218
    1mop_t    C    7   0.410   1.897   0.183
    1mop_t    C    8   0.473   2.023   0.168
    1mop_t    C    9   0.395   2.137   0.141
    1mop_t    C   10   0.256   2.127   0.127
    1mop_t    O   11   0.184   2.245   0.100
    1mop_t    C   12   0.043   2.250   0.083
    1mop_t    C   13   0.194   2.002   0.140
    1mop_t    C   14   0.270   1.888   0.167
    1mop_t    C   15   0.620   2.038   0.175
    1mop_t    C   16   0.704   1.962   0.092
    1mop_t    C   17   0.843   1.975   0.100
    1mop_t    C   18   0.899   2.066   0.190
    1mop_t    C   19   0.817   2.144   0.273
    1mop_t    C   20   0.678   2.130   0.265
    1mop_t    C   21   0.877   2.242   0.372
    1mop_t    N   22   0.958   2.173   0.474
    1mop_t    C   23   0.961   2.349   0.302
    1mop_t    C   24   0.474   1.659   0.139
    1mop_t    C   25   0.546   1.544   0.172
    1mop_t    H   26   0.702   1.657   0.453
    1mop_t    H   27   0.576   1.859   0.396
    1mop_t    H   28   0.443   2.233   0.129
    1mop_t    H   29   0.013   2.355   0.063
    1mop_t    H   30  -0.008   2.216   0.176
    1mop_t    H   31   0.012   2.187  -0.003
    1mop_t    H   32   0.087   1.991   0.129
    1mop_t    H   33   0.220   1.793   0.179
    1mop_t    H   34   0.662   1.892   0.021
    1mop_t    H   35   0.906   1.916   0.036
    1mop_t    H   36   1.007   2.074   0.194
    1mop_t    H   37   0.613   2.189   0.329
    1mop_t    H   38   0.796   2.296   0.425
    1mop_t    H   39   1.036   2.121   0.428
    1mop_t    H   40   1.050   2.304   0.252
    1mop_t    H   41   0.997   2.424   0.375
    1mop_t    H   42   0.900   2.402   0.225
    1mop_t    H   43   0.411   1.659   0.051
    1mop_t    H   44   0.536   1.456   0.109
    1mop_t    C   45   0.871   2.072   0.543
    1mop_t    O   46   0.847   1.963   0.485
    1mop_t    C   47   0.816   2.102   0.676
    1mop_t    C   48   0.846   2.224   0.738
    1mop_t    C   49   0.794   2.254   0.865
    1mop_t    C   50   0.712   2.162   0.931
    1mop_t    C   51   0.656   2.194   1.065
    1mop_t    C   52   0.583   2.312   1.090
    1mop_t    C   53   0.539   2.340   1.221
    1mop_t    C   54   0.566   2.252   1.326
    1mop_t    O   55   0.519   2.285   1.454
    1mop_t    C   56   0.538   2.205   1.570
    1mop_t    C   57   0.636   2.133   1.300
    1mop_t    C   58   0.681   2.105   1.171
    1mop_t    C   59   0.546   2.406   0.981
    1mop_t    C   60   0.476   2.361   0.868
    1mop_t    C   61   0.443   2.449   0.766
    1mop_t    C   62   0.478   2.584   0.775
    1mop_t    C   63   0.547   2.632   0.888
    1mop_t    C   64   0.580   2.542   0.991
    1mop_t    C   65   0.587   2.778   0.900
    1mop_t    N   66   0.682   2.816   0.795
    1mop_t    C   67   0.464   2.870   0.897
    1mop_t    C   68   0.684   2.039   0.870
    1mop_t    C   69   0.735   2.009   0.744
    1mop_t    H   70   0.908   2.297   0.688
    1mop_t    H   71   0.819   2.349   0.911
    1mop_t    H   72   0.483   2.430   1.241
    1mop_t    H   73   0.491   2.255   1.657
    1mop_t    H   74   0.647   2.192   1.590
    1mop_t    H   75   0.490   2.106   1.556
    1mop_t    H   76   0.658   2.063   1.379
    1mop_t    H   77   0.738   2.014   1.154
    1mop_t    H   78   0.447   2.257   0.860
    1mop_t    H   79   0.390   2.413   0.679
    1mop_t    H   80   0.452   2.651   0.694
    1mop_t    H   81   0.634   2.577   1.078
    1mop_t    H   82   0.637   2.795   0.998
    1mop_t    H   83   0.638   2.802   0.700
    1mop_t    H   84   0.412   2.864   0.799
    1mop_t    H   85   0.496   2.975   0.914
    1mop_t    H   86   0.393   2.842   0.977
    1mop_t    H   87   0.620   1.966   0.920
    1mop_t    H   88   0.711   1.913   0.698
    1mop_t    C   89   0.801   2.726   0.803
    1mop_t    O   90   0.794   2.610   0.757
    1mop_t    C   91   0.926   2.776   0.865
    1mop_t    C   92   0.931   2.906   0.916
    1mop_t    C   93   1.048   2.954   0.976
    1mop_t    C   94   1.161   2.872   0.986
    1mop_t    C   95   1.285   2.922   1.050
    1mop_t    C   96   1.285   2.978   1.180
    1mop_t    C   97   1.405   3.031   1.232
    1mop_t    C   98   1.524   3.028   1.159
    1mop_t    O   99   1.639   3.082   1.217
    1mop_t    C  100   1.767   3.085   1.154
    1mop_t    C  101   1.523   2.970   1.031
    1mop_t    C  102   1.405   2.918   0.977
    1mop_t    C  103   1.164   2.979   1.266
    1mop_t    C  104   1.096   2.860   1.294
    1mop_t    C  105   0.981   2.861   1.373
    1mop_t    C  106   0.934   2.981   1.426
    1mop_t    C  107   1.002   3.102   1.400
    1mop_t    C  108   1.117   3.100   1.320
    1mop_t    C  109   0.951   3.234   1.456
    1mop_t    N  110   0.818   3.267   1.403
    1mop_t    C  111   0.948   3.232   1.610
    1mop_t    C  112   1.156   2.742   0.934
    1mop_t    C  113   1.040   2.694   0.875
    1mop_t    H  114   0.845   2.971   0.909
    1mop_t    H  115   1.050   3.056   1.013
    1mop_t    H  116   1.406   3.074   1.332
    1mop_t    H  117   1.840   3.133   1.221
    1mop_t    H  118   1.762   3.143   1.059
    1mop_t    H  119   1.801   2.981   1.132
    1mop_t    H  120   1.614   2.965   0.971
    1mop_t    H  121   1.407   2.876   0.877
    1mop_t    H  122   1.132   2.766   1.254
    1mop_t    H  123   0.929   2.769   1.393
    1mop_t    H  124   0.844   2.980   1.487
    1mop_t    H  125   1.170   3.192   1.298
    1mop_t    H  126   1.020   3.316   1.427
    1mop_t    H  127   0.750   3.192   1.429
    1mop_t    H  128   0.875   3.157   1.647
    1mop_t    H  129   0.918   3.332   1.648
    1mop_t    H  130   1.048   3.207   1.650
    1mop_t    H  131   1.243   2.677   0.941
    1mop_t    H  132   1.038   2.592   0.836
    1mop_t    C  133   0.827   3.271   1.254
    1mop_t    O  134   0.827   3.163   1.189
    1mop_t    C  135   0.834   3.401   1.184
    1mop_t    C  136   0.832   3.520   1.259
    1mop_t    C  137   0.839   3.644   1.194
    1mop_t    C  138   0.848   3.651   1.054
    1mop_t    C  139   0.857   3.782   0.986
    1mop_t    C  140   0.955   3.879   1.020
    1mop_t    C  141   0.952   4.005   0.957
    1mop_t    C  142   0.857   4.035   0.859
    1mop_t    O  143   0.860   4.162   0.800
    1mop_t    C  144   0.770   4.206   0.699
    1mop_t    C  145   0.762   3.937   0.824
    1mop_t    C  146   0.762   3.813   0.887
    1mop_t    C  147   1.062   3.850   1.118
    1mop_t    C  148   1.147   3.740   1.100
    1mop_t    C  149   1.247   3.712   1.193
    1mop_t    C  150   1.265   3.796   1.304
    1mop_t    C  151   1.183   3.909   1.322
    1mop_t    C  152   1.082   3.935   1.228
    1mop_t    C  153   1.201   4.000   1.442
    1mop_t    N  154   1.175   3.929   1.568
    1mop_t    C  155   1.340   4.063   1.444
    1mop_t    C  156   0.848   3.532   0.980
    1mop_t    C  157   0.841   3.408   1.044
    1mop_t    H  158   0.826   3.517   1.367
    1mop_t    H  159   0.837   3.734   1.254
    1mop_t    H  160   1.027   4.079   0.982
    1mop_t    H  161   0.795   4.310   0.670
    1mop_t    H  162   0.666   4.204   0.738
    1mop_t    H  163   0.777   4.141   0.609
    1mop_t    H  164   0.686   3.958   0.749
    1mop_t    H  165   0.686   3.740   0.860
    1mop_t    H  166   1.134   3.674   1.015
    1mop_t    H  167   1.311   3.626   1.180
    1mop_t    H  168   1.344   3.773   1.374
    1mop_t    H  169   1.016   4.021   1.242
    1mop_t    H  170   1.128   4.084   1.436
    1mop_t    H  171   1.242   3.849   1.577
    1mop_t    H  172   1.419   3.986   1.458
    1mop_t    H  173   1.348   4.136   1.528
    1mop_t    H  174   1.359   4.118   1.349
    1mop_t    H  175   0.855   3.535   0.872
    1mop_t    H  176   0.842   3.318   0.984
    1mop_t    C  177   0.814   1.288   0.477
    1mop_t    O  178   0.794   1.422   0.443
    1mop_t    H  179   0.717   1.239   0.500
    1mop_t    H  180   0.879   1.282   0.567
    1mop_t    H  181   0.864   1.235   0.393
    1mop_t    C  182   0.712   4.044   1.485
    1mop_t    C  183   0.791   3.918   1.522
    1mop_t    C  184   0.741   3.866   1.658
    1mop_t    C  185   0.771   3.812   1.413
    1mop_t    O  186   0.929   3.956   1.531
    1mop_t    C  187   1.037   3.872   1.563
    1mop_t    O  188   1.020   3.750   1.588
    1mop_t    H  189   0.603   4.022   1.476
    1mop_t    H  190   0.726   4.123   1.562
    1mop_t    H  191   0.747   4.084   1.387
    1mop_t    H  192   0.762   3.941   1.738
    1mop_t    H  193   0.789   3.770   1.686
    1mop_t    H  194   0.631   3.849   1.655
    1mop_t    H  195   0.814   3.847   1.317
    1mop_t    H  196   0.820   3.716   1.440
    1mop_t    H  197   0.663   3.792   1.397
    2MOL1     C  198   4.357   0.327   2.663
    2MOL1    Cl  199   4.363   0.363   2.836
    2MOL1     H  200   4.328   0.418   2.609
    2MOL1     H  201   4.456   0.294   2.630
    2MOL1     H  202   4.284   0.248   2.645
    2MOL1     C  203   1.670   2.468   4.364
    2MOL1    Cl  204   1.637   2.613   4.269
    2MOL1     H  205   1.613   2.473   4.457
    2MOL1     H  206   1.641   2.380   4.307
    2MOL1     H  207   1.777   2.464   4.387
    2MOL1     C  208   1.824   2.300   0.973
    2MOL1    Cl  209   1.962   2.409   0.979
    2MOL1     H  210   1.806   2.271   0.869
    2MOL1     H  211   1.845   2.211   1.033
    2MOL1     H  212   1.736   2.352   1.013
    2MOL1     C  213   2.636   0.657   3.813
    2MOL1    Cl  214   2.490   0.559   3.799
    2MOL1     H  215   2.717   0.609   3.758
    2MOL1     H  216   2.616   0.756   3.772
    2MOL1     H  217   2.663   0.665   3.918
    2MOL1     C  218   2.348   1.711   2.875
    2MOL1    Cl  219   2.268   1.575   2.796
    2MOL1     H  220   2.346   1.695   2.983
    2MOL1     H  221   2.451   1.717   2.840
    2MOL1     H  222   2.295   1.803   2.851
    2MOL1     C  223   5.068   1.275   0.534
    2MOL1    Cl  224   4.943   1.180   0.614
    2MOL1     H  225   5.156   1.280   0.599
    2MOL1     H  226   5.094   1.226   0.439
    2MOL1     H  227   5.030   1.375   0.515
    2MOL1     C  228   2.892   0.711   2.450
    2MOL1    Cl  229   2.896   0.653   2.616
    2MOL1     H  230   2.883   0.625   2.382
    2MOL1     H  231   2.806   0.778   2.437
    2MOL1     H  232   2.985   0.765   2.428
    2MOL1     C  233   3.734   4.017   4.813
    2MOL1    Cl  234   3.797   4.182   4.829
    2MOL1     H  235   3.626   4.018   4.831
    2MOL1     H  236   3.754   3.981   4.712
    2MOL1     H  237   3.783   3.953   4.886
    2MOL1     C  238   0.746   4.155   3.477
    2MOL1    Cl  239   0.797   4.305   3.556
    2MOL1     H  240   0.792   4.150   3.378
    2MOL1     H  241   0.778   4.070   3.537
    2MOL1     H  242   0.638   4.155   3.467
    2MOL1     C  243   3.915   1.310   2.582
    2MOL1    Cl  244   3.919   1.391   2.425
    2MOL1     H  245   4.016   1.307   2.623
    2MOL1     H  246   3.849   1.365   2.649
    2MOL1     H  247   3.878   1.208   2.568
    2MOL1     C  248   4.916   3.084   4.478
    2MOL1    Cl  249   5.040   3.039   4.595
    2MOL1     H  250   4.888   2.996   4.420
    2MOL1     H  251   4.828   3.123   4.531
    2MOL1     H  252   4.956   3.161   4.411
    2MOL1     C  253   0.541   2.846   1.436
    2MOL1    Cl  254   0.547   2.708   1.547
    2MOL1     H  255   0.439   2.859   1.401
    2MOL1     H  256   0.575   2.936   1.489
    2MOL1     H  257   0.607   2.826   1.351
    2MOL1     C  258   1.479   2.025   2.400
    2MOL1    Cl  259   1.572   1.875   2.413
    2MOL1     H  260   1.388   2.005   2.343
    2MOL1     H  261   1.452   2.059   2.501
    2MOL1     H  262   1.539   2.100   2.350
    2MOL1     C  263   4.308   4.440   0.723
    2MOL1    Cl  264   4.270   4.526   0.573
    2MOL1     H  265   4.334   4.336   0.699
    2MOL1     H  266   4.392   4.489   0.772
    2MOL1     H  267   4.221   4.442   0.788
    2MOL1     C  268   2.707   5.238   3.801
    2MOL1    Cl  269   2.574   5.338   3.859
    2MOL1     H  270   2.797   5.261   3.859
    2MOL1     H  271   2.681   5.133   3.812
    2MOL1     H  272   2.725   5.261   3.695
    2MOL1     C  273   2.943   1.892   3.139
    2MOL1    Cl  274   2.796   1.907   3.041
    2MOL1     H  275   2.969   1.786   3.147
    2MOL1     H  276   3.024   1.947   3.091
    2MOL1     H  277   2.924   1.933   3.238
    2MOL1     C  278   0.673   3.117   5.031
    2MOL1    Cl  279   0.511   3.073   4.974
    2MOL1     H  280   0.743   3.040   5.000
    2MOL1     H  281   0.701   3.213   4.987
    2MOL1     H  282   0.671   3.124   5.140
    2MOL1     C  283   4.602   3.548   2.133
    2MOL1    Cl  284   4.623   3.575   2.307
    2MOL1     H  285   4.498   3.520   2.114
    2MOL1     H  286   4.627   3.639   2.079
    2MOL1     H  287   4.668   3.466   2.102
    2MOL1     C  288   2.103   1.110   3.535
    2MOL1    Cl  289   2.267   1.171   3.512
    2MOL1     H  290   2.046   1.183   3.593
    2MOL1     H  291   2.056   1.096   3.437
    2MOL1     H  292   2.107   1.015   3.588
    2MOL1     C  293   1.374   1.980   2.780
    2MOL1    Cl  294   1.203   1.947   2.751
    2MOL1     H  295   1.434   1.919   2.711
    2MOL1     H  296   1.394   2.086   2.761
    2MOL1     H  297   1.399   1.955   2.883
    2MOL1     C  298   3.131   4.747   4.885
    2MOL1    Cl  299   3.203   4.892   4.815
    2MOL1     H  300   3.077   4.693   4.807
    2MOL1     H  301   3.210   4.684   4.926
    2MOL1     H  302   3.061   4.776   4.964
    2MOL1     C  303   2.718   2.481   2.009
    2MOL1    Cl  304   2.557   2.409   2.002
    2MOL1     H  305   2.788   2.415   1.957
    2MOL1     H  306   2.716   2.578   1.960
    2MOL1     H  307   2.748   2.492   2.113
    2MOL1     C  308   2.726   2.023   5.091
    2MOL1    Cl  309   2.880   2.103   5.122
    2MOL1     H  310   2.647   2.098   5.083
    2MOL1     H  311   2.733   1.967   4.997
    2MOL1     H  312   2.704   1.955   5.174
    2MOL1     C  313   4.920   0.207   1.285
    2MOL1    Cl  314   4.997   0.361   1.325
    2MOL1     H  315   4.985   0.152   1.217
    2MOL1     H  316   4.905   0.150   1.376
    2MOL1     H  317   4.824   0.227   1.237
    2MOL1     C  318   3.047   0.810   1.271
    2MOL1    Cl  319   3.081   0.959   1.182
    2MOL1     H  320   2.970   0.831   1.347
    2MOL1     H  321   3.010   0.735   1.201
    2MOL1     H  322   3.138   0.776   1.320
    2MOL1     C  323   3.970   3.283   1.868
    2MOL1    Cl  324   3.852   3.391   1.793
    2MOL1     H  325   3.918   3.195   1.907
    2MOL1     H  326   4.043   3.252   1.793
    2MOL1     H  327   4.020   3.335   1.950
    2MOL1     C  328   1.130   0.858   3.671
    2MOL1    Cl  329   0.975   0.820   3.747
    2MOL1     H  330   1.208   0.860   3.748
    2MOL1     H  331   1.154   0.782   3.597
    2MOL1     H  332   1.124   0.956   3.623
    2MOL1     C  333   0.659   5.182   4.123
    2MOL1    Cl  334   0.644   5.323   4.228
    2MOL1     H  335   0.624   5.093   4.177
    2MOL1     H  336   0.597   5.197   4.034
    2MOL1     H  337   0.763   5.170   4.094
    2MOL1     C  338   2.831   3.685   3.486
    2MOL1    Cl  339   2.951   3.772   3.389
    2MOL1     H  340   2.859   3.692   3.592
    2MOL1     H  341   2.733   3.731   3.471
    2MOL1     H  342   2.829   3.581   3.455
    2MOL1     C  343   0.348   0.867   2.410
    2MOL1    Cl  344   0.393   1.022   2.338
    2MOL1     H  345   0.371   0.787   2.340
    2MOL1     H  346   0.404   0.853   2.503
    2MOL1     H  347   0.241   0.868   2.432
    2MOL1     C  348   4.973   1.977   2.129
    2MOL1    Cl  349   5.133   2.016   2.066
    2MOL1     H  350   4.932   1.892   2.073
    2MOL1     H  351   4.981   1.951   2.235
    2MOL1     H  352   4.907   2.064   2.117
    2MOL1     C  353   1.260   3.569   2.280
    2MOL1    Cl  354   1.092   3.579   2.230
    2MOL1     H  355   1.308   3.667   2.266
    2MOL1     H  356   1.265   3.541   2.385
    2MOL1     H  357   1.311   3.494   2.219
    2MOL1     C  358   3.931   1.379   2.032
    2MOL1    Cl  359   3.997   1.512   1.935
    2MOL1     H  360   3.901   1.298   1.965
    2MOL1     H  361   4.008   1.344   2.101
    2MOL1     H  362   3.844   1.416   2.087
    2MOL1     C  363   0.816   2.215   2.153
    2MOL1    Cl  364   0.691   2.277   2.262
    2MOL1     H  365   0.868   2.132   2.203
    2MOL1     H  366   0.769   2.179   2.061
    2MOL1     H  367   0.887   2.295   2.131
    2MOL1     C  368   2.152   3.842   1.740
    2MOL1    Cl  369   2.090   3.676   1.734
    2MOL1     H  370   2.106   3.900   1.660
    2MOL1     H  371   2.127   3.885   1.837
    2MOL1     H  372   2.260   3.840   1.727
    2MOL1     C  373   1.017   4.567   1.146
    2MOL1    Cl  374   0.980   4.739   1.159
    2MOL1     H  375   1.007   4.536   1.042
    2MOL1     H  376   1.120   4.549   1.180
    2MOL1     H  377   0.948   4.510   1.208
    2MOL1     C  378   0.245   1.286   4.822
    2MOL1    Cl  379   0.213   1.309   4.994
    2MOL1     H  380   0.275   1.182   4.805
    2MOL1     H  381   0.154   1.307   4.765
    2MOL1     H  382   0.324   1.353   4.791
    2MOL1     C  383   1.308   3.898   4.807
    2MOL1    Cl  384   1.414   3.887   4.666
    2MOL1     H  385   1.322   3.996   4.854
    2MOL1     H  386   1.205   3.886   4.776
    2MOL1     H  387   1.335   3.819   4.878
    2MOL1     C  388   0.299   0.746   4.871
    2MOL1    Cl  389   0.282   0.596   4.780
    2MOL1     H  390   0.349   0.724   4.966
    2MOL1     H  391   0.357   0.817   4.813
    2MOL1     H  392   0.199   0.787   4.891
    2MOL1     C  393   1.059   4.322   2.263
    2MOL1    Cl  394   1.102   4.441   2.139
    2MOL1     H  395   1.111   4.228   2.241
    2MOL1     H  396   1.090   4.359   2.360
    2MOL1     H  397   0.951   4.306   2.261
    2MOL1     C  398   3.695   4.129   0.170
    2MOL1    Cl  399   3.658   4.099   0.000
    2MOL1     H  400   3.654   4.226   0.199
    2MOL1     H  401   3.650   4.050   0.231
    2MOL1     H  402   3.804   4.129   0.183
    2MOL1     C  403   1.595   1.554   1.392
    2MOL1    Cl  404   1.456   1.506   1.491
    2MOL1     H  405   1.686   1.541   1.450
    2MOL1     H  406   1.598   1.492   1.302
    2MOL1     H  407   1.584   1.659   1.364
    2MOL1     C  408   3.499   0.676   2.295
    2MOL1    Cl  409   3.391   0.729   2.166
    2MOL1     H  410   3.603   0.688   2.262
    2MOL1     H  411   3.482   0.736   2.384
    2MOL1     H  412   3.480   0.570   2.317
    2MOL1     C  413   0.146   0.597   1.973
    2MOL1    Cl  414   0.119   0.659   2.137
    2MOL1     H  415   0.220   0.517   1.977
    2MOL1     H  416   0.052   0.559   1.934
    2MOL1     H  417   0.183   0.678   1.910
    2MOL1     C  418   3.860   2.623   1.106
    2MOL1    Cl  419   3.866   2.663   0.934
    2MOL1     H  420   3.894   2.710   1.164
    2MOL1     H  421   3.757   2.598   1.134
    2MOL1     H  422   3.926   2.538   1.125
    2MOL1     C  423   4.971   1.813   3.381
    2MOL1    Cl  424   4.901   1.963   3.443
    2MOL1     H  425   5.072   1.834   3.343
    2MOL1     H  426   4.976   1.740   3.462
    2MOL1     H  427   4.908   1.775   3.300
    2MOL1     C  428   2.015   3.622   2.426
    2MOL1    Cl  429   2.183   3.571   2.406
    2MOL1     H  430   2.007   3.729   2.404
    2MOL1     H  431   1.952   3.566   2.357
    2MOL1     H  432   1.984   3.603   2.529
    2MOL1     C  433   0.543   0.232   4.889
    2MOL1    Cl  434   0.641   0.299   5.019
    2MOL1     H  435   0.443   0.212   4.926
    2MOL1     H  436   0.538   0.304   4.807
    2MOL1     H  437   0.589   0.139   4.854
    2MOL1     C  438   4.503   0.645   4.549
    2MOL1    Cl  439   4.537   0.805   4.616
    2MOL1     H  440   4.475   0.656   4.444
    2MOL1     H  441   4.593   0.583   4.557
    2MOL1     H  442   4.421   0.600   4.605
    2MOL1     C  443   3.812   4.664   1.596
    2MOL1    Cl  444   3.983   4.622   1.616
    2MOL1     H  445   3.753   4.572   1.596
    2MOL1     H  446   3.782   4.729   1.678
    2MOL1     H  447   3.799   4.716   1.500
    2MOL1     C  448   4.516   4.584   4.919
    2MOL1    Cl  449   4.378   4.507   4.997
    2MOL1     H  450   4.602   4.578   4.986
    2MOL1     H  451   4.538   4.531   4.826
    2MOL1     H  452   4.492   4.688   4.898
    2MOL1     C  453   4.060   4.353   1.769
    2MOL1    Cl  454   3.932   4.280   1.672
    2MOL1     H  455   4.114   4.426   1.709
    2MOL1     H  456   4.016   4.402   1.856
    2MOL1     H  457   4.129   4.274   1.802
    2MOL1     C  458   3.841   4.081   3.364
    2MOL1    Cl  459   3.982   4.171   3.421
    2MOL1     H  460   3.837   3.985   3.416
    2MOL1     H  461   3.751   4.139   3.384
    2MOL1     H  462   3.851   4.064   3.256
    2MOL1     C  463   0.349   0.895   3.401
    2MOL1    Cl  464   0.348   0.902   3.577
    2MOL1     H  465   0.402   0.804   3.370
    2MOL1     H  466   0.247   0.892   3.364
    2MOL1     H  467   0.401   0.983   3.362
    2MOL1     C  468   3.041   2.643   2.853
    2MOL1    Cl  469   3.021   2.809   2.910
    2MOL1     H  470   3.066   2.579   2.938
    2MOL1     H  471   2.949   2.610   2.806
    2MOL1     H  472   3.123   2.640   2.780
    2MOL1     C  473   3.771   2.432   2.433
    2MOL1    Cl  474   3.945   2.412   2.407
    2MOL1     H  475   3.752   2.443   2.540
    2MOL1     H  476   3.737   2.521   2.380
    2MOL1     H  477   3.719   2.344   2.395
    2MOL1     C  478   5.057   0.691   2.424
    2MOL1    Cl  479   4.903   0.647   2.349
    2MOL1     H  480   5.057   0.798   2.446
    2MOL1     H  481   5.070   0.634   2.516
    2MOL1     H  482   5.138   0.668   2.354
    2MOL1     C  483   0.361   0.150   3.062
    2MOL1    Cl  484   0.397   0.166   3.234
    2MOL1     H  485   0.261   0.189   3.042
    2MOL1     H  486   0.435   0.207   3.004
    2MOL1     H  487   0.366   0.045   3.034
    2MOL1     C  488   5.212   3.716   1.341
    2MOL1    Cl  489   5.223   3.874   1.263
    2MOL1     H  490   5.282   3.647   1.293
    2MOL1     H  491   5.237   3.726   1.447
    2MOL1     H  492   5.110   3.678   1.330
    2MOL1     C  493   1.525   3.340   0.968
    2MOL1    Cl  494   1.462   3.483   0.885
    2MOL1     H  495   1.520   3.254   0.900
    2MOL1     H  496   1.629   3.358   0.996
    2MOL1     H  497   1.465   3.321   1.057
    2MOL1     C  498   4.891   0.074   2.163
    2MOL1    Cl  499   4.853   0.245   2.136
    2MOL1     H  500   4.874   0.051   2.269
    2MOL1     H  501   4.826   0.013   2.101
    2MOL1     H  502   4.995   0.057   2.138
    2MOL1     C  503   2.758   4.469   4.222
    2MOL1    Cl  504   2.734   4.306   4.158
    2MOL1     H  505   2.809   4.529   4.147
    2MOL1     H  506   2.661   4.513   4.246
    2MOL1     H  507   2.819   4.463   4.313
    2MOL1     C  508   4.557   1.814   0.242
    2MOL1    Cl  509   4.608   1.675   0.146
    2MOL1     H  510   4.466   1.857   0.199
    2MOL1     H  511   4.538   1.782   0.345
    2MOL1     H  512   4.637   1.889   0.241
    2MOL1     C  513   2.898   4.709   4.509
    2MOL1    Cl  514   2.932   4.799   4.362
    2MOL1     H  515   2.837   4.771   4.576
    2MOL1     H  516   2.844   4.618   4.484
    2MOL1     H  517   2.992   4.683   4.558
    2MOL1     C  518   3.804   4.205   2.033
    2MOL1    Cl  519   3.700   4.344   2.000
    2MOL1     H  520   3.806   4.140   1.945
    2MOL1     H  521   3.905   4.240   2.055
    2MOL1     H  522   3.764   4.150   2.118
    2MOL1     C  523   0.947   0.227   3.476
    2MOL1    Cl  524   0.931   0.366   3.584
    2MOL1     H  525   0.902   0.139   3.524
    2MOL1     H  526   0.895   0.248   3.382
    2MOL1     H  527   1.053   0.208   3.456
    2MOL1     C  528   0.948   1.334   2.619
    2MOL1    Cl  529   0.869   1.186   2.565
    2MOL1     H  530   0.980   1.391   2.531
    2MOL1     H  531   0.878   1.393   2.678
    2MOL1     H  532   1.035   1.308   2.680
    2MOL1     C  533   1.126   0.802   2.358
    2MOL1    Cl  534   1.293   0.860   2.364
    2MOL1     H  535   1.077   0.826   2.452
    2MOL1     H  536   1.075   0.851   2.275
    2MOL1     H  537   1.127   0.694   2.342
    2MOL1     C  538   2.859   1.134   3.943
    2MOL1    Cl  539   2.986   1.076   4.052
    2MOL1     H  540   2.853   1.243   3.951
    2MOL1     H  541   2.883   1.106   3.841
    2MOL1     H  542   2.764   1.090   3.973
    2MOL1     C  543   4.638   5.147   1.267
    2MOL1    Cl  544   4.703   5.007   1.182
    2MOL1     H  545   4.557   5.190   1.209
    2MOL1     H  546   4.601   5.116   1.365
    2MOL1     H  547   4.718   5.221   1.279
    2MOL1     C  548   0.502   4.446   0.303
    2MOL1    Cl  549   0.512   4.271   0.329
    2MOL1     H  550   0.528   4.497   0.395
    2MOL1     H  551   0.571   4.474   0.223
    2MOL1     H  552   0.400   4.472   0.274
    2MOL1     C  553   2.418   3.432   2.262
    2MOL1    Cl  554   2.441   3.262   2.222
    2MOL1     H  555   2.377   3.484   2.175
    2MOL1     H  556   2.350   3.441   2.347
    2MOL1     H  557   2.515   3.476   2.288
    2MOL1     C  558   0.327   3.165   1.115
    2MOL1    Cl  559   0.349   2.991   1.140
    2MOL1     H  560   0.367   3.218   1.201
    2MOL1     H  561   0.380   3.195   1.025
    2MOL1     H  562   0.220   3.186   1.104
    2MOL1     C  563   3.383   3.648   1.018
    2MOL1    Cl  564   3.334   3.514   1.123
    2MOL1     H  565   3.391   3.739   1.078
    2MOL1     H  566   3.480   3.624   0.974
    2MOL1     H  567   3.309   3.661   0.940
    2MOL1     C  568   3.209   2.992   4.973
    2MOL1    Cl  569   3.147   2.973   4.809
    2MOL1     H  570   3.178   3.089   5.012
    2MOL1     H  571   3.168   2.913   5.036
    2MOL1     H  572   3.318   2.986   4.971
    2MOL1     C  573   1.061   1.295   1.898
    2MOL1    Cl  574   0.937   1.216   1.996
    2MOL1     H  575   1.156   1.294   1.952
    2MOL1     H  576   1.072   1.241   1.803
    2MOL1     H  577   1.030   1.398   1.878
    2MOL1     C  578   1.977   2.660   4.766
    2MOL1    Cl  579   1.819   2.592   4.803
    2MOL1     H  580   2.030   2.680   4.859
    2MOL1     H  581   2.034   2.589   4.705
    2MOL1     H  582   1.964   2.754   4.711
    2MOL1     C  583   2.299   4.094   4.200
    2MOL1    Cl  584   2.229   4.060   4.358
    2MOL1     H  585   2.384   4.027   4.183
    2MOL1     H  586   2.223   4.078   4.123
    2MOL1     H  587   2.332   4.198   4.197
    2MOL1     C  588   0.757   0.342   0.115
    2MOL1    Cl  589   0.789   0.196   0.211
    2MOL1     H  590   0.831   0.418   0.141
    2MOL1     H  591   0.764   0.317   0.009
    2MOL1     H  592   0.657   0.379   0.139
    2MOL1     C  593   1.127   0.651   2.952
    2MOL1    Cl  594   1.168   0.482   2.981
    2MOL1     H  595   1.158   0.711   3.038
    2MOL1     H  596   1.180   0.686   2.862
    2MOL1     H  597   1.019   0.660   2.938
    2MOL1     C  598   4.524   3.242   3.250
    2MOL1    Cl  599   4.522   3.129   3.386
    2MOL1     H  600   4.492   3.340   3.284
    2MOL1     H  601   4.626   3.248   3.210
    2MOL1     H  602   4.456   3.205   3.172
    2MOL1     C  603   3.216   4.837   5.218
    2MOL1    Cl  604   3.382   4.861   5.275
    2MOL1     H  605   3.168   4.934   5.208
    2MOL1     H  606   3.219   4.786   5.121
    2MOL1     H  607   3.162   4.775   5.291
    2MOL1     C  608   1.851   0.153   3.633
    2MOL1    Cl  609   1.819   0.039   3.502
    2MOL1     H  610   1.802   0.248   3.611
    2MOL1     H  611   1.811   0.112   3.726
    2MOL1     H  612   1.958   0.168   3.643
    2MOL1     C  613   0.953   0.767   4.104
    2MOL1    Cl  614   0.931   0.914   4.009
    2MOL1     H  615   0.865   0.752   4.166
    2MOL1     H  616   0.966   0.682   4.036
    2MOL1     H  617   1.042   0.778   4.166
    2MOL1     C  618   2.052   5.157   2.402
    2MOL1    Cl  619   1.878   5.189   2.400
    2MOL1     H  620   2.095   5.204   2.490
    2MOL1     H  621   2.068   5.049   2.405
    2MOL1     H  622   2.096   5.199   2.311
    2MOL1     C  623   1.258   1.300   2.400
    2MOL1    Cl  624   1.250   1.171   2.279
    2MOL1     H  625   1.252   1.396   2.349
    2MOL1     H  626   1.174   1.289   2.469
    2MOL1     H  627   1.352   1.292   2.454
    2MOL1     C  628   1.600   1.617   0.155
    2MOL1    Cl  629   1.618   1.791   0.130
    2MOL1     H  630   1.513   1.582   0.099
    2MOL1     H  631   1.690   1.567   0.119
    2MOL1     H  632   1.586   1.597   0.262
    2MOL1     C  633   4.240   3.124   2.483
    2MOL1    Cl  634   4.294   2.990   2.380
    2MOL1     H  635   4.327   3.182   2.514
    2MOL1     H  636   4.171   3.187   2.426
    2MOL1     H  637   4.189   3.083   2.571
    2MOL1     C  638   2.908   4.899   1.370
    2MOL1    Cl  639   2.800   4.773   1.429
    2MOL1     H  640   2.942   4.959   1.455
    2MOL1     H  641   2.993   4.853   1.320
    2MOL1     H  642   2.854   4.963   1.300
    2MOL1     C  643   4.338   2.470   3.335
    2MOL1    Cl  644   4.382   2.328   3.430
    2MOL1     H  645   4.286   2.438   3.245
    2MOL1     H  646   4.273   2.535   3.394
    2MOL1     H  647   4.429   2.525   3.307
    2MOL1     C  648   4.338   0.777   3.705
    2MOL1    Cl  649   4.298   0.624   3.627
    2MOL1     H  650   4.265   0.797   3.783
    2MOL1     H  651   4.438   0.770   3.749
    2MOL1     H  652   4.336   0.857   3.630
    2MOL1     C  653   4.216   0.954   3.319
    2MOL1    Cl  654   4.339   1.035   3.221
    2MOL1     H  655   4.172   0.872   3.260
    2MOL1     H  656   4.263   0.914   3.409
    2MOL1     H  657   4.139   1.026   3.346
    2MOL1     C  658   2.075   0.236   3.312
    2MOL1    Cl  659   2.126   0.301   3.469
    2MOL1     H  660   1.977   0.191   3.323
    2MOL1     H  661   2.071   0.318   3.240
    2MOL1     H  662   2.148   0.161   3.280
    2MOL1     C  663   0.503   4.503   3.687
    2MOL1    Cl  664   0.494   4.348   3.602
    2MOL1     H  665   0.569   4.570   3.632
    2MOL1     H  666   0.403   4.546   3.694
    2MOL1     H  667   0.543   4.486   3.788
    2MOL1     C  668   0.264   1.950   4.830
    2MOL1    Cl  669   0.352   1.803   4.874
    2MOL1     H  670   0.195   1.975   4.910
    2MOL1     H  671   0.335   2.031   4.815
    2MOL1     H  672   0.208   1.932   4.738
    2MOL1     C  673   1.083   5.091   5.190
    2MOL1    Cl  674   1.163   5.219   5.098
    2MOL1     H  675   1.070   5.003   5.126
    2MOL1     H  676   1.145   5.065   5.276
    2MOL1     H  677   0.985   5.127   5.224
    2MOL1     C  678   0.971   2.103   1.275
    2MOL1    Cl  679   1.039   2.266   1.267
    2MOL1     H  680   0.949   2.069   1.173
    2MOL1     H  681   1.042   2.036   1.323
    2MOL1     H  682   0.878   2.106   1.333
    2MOL1     C  683   4.849   1.691   2.303
    2MOL1    Cl  684   4.799   1.819   2.413
    2MOL1     H  685   4.891   1.608   2.361
    2MOL1     H  686   4.762   1.656   2.247
    2MOL1     H  687   4.924   1.730   2.234
    2MOL1     C  688   2.931   1.335   2.606
    2MOL1    Cl  689   2.835   1.252   2.483
    2MOL1     H  690   3.015   1.271   2.635
    2MOL1     H  691   2.969   1.429   2.564
    2MOL1     H  692   2.868   1.356   2.692
    2MOL1     C  693   3.165   0.572   2.663
    2MOL1    Cl  694   3.159   0.465   2.523
    2MOL1     H  695   3.154   0.676   2.630
    2MOL1     H  696   3.083   0.546   2.731
    2MOL1     H  697   3.261   0.560   2.714
    2MOL1     C  698   2.344   4.628   1.174
    2MOL1    Cl  699   2.300   4.567   1.014
    2MOL1     H  700   2.346   4.738   1.171
    2MOL1     H  701   2.270   4.595   1.247
    2MOL1     H  702   2.443   4.590   1.202
    2MOL1     C  703   0.546   3.443   4.097
    2MOL1    Cl  704   0.384   3.431   4.029
    2MOL1     H  705   0.609   3.502   4.029
    2MOL1     H  706   0.541   3.491   4.194
    2MOL1     H  707   0.588   3.343   4.107
    2MOL1     C  708   2.514   0.098   1.737
    2MOL1    Cl  709   2.368   0.001   1.721
    2MOL1     H  710   2.554   0.119   1.637
    2MOL1     H  711   2.490   0.192   1.787
    2MOL1     H  712   2.588   0.043   1.795
    2MOL1     C  713   2.506   4.969   3.671
    2MOL1    Cl  714   2.682   4.954   3.684
    2MOL1     H  715   2.460   4.911   3.751
    2MOL1     H  716   2.479   5.074   3.680
    2MOL1     H  717   2.474   4.930   3.574
    2MOL1     C  718   3.665   3.641   4.817
    2MOL1    Cl  719   3.749   3.740   4.936
    2MOL1     H  720   3.592   3.577   4.868
    2MOL1     H  721   3.614   3.706   4.746
    2MOL1     H  722   3.738   3.579   4.764
    2MOL1     C  723   1.725   0.244   4.870
    2MOL1    Cl  724   1.789   0.111   4.773
    2MOL1     H  725   1.726   0.336   4.811
    2MOL1     H  726   1.623   0.220   4.900
    2MOL1     H  727   1.788   0.257   4.959
    2MOL1     C  728   3.424   3.800   1.888
    2MOL1    Cl  729   3.415   3.642   1.808
    2MOL1     H  730   3.388   3.877   1.819
    2MOL1     H  731   3.360   3.798   1.977
    2MOL1     H  732   3.527   3.820   1.916
    2MOL1     C  733   0.186   2.709   2.156
    2MOL1    Cl  734   0.081   2.851   2.158
    2MOL1     H  735   0.270   2.726   2.223
    2MOL1     H  736   0.129   2.622   2.188
    2MOL1     H  737   0.223   2.694   2.054
    2MOL1     C  738   1.851   0.916   3.581
    2MOL1    Cl  739   1.977   0.883   3.461
    2MOL1     H  740   1.754   0.917   3.530
    2MOL1     H  741   1.852   0.838   3.657
    2MOL1     H  742   1.870   1.013   3.626
    2MOL1     C  743   1.442   4.573   3.674
    2MOL1    Cl  744   1.327   4.636   3.792
    2MOL1     H  745   1.464   4.468   3.699
    2MOL1     H  746   1.399   4.579   3.574
    2MOL1     H  747   1.534   4.632   3.679
    2MOL1     C  748   1.266   3.255   3.574
    2MOL1    Cl  749   1.178   3.103   3.551
    2MOL1     H  750   1.293   3.296   3.476
    2MOL1     H  751   1.202   3.325   3.627
    2MOL1     H  752   1.357   3.235   3.632
    2MOL1     C  753   4.886   2.346   2.498
    2MOL1    Cl  754   4.780   2.312   2.361
    2MOL1     H  755   4.963   2.416   2.467
    2MOL1     H  756   4.826   2.389   2.579
    2MOL1     H  757   4.932   2.252   2.531
    2MOL1     C  758   2.346   1.458   1.818
    2MOL1    Cl  759   2.412   1.574   1.934
    2MOL1     H  760   2.254   1.416   1.859
    2MOL1     H  761   2.326   1.509   1.724
    2MOL1     H  762   2.419   1.378   1.802
    2MOL1     C  763   1.215   0.114   3.764
    2MOL1    Cl  764   1.231   0.273   3.687
    2MOL1     H  765   1.216   0.127   3.872
    2MOL1     H  766   1.121   0.069   3.733
    2MOL1     H  767   1.299   0.051   3.733
    2MOL1     C  768   4.298   3.791   2.794
    2MOL1    Cl  769   4.453   3.822   2.872
    2MOL1     H  770   4.313   3.719   2.713
    2MOL1     H  771   4.228   3.750   2.867
    2MOL1     H  772   4.259   3.884   2.753
    2MOL1     C  773   4.449   1.259   4.065
    2MOL1    Cl  774   4.356   1.395   4.001
    2MOL1     H  775   4.379   1.184   4.103
    2MOL1     H  776   4.509   1.216   3.985
    2MOL1     H  777   4.513   1.294   4.145
    2MOL1     C  778   3.780   2.095   2.639
    2MOL1    Cl  779   3.840   2.027   2.791
    2MOL1     H  780   3.713   2.178   2.662
    2MOL1     H  781   3.865   2.131   2.580
    2MOL1     H  782   3.726   2.018   2.584
    2MOL1     C  783   4.945   4.024   3.348
    2MOL1    Cl  784   5.121   4.017   3.334
    2MOL1     H  785   4.904   3.924   3.338
    2MOL1     H  786   4.919   4.065   3.446
    2MOL1     H  787   4.906   4.089   3.269
    2MOL1     C  788   0.546   1.738   0.727
    2MOL1    Cl  789   0.678   1.753   0.845
    2MOL1     H  790   0.589   1.736   0.627
    2MOL1     H  791   0.492   1.645   0.746
    2MOL1     H  792   0.479   1.824   0.738
    2MOL1     C  793   3.641   1.705   3.665
    2MOL1    Cl  794   3.534   1.710   3.524
    2MOL1     H  795   3.637   1.802   3.716
    2MOL1     H  796   3.608   1.626   3.732
    2MOL1     H  797   3.743   1.686   3.631
    2MOL1     C  798   1.418   2.406   2.982
    2MOL1    Cl  799   1.545   2.332   2.883
    2MOL1     H  800   1.329   2.419   2.920
    2MOL1     H  801   1.396   2.341   3.066
    2MOL1     H  802   1.453   2.503   3.018
    2MOL1     C  803   0.298   3.036   0.088
    2MOL1    Cl  804   0.194   3.061   0.229
    2MOL1     H  805   0.310   2.929   0.070
    2MOL1     H  806   0.252   3.084   0.001
    2MOL1     H  807   0.396   3.082   0.107
    2MOL1     C  808   0.800   4.663   5.052
    2MOL1    Cl  809   0.915   4.580   4.947
    2MOL1     H  810   0.844   4.673   5.152
    2MOL1     H  811   0.779   4.762   5.011
    2MOL1     H  812   0.708   4.605   5.058
    2MOL1     C  813   4.730   4.807   0.159
    2MOL1    Cl  814   4.687   4.745   0.000
    2MOL1     H  815   4.725   4.916   0.157
    2MOL1     H  816   4.659   4.769   0.233
    2MOL1     H  817   4.831   4.775   0.184
    2MOL1     C  818   0.826   1.547   0.675
    2MOL1    Cl  819   0.669   1.502   0.606
    2MOL1     H  820   0.844   1.488   0.764
    2MOL1     H  821   0.904   1.528   0.601
    2MOL1     H  822   0.824   1.654   0.701
    2MOL1     C  823   2.438   0.323   3.567
    2MOL1    Cl  824   2.320   0.204   3.512
    2MOL1     H  825   2.398   0.423   3.550
    2MOL1     H  826   2.458   0.308   3.673
    2MOL1     H  827   2.531   0.311   3.510
    2MOL1     C  828   0.490   1.517   3.344
    2MOL1    Cl  829   0.426   1.608   3.207
    2MOL1     H  830   0.580   1.464   3.313
    2MOL1     H  831   0.514   1.586   3.425
    2MOL1     H  832   0.414   1.445   3.378
    2MOL1     C  833   0.344   4.432   5.024
    2MOL1    Cl  834   0.190   4.455   4.939
    2MOL1     H  835   0.426   4.456   4.956
    2MOL1     H  836   0.347   4.498   5.111
    2MOL1     H  837   0.351   4.328   5.056
    2MOL1     C  838   4.325   1.420   2.200
    2MOL1    Cl  839   4.156   1.438   2.249
    2MOL1     H  840   4.385   1.399   2.288
    2MOL1     H  841   4.332   1.337   2.129
    2MOL1     H  842   4.358   1.512   2.152
    2MOL1     C  843   1.483   0.656   1.790
    2MOL1    Cl  844   1.398   0.515   1.854
    2MOL1     H  845   1.474   0.738   1.862
    2MOL1     H  846   1.589   0.631   1.777
    2MOL1     H  847   1.439   0.684   1.695
    2MOL1     C  848   2.029   1.827   3.570
    2MOL1    Cl  849   2.189   1.838   3.496
    2MOL1     H  850   1.957   1.796   3.494
    2MOL1     H  851   2.031   1.753   3.650
    2MOL1     H  852   2.001   1.925   3.610
    2MOL1     C  853   2.643   3.589   3.807
    2MOL1    Cl  854   2.802   3.563   3.881
    2MOL1     H  855   2.572   3.616   3.885
    2MOL1     H  856   2.650   3.668   3.733
    2MOL1     H  857   2.611   3.496   3.759
    2MOL1     C  858   0.861   1.380   3.718
    2MOL1    Cl  859   0.734   1.331   3.606
    2MOL1     H  860   0.855   1.319   3.808
    2MOL1     H  861   0.959   1.367   3.670
    2MOL1     H  862   0.847   1.485   3.744
    2MOL1     C  863   0.769   4.422   1.920
    2MOL1    Cl  864   0.693   4.569   1.982
    2MOL1     H  865   0.700   4.338   1.935
    2MOL1     H  866   0.789   4.435   1.813
    2MOL1     H  867   0.862   4.404   1.973
    2MOL1     C  868   3.737   4.157   2.584
    2MOL1    Cl  869   3.857   4.244   2.680
    2MOL1     H  870   3.655   4.126   2.649
    2MOL1     H  871   3.700   4.223   2.505
    2MOL1     H  872   3.784   4.069   2.539
    2MOL1     C  873   0.676   2.545   3.618
    2MOL1    Cl  874   0.502   2.574   3.618
    2MOL1     H  875   0.694   2.437   3.617
    2MOL1     H  876   0.720   2.591   3.529
    2MOL1     H  877   0.720   2.589   3.708
    2MOL1     C  878   1.797   3.894   1.726
    2MOL1    Cl  879   1.826   3.726   1.681
    2MOL1     H  880   1.866   3.923   1.805
    2MOL1     H  881   1.812   3.958   1.638
    2MOL1     H  882   1.694   3.904   1.761
    2MOL1     C  883   1.618   1.648   2.591
    2MOL1    Cl  884   1.571   1.597   2.753
    2MOL1     H  885   1.685   1.734   2.598
    2MOL1     H  886   1.668   1.566   2.540
    2MOL1     H  887   1.528   1.676   2.535
    2MOL1     C  888   3.954   0.134   4.060
    2MOL1    Cl  889   4.066   0.050   3.951
    2MOL1     H  890   3.865   0.161   4.004
    2MOL1     H  891   3.928   0.068   4.142
    2MOL1     H  892   4.003   0.224   4.098
    2MOL1     C  893   0.145   4.568   4.602
    2MOL1    Cl  894   0.099   4.443   4.718
    2MOL1     H  895   0.232   4.622   4.640
    2MOL1     H  896   0.169   4.522   4.506
    2MOL1     H  897   0.061   4.638   4.590
    2MOL1     C  898   1.128   1.696   0.734
    2MOL1    Cl  899   1.104   1.663   0.906
    2MOL1     H  900   1.034   1.731   0.691
    2MOL1     H  901   1.205   1.773   0.723
    2MOL1     H  902   1.160   1.604   0.684
    2MOL1     C  903   2.696   2.784   0.314
    2MOL1    Cl  904   2.565   2.677   0.363
    2MOL1     H  905   2.726   2.759   0.212
    2MOL1     H  906   2.662   2.887   0.319
    2MOL1     H  907   2.781   2.770   0.382
    2MOL1     C  908   3.617   1.431   3.489
    2MOL1    Cl  909   3.685   1.335   3.620
    2MOL1     H  910   3.599   1.367   3.403
    2MOL1     H  911   3.523   1.476   3.522
    2MOL1     H  912   3.689   1.510   3.462
    2MOL1     C  913   3.498   0.321   1.942
    2MOL1    Cl  914   3.648   0.231   1.963
    2MOL1     H  915   3.493   0.358   1.839
    2MOL1     H  916   3.413   0.255   1.962
    2MOL1     H  917   3.497   0.406   2.011
    2MOL1     C  918   4.151   2.683   1.517
    2MOL1    Cl  919   4.058   2.649   1.371
    2MOL1     H  920   4.237   2.746   1.491
    2MOL1     H  921   4.088   2.735   1.589
    2MOL1     H  922   4.187   2.589   1.559
    2MOL1     C  923   2.974   4.259   2.652
    2MOL1    Cl  924   3.129   4.190   2.601
    2MOL1     H  925   2.921   4.186   2.714
    2MOL1     H  926   2.992   4.350   2.709
    2MOL1     H  927   2.915   4.282   2.563
    2MOL1     C  928   4.466   1.090   2.766
    2MOL1    Cl  929   4.429   1.239   2.853
    2MOL1     H  930   4.466   1.006   2.836
    2MOL1     H  931   4.390   1.074   2.689
    2MOL1     H  932   4.564   1.099   2.719
    2MOL1     C  933   1.043   2.118   4.924
    2MOL1    Cl  934   0.908   2.231   4.908
    2MOL1     H  935   1.101   2.120   4.832
    2MOL1     H  936   1.105   2.149   5.008
    2MOL1     H  937   1.003   2.018   4.941
    2MOL1     C  938   2.417   4.595   4.609
    2MOL1    Cl  939   2.432   4.420   4.627
    2MOL1     H  940   2.451   4.643   4.701
    2MOL1     H  941   2.479   4.628   4.525
    2MOL1     H  942   2.312   4.620   4.590
    2MOL1     C  943   2.318   5.114   5.090
    2MOL1    Cl  944   2.203   4.996   5.025
    2MOL1     H  945   2.396   5.060   5.144
    2MOL1     H  946   2.361   5.170   5.008
    2MOL1     H  947   2.265   5.181   5.158
    2MOL1     C  948   2.018   1.286   3.000
    2MOL1    Cl  949   2.119   1.220   2.871
    2MOL1     H  950   2.076   1.289   3.093
    2MOL1     H  951   1.986   1.386   2.972
    2MOL1     H  952   1.930   1.221   3.013
    2MOL1     C  953   1.922   2.216   5.180
    2MOL1    Cl  954   1.970   2.168   5.017
    2MOL1     H  955   1.928   2.129   5.246
    2MOL1     H  956   1.989   2.294   5.216
    2MOL1     H  957   1.819   2.253   5.178
    2MOL1     C  958   2.293   1.816   1.703
    2MOL1    Cl  959   2.258   1.678   1.598
    2MOL1     H  960   2.290   1.908   1.644
    2MOL1     H  961   2.218   1.820   1.783
    2MOL1     H  962   2.392   1.804   1.747
    2MOL1     C  963   2.712   2.619   0.868
    2MOL1    Cl  964   2.815   2.757   0.827
    2MOL1     H  965   2.764   2.527   0.843
    2MOL1     H  966   2.689   2.622   0.975
    2MOL1     H  967   2.619   2.626   0.811
    2MOL1     C  968   3.066   1.856   1.998
    2MOL1    Cl  969   3.018   2.025   2.020
    2MOL1     H  970   3.173   1.853   1.973
    2MOL1     H  971   3.047   1.801   2.090
    2MOL1     H  972   3.008   1.813   1.916
    2MOL1     C  973   4.724   4.532   2.738
    2MOL1    Cl  974   4.562   4.463   2.753
    2MOL1     H  975   4.775   4.486   2.653
    2MOL1     H  976   4.716   4.640   2.722
    2MOL1     H  977   4.780   4.512   2.830
    2MOL1     C  978   3.286   0.393   4.940
    2MOL1    Cl  979   3.421   0.493   4.886
    2MOL1     H  980   3.324   0.294   4.968
    2MOL1     H  981   3.238   0.440   5.026
    2MOL1     H  982   3.214   0.383   4.858
    2MOL1     C  983   3.989   3.999   4.149
    2MOL1    Cl  984   3.820   4.008   4.201
    2MOL1     H  985   4.022   4.099   4.119
    2MOL1     H  986   4.050   3.963   4.232
    2MOL1     H  987   3.997   3.931   4.065
    2MOL1     C  988   2.008   1.379   2.623
    2MOL1    Cl  989   1.889   1.485   2.701
    2MOL1     H  990   2.092   1.363   2.691
    2MOL1     H  991   1.960   1.284   2.599
    2MOL1     H  992   2.044   1.427   2.531
    2MOL1     C  993   2.659   0.465   0.121
    2MOL1    Cl  994   2.815   0.548   0.130
    2MOL1     H  995   2.609   0.472   0.218
    2MOL1     H  996   2.598   0.513   0.044
    2MOL1     H  997   2.676   0.360   0.095
    2MOL1     C  998   2.436   2.924   2.026
    2MOL1    Cl  999   2.305   2.816   2.075
    2MOL1     H 1000   2.472   2.979   2.114
    2MOL1     H 1001   2.518   2.865   1.984
    2MOL1     H 1002   2.398   2.994   1.951
    2MOL1     C 1003   1.088   4.956   1.593
    2MOL1    Cl 1004   0.977   4.851   1.505
    2MOL1     H 1005   1.110   5.044   1.531
    2MOL1     H 1006   1.042   4.987   1.687
    2MOL1     H 1007   1.181   4.901   1.613
    2MOL1     C 1008   4.260   2.314   4.443
    2MOL1    Cl 1009   4.210   2.278   4.278
    2MOL1     H 1010   4.360   2.274   4.459
    2MOL1     H 1011   4.260   2.422   4.458
    2MOL1     H 1012   4.190   2.268   4.512
    2MOL1     C 1013   1.954   5.098   5.158
    2MOL1    Cl 1014   2.044   5.000   5.274
    2MOL1     H 1015   1.854   5.056   5.145
    2MOL1     H 1016   1.946   5.200   5.196
    2MOL1     H 1017   2.007   5.098   5.063
    2MOL1     C 1018   3.453   3.918   0.603
    2MOL1    Cl 1019   3.484   4.092   0.608
    2MOL1     H 1020   3.360   3.896   0.656
    2MOL1     H 1021   3.444   3.886   0.499
    2MOL1     H 1022   3.536   3.865   0.651
    2MOL1     C 1023   4.674   0.965   1.055
    2MOL1    Cl 1024   4.617   1.062   1.191
    2MOL1     H 1025   4.716   0.872   1.093
    2MOL1     H 1026   4.591   0.944   0.988
    2MOL1     H 1027   4.752   1.021   1.002
    2MOL1     C 1028   4.179   1.849   1.954
    2MOL1    Cl 1029   4.090   1.713   1.885
    2MOL1     H 1030   4.110   1.933   1.970
    2MOL1     H 1031   4.222   1.819   2.050
    2MOL1     H 1032   4.258   1.879   1.885
    2MOL1     C 1033   4.137   1.728   0.080
    2MOL1    Cl 1034   4.190   1.713   0.248
    2MOL1     H 1035   4.111   1.832   0.060
    2MOL1     H 1036   4.218   1.696   0.014
    2MOL1     H 1037   4.049   1.665   0.065
    2MOL1     C 1038   4.012   3.243   4.840
    2MOL1    Cl 1039   3.955   3.297   4.682
    2MOL1     H 1040   3.929   3.195   4.893
    2MOL1     H 1041   4.093   3.171   4.826
    2MOL1     H 1042   4.047   3.329   4.896
    2MOL1     C 1043   1.235   0.549   3.814
    2MOL1    Cl 1044   1.396   0.606   3.767
    2MOL1     H 1045   1.197   0.612   3.895
    2MOL1     H 1046   1.168   0.556   3.728
    2MOL1     H 1047   1.242   0.446   3.848
    2MOL1     C 1048   3.590   0.330   1.426
    2MOL1    Cl 1049   3.501   0.477   1.468
    2MOL1     H 1050   3.665   0.311   1.502
    2MOL1     H 1051   3.520   0.246   1.421
    2MOL1     H 1052   3.638   0.344   1.329
    2MOL1     C 1053   1.208   0.395   4.139
    2MOL1    Cl 1054   1.309   0.263   4.079
    2MOL1     H 1055   1.145   0.432   4.058
    2MOL1     H 1056   1.144   0.357   4.220
    2MOL1     H 1057   1.272   0.475   4.177
    2MOL1     C 1058   3.142   5.253   3.645
    2MOL1    Cl 1059   3.050   5.104   3.629
    2MOL1     H 1060   3.086   5.323   3.707
    2MOL1     H 1061   3.238   5.232   3.692
    2MOL1     H 1062   3.158   5.296   3.546
    2MOL1     C 1063   2.343   1.079   4.208
    2MOL1    Cl 1064   2.401   1.094   4.374
    2MOL1     H 1065   2.283   1.166   4.183
    2MOL1     H 1066   2.429   1.073   4.140
    2MOL1     H 1067   2.283   0.988   4.199
    2MOL1     C 1068   3.347   0.703   0.332
    2MOL1    Cl 1069   3.440   0.795   0.450
    2MOL1     H 1070   3.398   0.707   0.235
    2MOL1     H 1071   3.340   0.599   0.365
    2MOL1     H 1072   3.248   0.746   0.323
    2MOL1     C 1073   1.638   2.165   2.695
    2MOL1    Cl 1074   1.679   2.050   2.567
    2MOL1     H 1075   1.616   2.109   2.787
    2MOL1     H 1076   1.722   2.232   2.712
    2MOL1     H 1077   1.550   2.222   2.665
    2MOL1     C 1078   5.017   4.026   4.708
    2MOL1    Cl 1079   5.109   3.948   4.580
    2MOL1     H 1080   5.079   4.032   4.798
    2MOL1     H 1081   4.989   4.127   4.676
    2MOL1     H 1082   4.927   3.968   4.729
    2MOL1     C 1083   0.910   0.929   2.710
    2MOL1    Cl 1084   0.966   1.089   2.762
    2MOL1     H 1085   0.861   0.938   2.613
    2MOL1     H 1086   0.996   0.862   2.702
    2MOL1     H 1087   0.840   0.890   2.784
    2MOL1     C 1088   4.750   0.984   3.658
    2MOL1    Cl 1089   4.651   0.859   3.735
    2MOL1     H 1090   4.716   0.999   3.556
    2MOL1     H 1091   4.741   1.077   3.715
    2MOL1     H 1092   4.855   0.951   3.658
    2MOL1     C 1093   5.131   4.832   0.638
    2MOL1    Cl 1094   5.203   4.967   0.550
    2MOL1     H 1095   5.140   4.741   0.577
    2MOL1     H 1096   5.184   4.818   0.733
    2MOL1     H 1097   5.025   4.853   0.657
    2MOL1     C 1098   0.685   3.438   0.377
    2MOL1    Cl 1099   0.642   3.564   0.261
    2MOL1     H 1100   0.744   3.362   0.326
    2MOL1     H 1101   0.743   3.482   0.458
    2MOL1     H 1102   0.593   3.393   0.417
    2MOL1     C 1103   1.168   2.438   4.775
    2MOL1    Cl 1104   1.051   2.316   4.722
    2MOL1     H 1105   1.120   2.536   4.775
    2MOL1     H 1106   1.203   2.413   4.875
    2MOL1     H 1107   1.253   2.438   4.706
    2MOL1     C 1108   1.578   4.121   0.084
    2MOL1    Cl 1109   1.745   4.083   0.127
    2MOL1     H 1110   1.547   4.059   0.000
    2MOL1     H 1111   1.514   4.101   0.170
    2MOL1     H 1112   1.571   4.227   0.057
    2MOL1     C 1113   0.663   3.304   0.648
    2MOL1    Cl 1114   0.815   3.292   0.558
    2MOL1     H 1115   0.589   3.240   0.599
    2MOL1     H 1116   0.680   3.270   0.750
    2MOL1     H 1117   0.629   3.407   0.647
    2MOL1     C 1118   4.265   1.636   2.599
    2MOL1    Cl 1119   4.345   1.518   2.703
    2MOL1     H 1120   4.264   1.733   2.650
    2MOL1     H 1121   4.320   1.644   2.505
    2MOL1     H 1122   4.163   1.603   2.580
    2MOL1     C 1123   2.164   0.613   4.339
    2MOL1    Cl 1124   2.209   0.651   4.506
    2MOL1     H 1125   2.136   0.705   4.288
    2MOL1     H 1126   2.250   0.567   4.289
    2MOL1     H 1127   2.080   0.543   4.340
    2MOL1     C 1128   0.386   0.120   2.593
    2MOL1    Cl 1129   0.304   0.267   2.647
    2MOL1     H 1130   0.473   0.103   2.657
    2MOL1     H 1131   0.316   0.036   2.601
    2MOL1     H 1132   0.417   0.133   2.489
    2MOL1     C 1133   1.888   4.568   4.500
    2MOL1    Cl 1134   1.761   4.486   4.593
    2MOL1     H 1135   1.978   4.574   4.561
    2MOL1     H 1136   1.907   4.511   4.409
    2MOL1     H 1137   1.854   4.669   4.474
    2MOL1     C 1138   4.312   4.613   1.520
    2MOL1    Cl 1139   4.416   4.474   1.553
    2MOL1     H 1140   4.284   4.612   1.414
    2MOL1     H 1141   4.223   4.607   1.582
    2MOL1     H 1142   4.367   4.705   1.542
    2MOL1     C 1143   1.092   2.634   0.468
    2MOL1    Cl 1144   0.971   2.694   0.354
    2MOL1     H 1145   1.171   2.582   0.412
    2MOL1     H 1146   1.135   2.718   0.522
    2MOL1     H 1147   1.045   2.564   0.537
    2MOL1     C 1148   1.310   0.909   4.258
    2MOL1    Cl 1149   1.257   0.803   4.127
    2MOL1     H 1150   1.223   0.960   4.299
    2MOL1     H 1151   1.358   0.849   4.335
    2MOL1     H 1152   1.381   0.982   4.218
    2MOL1     C 1153   1.860   1.533   0.863
    2MOL1    Cl 1154   2.004   1.439   0.901
    2MOL1     H 1155   1.830   1.590   0.951
    2MOL1     H 1156   1.882   1.602   0.781
    2MOL1     H 1157   1.780   1.465   0.834
    2MOL1     C 1158   1.234   4.612   1.449
    2MOL1    Cl 1159   1.385   4.681   1.510
    2MOL1     H 1160   1.214   4.653   1.350
    2MOL1     H 1161   1.245   4.504   1.443
    2MOL1     H 1162   1.153   4.638   1.518
    2MOL1     C 1163   5.025   2.766   2.608
    2MOL1    Cl 1164   5.185   2.761   2.533
    2MOL1     H 1165   4.997   2.666   2.641
    2MOL1     H 1166   5.027   2.834   2.694
    2MOL1     H 1167   4.952   2.802   2.535
    2MOL1     C 1168   1.262   2.365   0.297
    2MOL1    Cl 1169   1.165   2.488   0.214
    2MOL1     H 1170   1.215   2.341   0.393
    2MOL1     H 1171   1.267   2.275   0.235
    2MOL1     H 1172   1.362   2.404   0.314
    2MOL1     C 1173   3.672   4.739   3.457
    2MOL1    Cl 1174   3.528   4.642   3.425
    2MOL1     H 1175   3.756   4.672   3.480
    2MOL1     H 1176   3.696   4.798   3.369
    2MOL1     H 1177   3.653   4.804   3.543
    2MOL1     C 1178   2.184   0.999   2.408
    2MOL1    Cl 1179   2.078   1.066   2.532
    2MOL1     H 1180   2.247   1.079   2.368
    2MOL1     H 1181   2.247   0.921   2.452
    2MOL1     H 1182   2.123   0.956   2.328
    2MOL1     C 1183   0.660   4.596   4.526
    2MOL1    Cl 1184   0.742   4.500   4.403
    2MOL1     H 1185   0.552   4.576   4.521
    2MOL1     H 1186   0.697   4.568   4.625
    2MOL1     H 1187   0.679   4.702   4.508
    2MOL1     C 1188   2.050   4.856   3.949
    2MOL1    Cl 1189   1.966   4.881   3.796
    2MOL1     H 1190   2.157   4.876   3.934
    2MOL1     H 1191   2.009   4.923   4.024
    2MOL1     H 1192   2.036   4.752   3.980
    2MOL1     C 1193   1.203   0.282   1.255
    2MOL1    Cl 1194   1.032   0.325   1.263
    2MOL1     H 1195   1.234   0.241   1.352
    2MOL1     H 1196   1.217   0.207   1.177
    2MOL1     H 1197   1.261   0.371   1.233
    2MOL1     C 1198   2.467   3.150   1.133
    2MOL1    Cl 1199   2.432   3.315   1.185
    2MOL1     H 1200   2.466   3.084   1.220
    2MOL1     H 1201   2.392   3.118   1.061
    2MOL1     H 1202   2.567   3.148   1.087
    2MOL1     C 1203   1.088   3.558   1.336
    2MOL1    Cl 1204   1.007   3.526   1.490
    2MOL1     H 1205   1.050   3.487   1.261
    2MOL1     H 1206   1.066   3.660   1.305
    2MOL1     H 1207   1.196   3.544   1.349
    2MOL1     C 1208   3.787   2.405   2.131
    2MOL1    Cl 1209   3.754   2.296   1.995
    2MOL1     H 1210   3.844   2.351   2.207
    2MOL1     H 1211   3.844   2.490   2.095
    2MOL1     H 1212   3.692   2.439   2.173
    2MOL1     C 1213   2.759   2.494   1.203
    2MOL1    Cl 1214   2.934   2.513   1.226
    2MOL1     H 1215   2.713   2.593   1.203
    2MOL1     H 1216   2.741   2.445   1.107
    2MOL1     H 1217   2.719   2.434   1.284
    2MOL1     C 1218   2.753   3.517   4.300
    2MOL1    Cl 1219   2.708   3.346   4.304
    2MOL1     H 1220   2.848   3.528   4.248
    2MOL1     H 1221   2.675   3.573   4.248
    2MOL1     H 1222   2.762   3.554   4.402
    2MOL1     C 1223   1.160   2.794   4.182
    2MOL1    Cl 1224   1.130   2.732   4.019
    2MOL1     H 1225   1.071   2.777   4.243
    2MOL1     H 1226   1.245   2.741   4.226
    2MOL1     H 1227   1.181   2.901   4.177
    2MOL1     C 1228   1.503   2.941   3.494
    2MOL1    Cl 1229   1.630   2.988   3.380
    2MOL1     H 1230   1.426   2.885   3.440
    2MOL1     H 1231   1.547   2.878   3.571
    2MOL1     H 1232   1.460   3.031   3.538
    2MOL1     C 1233   3.782   4.760   3.860
    2MOL1    Cl 1234   3.706   4.882   3.962
    2MOL1     H 1235   3.784   4.664   3.914
    2MOL1     H 1236   3.726   4.750   3.767
    2MOL1     H 1237   3.885   4.791   3.838
    2MOL1     C 1238   0.106   3.244   0.534
    2MOL1    Cl 1239   0.171   3.289   0.376
    2MOL1     H 1240   0.118   3.136   0.548
    2MOL1     H 1241   0.160   3.298   0.612
    2MOL1     H 1242   0.000   3.270   0.538
    2MOL1     C 1243   1.482   2.299   5.083
    2MOL1    Cl 1244   1.321   2.370   5.101
    2MOL1     H 1245   1.547   2.338   5.162
    2MOL1     H 1246   1.474   2.190   5.092
    2MOL1     H 1247   1.522   2.326   4.985
    2MOL1     C 1248   0.253   1.950   3.056
    2MOL1    Cl 1249   0.325   2.004   3.208
    2MOL1     H 1250   0.293   2.010   2.974
    2MOL1     H 1251   0.278   1.845   3.040
    2MOL1     H 1252   0.145   1.962   3.061
    2MOL1     C 1253   3.610   0.227   4.962
    2MOL1    Cl 1254   3.589   0.311   5.116
    2MOL1     H 1255   3.554   0.133   4.964
    2MOL1     H 1256   3.572   0.290   4.881
    2MOL1     H 1257   3.716   0.207   4.946
    2MOL1     C 1258   1.804   2.839   2.194
    2MOL1    Cl 1259   1.832   2.743   2.048
    2MOL1     H 1260   1.756   2.933   2.166
    2MOL1     H 1261   1.739   2.782   2.261
    2MOL1     H 1262   1.900   2.859   2.243
    2MOL1     C 1263   4.215   0.665   4.289
    2MOL1    Cl 1264   4.121   0.809   4.328
    2MOL1     H 1265   4.147   0.588   4.251
    2MOL1     H 1266   4.289   0.690   4.213
    2MOL1     H 1267   4.265   0.629   4.379
    2MOL1     C 1268   0.289   3.804   1.575
    2MOL1    Cl 1269   0.287   3.728   1.735
    2MOL1     H 1270   0.259   3.908   1.585
    2MOL1     H 1271   0.391   3.798   1.534
    2MOL1     H 1272   0.220   3.751   1.510
    2MOL1     C 1273   0.248   1.643   0.873
    2MOL1    Cl 1274   0.265   1.788   0.774
    2MOL1     H 1275   0.287   1.663   0.973
    2MOL1     H 1276   0.142   1.616   0.879
    2MOL1     H 1277   0.305   1.561   0.827
    2MOL1     C 1278   3.727   2.525   2.829
    2MOL1    Cl 1279   3.778   2.377   2.909
    2MOL1     H 1280   3.633   2.507   2.776
    2MOL1     H 1281   3.712   2.603   2.904
    2MOL1     H 1282   3.804   2.557   2.758
    2MOL1     C 1283   0.252   4.832   2.807
    2MOL1    Cl 1284   0.140   4.966   2.785
    2MOL1     H 1285   0.196   4.739   2.814
    2MOL1     H 1286   0.320   4.828   2.721
    2MOL1     H 1287   0.309   4.848   2.899
    2MOL1     C 1288   0.080   4.665   2.551
    2MOL1    Cl 1289   0.001   4.747   2.416
    2MOL1     H 1290   0.175   4.713   2.572
    2MOL1     H 1291   0.015   4.670   2.639
    2MOL1     H 1292   0.096   4.560   2.524
    2MOL1     C 1293   0.499   2.601   2.316
    2MOL1    Cl 1294   0.561   2.483   2.432
    2MOL1     H 1295   0.583   2.651   2.267
    2MOL1     H 1296   0.438   2.549   2.242
    2MOL1     H 1297   0.438   2.675   2.369
    2MOL1     C 1298   0.566   4.013   2.882
    2MOL1    Cl 1299   0.630   3.852   2.913
    2MOL1     H 1300   0.530   4.018   2.779
    2MOL1     H 1301   0.483   4.033   2.951
    2MOL1     H 1302   0.645   4.087   2.897
    2MOL1     C 1303   2.363   0.736   4.102
    2MOL1    Cl 1304   2.368   0.586   4.009
    2MOL1     H 1305   2.261   0.773   4.105
    2MOL1     H 1306   2.399   0.716   4.204
    2MOL1     H 1307   2.428   0.810   4.054
    2MOL1     C 1308   1.787   1.925   2.225
    2MOL1    Cl 1309   1.898   1.913   2.362
    2MOL1     H 1310   1.697   1.978   2.257
    2MOL1     H 1311   1.835   1.980   2.144
    2MOL1     H 1312   1.761   1.824   2.192
    2MOL1     C 1313   0.944   3.214   2.348
    2MOL1    Cl 1314   0.767   3.218   2.341
    2MOL1     H 1315   0.982   3.315   2.335
    2MOL1     H 1316   0.974   3.174   2.445
    2MOL1     H 1317   0.981   3.150   2.268
    2MOL1     C 1318   4.769   3.766   3.131
    2MOL1    Cl 1319   4.765   3.715   3.300
    2MOL1     H 1320   4.717   3.692   3.070
    2MOL1     H 1321   4.719   3.863   3.122
    2MOL1     H 1322   4.873   3.775   3.098
    2MOL1     C 1323   4.339   1.004   4.567
    2MOL1    Cl 1324   4.244   1.090   4.445
    2MOL1     H 1325   4.444   1.030   4.555
    2MOL1     H 1326   4.304   1.034   4.666
    2MOL1     H 1327   4.325   0.897   4.554
    2MOL1     C 1328   0.155   3.104   4.639
    2MOL1    Cl 1329   0.097   2.961   4.724
    2MOL1     H 1330   0.172   3.184   4.712
    2MOL1     H 1331   0.248   3.080   4.588
    2MOL1     H 1332   0.080   3.136   4.566
    2MOL1     C 1333   1.018   1.816   0.342
    2MOL1    Cl 1334   0.857   1.839   0.273
    2MOL1     H 1335   1.042   1.903   0.404
    2MOL1     H 1336   1.018   1.725   0.402
    2MOL1     H 1337   1.090   1.808   0.260
    2MOL1     C 1338   1.923   2.138   1.782
    2MOL1    Cl 1339   2.048   2.058   1.686
    2MOL1     H 1340   1.826   2.124   1.733
    2MOL1     H 1341   1.920   2.093   1.881
    2MOL1     H 1342   1.945   2.244   1.789
    2MOL1     C 1343   2.554   4.478   3.931
    2MOL1    Cl 1344   2.505   4.368   3.801
    2MOL1     H 1345   2.587   4.572   3.887
    2MOL1     H 1346   2.470   4.495   3.998
    2MOL1     H 1347   2.637   4.432   3.986
    2MOL1     C 1348   3.241   0.537   1.740
    2MOL1    Cl 1349   3.159   0.381   1.750
    2MOL1     H 1350   3.226   0.579   1.640
    2MOL1     H 1351   3.200   0.605   1.815
    2MOL1     H 1352   3.348   0.523   1.758
    2MOL1     C 1353   2.439   4.877   4.904
    2MOL1    Cl 1354   2.535   5.003   4.983
    2MOL1     H 1355   2.505   4.814   4.844
    2MOL1     H 1356   2.390   4.816   4.981
    2MOL1     H 1357   2.364   4.924   4.840
    2MOL1     C 1358   2.644   1.923   3.441
    2MOL1    Cl 1359   2.700   1.853   3.289
    2MOL1     H 1360   2.605   1.844   3.505
    2MOL1     H 1361   2.728   1.972   3.491
    2MOL1     H 1362   2.566   1.996   3.420
    2MOL1     C 1363   0.845   1.803   5.027
    2MOL1    Cl 1364   0.876   1.953   5.115
    2MOL1     H 1365   0.929   1.735   5.041
    2MOL1     H 1366   0.753   1.758   5.065
    2MOL1     H 1367   0.834   1.826   4.921
    2MOL1     C 1368   3.149   1.136   3.129
    2MOL1    Cl 1369   3.196   1.305   3.155
    2MOL1     H 1370   3.233   1.082   3.084
    2MOL1     H 1371   3.124   1.091   3.225
    2MOL1     H 1372   3.063   1.133   3.062
    2MOL1     C 1373   3.717   0.760   1.692
    2MOL1    Cl 1374   3.763   0.678   1.842
    2MOL1     H 1375   3.725   0.868   1.707
    2MOL1     H 1376   3.783   0.728   1.612
    2MOL1     H 1377   3.614   0.734   1.668
    2MOL1     C 1378   0.513   0.410   0.565
    2MOL1    Cl 1379   0.376   0.304   0.530
    2MOL1     H 1380   0.481   0.488   0.635
    2MOL1     H 1381   0.593   0.351   0.610
    2MOL1     H 1382   0.548   0.456   0.472
    2MOL1     C 1383   0.826   3.844   3.754
    2MOL1    Cl 1384   0.928   3.720   3.680
    2MOL1     H 1385   0.810   3.820   3.859
    2MOL1     H 1386   0.876   3.941   3.746
    2MOL1     H 1387   0.730   3.848   3.702
    2MOL1     C 1388   5.208   4.237   4.477
    2MOL1    Cl 1389   5.090   4.328   4.382
    2MOL1     H 1390   5.308   4.257   4.438
    2MOL1     H 1391   5.202   4.268   4.581
    2MOL1     H 1392   5.186   4.130   4.469
    2MOL1     C 1393   3.749   1.797   0.922
    2MOL1    Cl 1394   3.924   1.776   0.934
    2MOL1     H 1395   3.711   1.837   1.016
    2MOL1     H 1396   3.727   1.866   0.840
    2MOL1     H 1397   3.703   1.700   0.902
    2MOL1     C 1398   3.444   4.601   3.832
    2MOL1    Cl 1399   3.323   4.718   3.779
    2MOL1     H 1400   3.536   4.617   3.776
    2MOL1     H 1401   3.463   4.615   3.939
    2MOL1     H 1402   3.407   4.500   3.814
    2MOL1     C 1403   1.661   4.758   3.222
    2MOL1    Cl 1404   1.714   4.853   3.361
    2MOL1     H 1405   1.728   4.778   3.138
    2MOL1     H 1406   1.664   4.652   3.248
    2MOL1     H 1407   1.559   4.788   3.195
    2MOL1     C 1408   2.656   0.557   2.617
    2MOL1    Cl 1409   2.492   0.490   2.627
    2MOL1     H 1410   2.650   0.662   2.588
    2MOL1     H 1411   2.704   0.548   2.715
    2MOL1     H 1412   2.712   0.501   2.542
    2MOL1     C 1413   3.337   2.116   4.247
    2MOL1    Cl 1414   3.258   2.274   4.241
    2MOL1     H 1415   3.440   2.129   4.281
    2MOL1     H 1416   3.283   2.051   4.316
    2MOL1     H 1417   3.336   2.073   4.146
    2MOL1     C 1418   2.937   2.426   0.620
    2MOL1    Cl 1419   2.981   2.283   0.526
    2MOL1     H 1420   3.028   2.480   0.648
    2MOL1     H 1421   2.872   2.490   0.560
    2MOL1     H 1422   2.884   2.394   0.711
    2MOL1     C 1423   1.599   0.514   4.954
    2MOL1    Cl 1424   1.711   0.458   5.079
    2MOL1     H 1425   1.543   0.600   4.992
    2MOL1     H 1426   1.656   0.544   4.866
    2MOL1     H 1427   1.531   0.433   4.928
    2MOL1     C 1428   0.729   1.622   1.668
    2MOL1    Cl 1429   0.888   1.547   1.677
    2MOL1     H 1430   0.660   1.568   1.732
    2MOL1     H 1431   0.736   1.726   1.701
    2MOL1     H 1432   0.693   1.619   1.564
    2MOL1     C 1433   4.989   3.145   0.310
    2MOL1    Cl 1434   4.963   3.303   0.235
    2MOL1     H 1435   4.893   3.100   0.333
    2MOL1     H 1436   5.045   3.081   0.242
    2MOL1     H 1437   5.046   3.159   0.403
    2MOL1     C 1438   0.657   1.691   4.031
    2MOL1    Cl 1439   0.482   1.662   4.035
    2MOL1     H 1440   0.681   1.772   4.100
    2MOL1     H 1441   0.709   1.599   4.061
    2MOL1     H 1442   0.686   1.719   3.930
    2MOL1     C 1443   0.945   0.771   0.434
    2MOL1    Cl 1444   1.034   0.726   0.580
    2MOL1     H 1445   0.880   0.689   0.405
    2MOL1     H 1446   0.886   0.860   0.455
    2MOL1     H 1447   1.017   0.792   0.354
    2MOL1     C 1448   3.502   4.904   4.956
    2MOL1    Cl 1449   3.661   4.901   4.879
    2MOL1     H 1450   3.455   4.806   4.946
    2MOL1     H 1451   3.513   4.930   5.061
    2MOL1     H 1452   3.440   4.979   4.906
    2MOL1     C 1453   3.067   3.887   3.636
    2MOL1    Cl 1454   3.146   3.729   3.649
    2MOL1     H 1455   3.063   3.916   3.531
    2MOL1     H 1456   2.966   3.879   3.677
    2MOL1     H 1457   3.125   3.960   3.694
    2MOL1     C 1458   2.825   4.288   3.320
    2MOL1    Cl 1459   2.958   4.361   3.410
    2MOL1     H 1460   2.732   4.299   3.378
    2MOL1     H 1461   2.815   4.338   3.224
    2MOL1     H 1462   2.846   4.182   3.305
    2MOL1     C 1463   3.504   1.320   2.688
    2MOL1    Cl 1464   3.630   1.408   2.776
    2MOL1     H 1465   3.439   1.271   2.760
    2MOL1     H 1466   3.447   1.391   2.628
    2MOL1     H 1467   3.552   1.246   2.624
    2MOL1     C 1468   4.578   2.070   5.185
    2MOL1    Cl 1469   4.575   1.997   5.024
    2MOL1     H 1470   4.559   1.993   5.259
    2MOL1     H 1471   4.675   2.116   5.202
    2MOL1     H 1472   4.499   2.146   5.190
    2MOL1     C 1473   3.185   2.241   0.779
    2MOL1    Cl 1474   3.208   2.129   0.913
    2MOL1     H 1475   3.247   2.329   0.795
    2MOL1     H 1476   3.214   2.191   0.686
    2MOL1     H 1477   3.080   2.270   0.774
    2MOL1     C 1478   4.598   4.820   1.562
    2MOL1    Cl 1479   4.475   4.945   1.582
    2MOL1     H 1480   4.581   4.741   1.637
    2MOL1     H 1481   4.591   4.778   1.462
    2MOL1     H 1482   4.697   4.864   1.577
    2MOL1     C 1483   4.643   0.691   3.264
    2MOL1    Cl 1484   4.756   0.806   3.193
    2MOL1     H 1485   4.594   0.635   3.184
    2MOL1     H 1486   4.698   0.622   3.329
    2MOL1     H 1487   4.569   0.745   3.323
    2MOL1     C 1488   3.573   2.216   0.428
    2MOL1    Cl 1489   3.537   2.089   0.310
    2MOL1     H 1490   3.659   2.185   0.487
    2MOL1     H 1491   3.596   2.308   0.374
    2MOL1     H 1492   3.487   2.230   0.493
    2MOL1     C 1493   1.755   0.136   2.744
    2MOL1    Cl 1494   1.763   0.181   2.574
    2MOL1     H 1495   1.820   0.203   2.802
    2MOL1     H 1496   1.652   0.145   2.779
    2MOL1     H 1497   1.789   0.033   2.755
    2MOL1     C 1498   1.203   4.717   5.106
    2MOL1    Cl 1499   1.088   4.752   5.235
    2MOL1     H 1500   1.282   4.654   5.145
    2MOL1     H 1501   1.151   4.666   5.025
    2MOL1     H 1502   1.244   4.811   5.069
    2MOL1     C 1503   5.154   0.270   4.521
    2MOL1    Cl 1504   4.999   0.257   4.605
    2MOL1     H 1505   5.219   0.188   4.554
    2MOL1     H 1506   5.136   0.263   4.414
    2MOL1     H 1507   5.200   0.366   4.546
    2MOL1     C 1508   4.377   4.874   0.233
    2MOL1    Cl 1509   4.485   5.012   0.215
    2MOL1     H 1510   4.381   4.839   0.336
    2MOL1     H 1511   4.275   4.904   0.208
    2MOL1     H 1512   4.409   4.794   0.166
    2MOL1     C 1513   0.601   2.571   3.949
    2MOL1    Cl 1514   0.776   2.597   3.947
    2MOL1     H 1515   0.569   2.548   4.051
    2MOL1     H 1516   0.551   2.661   3.913
    2MOL1     H 1517   0.577   2.486   3.883
    2MOL1     C 1518   4.099   1.309   1.631
    2MOL1    Cl 1519   4.097   1.357   1.801
    2MOL1     H 1520   4.190   1.348   1.585
    2MOL1     H 1521   4.097   1.200   1.625
    2MOL1     H 1522   4.011   1.351   1.581
    2MOL1     C 1523   1.430   4.966   0.364
    2MOL1    Cl 1524   1.386   4.832   0.471
    2MOL1     H 1525   1.500   5.032   0.417
    2MOL1     H 1526   1.477   4.926   0.274
    2MOL1     H 1527   1.340   5.022   0.338
    2MOL1     C 1528   3.341   1.104   3.987
    2MOL1    Cl 1529   3.207   0.988   3.985
    2MOL1     H 1530   3.411   1.078   3.908
    2MOL1     H 1531   3.301   1.204   3.971
    2MOL1     H 1532   3.390   1.099   4.084
    2MOL1     C 1533   4.673   3.539   3.717
    2MOL1    Cl 1534   4.509   3.603   3.705
    2MOL1     H 1535   4.668   3.431   3.733
    2MOL1     H 1536   4.726   3.561   3.624
    2MOL1     H 1537   4.724   3.587   3.801
    2MOL1     C 1538   1.336   0.861   0.597
    2MOL1    Cl 1539   1.479   0.892   0.498
    2MOL1     H 1540   1.365   0.800   0.683
    2MOL1     H 1541   1.294   0.956   0.630
    2MOL1     H 1542   1.262   0.807   0.536
    2MOL1     C 1543   1.213   2.006   1.113
    2MOL1    Cl 1544   1.244   2.016   0.939
    2MOL1     H 1545   1.125   1.944   1.130
    2MOL1     H 1546   1.300   1.962   1.162
    2MOL1     H 1547   1.195   2.107   1.152
    2MOL1     C 1548   3.449   3.078   2.404
    2MOL1    Cl 1549   3.416   3.050   2.575
    2MOL1     H 1550   3.393   3.165   2.370
    2MOL1     H 1551   3.556   3.095   2.391
    2MOL1     H 1552   3.419   2.989   2.347
    2MOL1     C 1553   3.240   3.569   2.836
    2MOL1    Cl 1554   3.317   3.496   2.977
    2MOL1     H 1555   3.146   3.518   2.816
    2MOL1     H 1556   3.222   3.675   2.855
    2MOL1     H 1557   3.307   3.557   2.749
    2MOL1     C 1558   1.306   1.152   0.319
    2MOL1    Cl 1559   1.365   1.205   0.161
    2MOL1     H 1560   1.221   1.085   0.305
    2MOL1     H 1561   1.387   1.098   0.370
    2MOL1     H 1562   1.276   1.239   0.378
    2MOL1     C 1563   3.055   0.230   0.871
    2MOL1    Cl 1564   3.099   0.097   0.763
    2MOL1     H 1565   2.987   0.193   0.947
    2MOL1     H 1566   3.146   0.269   0.918
    2MOL1     H 1567   3.006   0.309   0.813
    2MOL1     C 1568   1.928   3.390   1.026
    2MOL1    Cl 1569   2.089   3.458   1.053
    2MOL1     H 1570   1.872   3.393   1.120
    2MOL1     H 1571   1.877   3.449   0.950
    2MOL1     H 1572   1.938   3.286   0.992
    2MOL1     C 1573   2.971   3.812   1.990
    2MOL1    Cl 1574   2.919   3.646   2.020
    2MOL1     H 1575   3.001   3.858   2.084
    2MOL1     H 1576   3.056   3.811   1.921
    2MOL1     H 1577   2.888   3.869   1.946
    2MOL1     C 1578   4.679   0.496   4.150
    2MOL1    Cl 1579   4.782   0.626   4.211
    2MOL1     H 1580   4.720   0.400   4.183
    2MOL1     H 1581   4.578   0.509   4.189
    2MOL1     H 1582   4.677   0.499   4.041
    2MOL1     C 1583   4.691   3.036   4.805
    2MOL1    Cl 1584   4.557   2.924   4.836
    2MOL1     H 1585   4.766   3.025   4.884
    2MOL1     H 1586   4.735   3.012   4.708
    2MOL1     H 1587   4.652   3.138   4.805
    2MOL1     C 1588   1.076   4.672   2.375
    2MOL1    Cl 1589   1.206   4.557   2.346
    2MOL1     H 1590   1.119   4.770   2.399
    2MOL1     H 1591   1.014   4.680   2.285
    2MOL1     H 1592   1.015   4.637   2.459
    2MOL1     C 1593   5.142   0.221   0.340
    2MOL1    Cl 1594   5.281   0.114   0.319
    2MOL1     H 1595   5.116   0.266   0.243
    2MOL1     H 1596   5.057   0.162   0.377
    2MOL1     H 1597   5.167   0.299   0.411
    2MOL1     C 1598   4.575   0.468   3.656
    2MOL1    Cl 1599   4.703   0.503   3.772
    2MOL1     H 1600   4.589   0.530   3.567
    2MOL1     H 1601   4.580   0.362   3.628
    2MOL1     H 1602   4.478   0.490   3.701
    2MOL1     C 1603   3.617   5.123   4.481
    2MOL1    Cl 1604   3.660   5.143   4.311
    2MOL1     H 1605   3.706   5.138   4.543
    2MOL1     H 1606   3.541   5.197   4.508
    2MOL1     H 1607   3.578   5.022   4.497
    2MOL1     C 1608   1.429   1.864   1.558
    2MOL1    Cl 1609   1.342   1.982   1.657
    2MOL1     H 1610   1.393   1.871   1.455
    2MOL1     H 1611   1.536   1.886   1.562
    2MOL1     H 1612   1.409   1.764   1.597
    2MOL1     C 1613   5.259   0.264   1.446
    2MOL1    Cl 1614   5.338   0.108   1.418
    2MOL1     H 1615   5.224   0.303   1.350
    2MOL1     H 1616   5.174   0.250   1.513
    2MOL1     H 1617   5.331   0.333   1.490
    2MOL1     C 1618   3.304   1.802   2.750
    2MOL1    Cl 1619   3.453   1.815   2.844
    2MOL1     H 1620   3.227   1.863   2.798
    2MOL1     H 1621   3.322   1.837   2.649
    2MOL1     H 1622   3.272   1.698   2.749
    2MOL1     C 1623   3.634   0.404   0.516
    2MOL1    Cl 1624   3.485   0.361   0.430
    2MOL1     H 1625   3.720   0.369   0.458
    2MOL1     H 1626   3.638   0.513   0.526
    2MOL1     H 1627   3.633   0.357   0.614
    2MOL1     C 1628   0.699   1.368   1.983
    2MOL1    Cl 1629   0.762   1.343   2.147
    2MOL1     H 1630   0.592   1.346   1.983
    2MOL1     H 1631   0.716   1.471   1.954
    2MOL1     H 1632   0.751   1.300   1.915
    2MOL1     C 1633   2.788   3.798   1.368
    2MOL1    Cl 1634   2.758   3.941   1.467
    2MOL1     H 1635   2.757   3.709   1.423
    2MOL1     H 1636   2.732   3.806   1.275
    2MOL1     H 1637   2.895   3.792   1.346
    2MOL1     C 1638   2.408   2.572   4.397
    2MOL1    Cl 1639   2.288   2.460   4.462
    2MOL1     H 1640   2.499   2.565   4.456
    2MOL1     H 1641   2.428   2.546   4.293
    2MOL1     H 1642   2.368   2.674   4.403
    2MOL1     C 1643   0.864   2.362   1.158
    2MOL1    Cl 1644   0.911   2.442   1.309
    2MOL1     H 1645   0.778   2.414   1.116
    2MOL1     H 1646   0.948   2.366   1.088
    2MOL1     H 1647   0.838   2.258   1.179
    2MOL1     C 1648   2.595   0.477   1.657
    2MOL1    Cl 1649   2.585   0.362   1.524
    2MOL1     H 1650   2.597   0.422   1.752
    2MOL1     H 1651   2.686   0.536   1.647
    2MOL1     H 1652   2.507   0.542   1.655
    2MOL1     C 1653   2.455   3.586   0.110
    2MOL1    Cl 1654   2.359   3.675   0.229
    2MOL1     H 1655   2.429   3.480   0.115
    2MOL1     H 1656   2.434   3.625   0.011
    2MOL1     H 1657   2.561   3.599   0.134
    2MOL1     C 1658   0.132   3.434   4.989
    2MOL1    Cl 1659   0.174   3.601   4.951
    2MOL1     H 1660   0.146   3.373   4.900
    2MOL1     H 1661   0.198   3.398   5.069
    2MOL1     H 1662   0.028   3.430   5.022
    2MOL1     C 1663   3.898   1.849   1.747
    2MOL1    Cl 1664   4.065   1.907   1.754
    2MOL1     H 1665   3.837   1.907   1.816
    2MOL1     H 1666   3.860   1.861   1.645
    2MOL1     H 1667   3.896   1.743   1.775
    2MOL1     C 1668   2.221   2.819   2.749
    2MOL1    Cl 1669   2.191   2.645   2.760
    2MOL1     H 1670   2.223   2.848   2.644
    2MOL1     H 1671   2.140   2.872   2.801
    2MOL1     H 1672   2.317   2.842   2.796
    2MOL1     C 1673   4.519   2.815   0.640
    2MOL1    Cl 1674   4.572   2.697   0.761
    2MOL1     H 1675   4.503   2.912   0.689
    2MOL1     H 1676   4.596   2.825   0.563
    2MOL1     H 1677   4.426   2.780   0.596
    2MOL1     C 1678   5.121   4.269   1.759
    2MOL1    Cl 1679   5.274   4.238   1.677
    2MOL1     H 1680   5.041   4.274   1.684
    2MOL1     H 1681   5.101   4.189   1.830
    2MOL1     H 1682   5.127   4.365   1.811
    2MOL1     C 1683   3.316   1.684   3.759
    2MOL1    Cl 1684   3.323   1.818   3.874
    2MOL1     H 1685   3.373   1.599   3.799
    2MOL1     H 1686   3.212   1.655   3.743
    2MOL1     H 1687   3.361   1.716   3.664
    2MOL1     C 1688   0.932   3.783   2.410
    2MOL1    Cl 1689   0.786   3.755   2.506
    2MOL1     H 1690   1.015   3.729   2.455
    2MOL1     H 1691   0.915   3.748   2.308
    2MOL1     H 1692   0.954   3.890   2.409
    2MOL1     C 1693   3.030   4.146   2.310
    2MOL1    Cl 1694   2.960   4.047   2.438
    2MOL1     H 1695   3.133   4.113   2.291
    2MOL1     H 1696   2.971   4.135   2.219
    2MOL1     H 1697   3.030   4.251   2.342
    2MOL1     C 1698   1.322   3.067   2.347
    2MOL1    Cl 1699   1.228   2.918   2.358
    2MOL1     H 1700   1.293   3.134   2.428
    2MOL1     H 1701   1.428   3.043   2.354
    2MOL1     H 1702   1.301   3.115   2.251
    2MOL1     C 1703   4.620   0.152   5.180
    2MOL1    Cl 1704   4.666   0.060   5.323
    2MOL1     H 1705   4.584   0.250   5.210
    2MOL1     H 1706   4.707   0.162   5.114
    2MOL1     H 1707   4.540   0.098   5.127
    2MOL1     C 1708   4.169   4.965   2.423
    2MOL1    Cl 1709   4.327   4.963   2.342
    2MOL1     H 1710   4.092   4.940   2.350
    2MOL1     H 1711   4.170   4.891   2.503
    2MOL1     H 1712   4.151   5.064   2.464
    2MOL1     C 1713   1.427   5.028   3.133
    2MOL1    Cl 1714   1.541   5.030   2.998
    2MOL1     H 1715   1.483   5.043   3.226
    2MOL1     H 1716   1.355   5.109   3.120
    2MOL1     H 1717   1.376   4.932   3.136
    2MOL1     C 1718   3.429   5.001   3.777
    2MOL1    Cl 1719   3.530   4.866   3.724
    2MOL1     H 1720   3.462   5.034   3.876
    2MOL1     H 1721   3.437   5.083   3.706
    2MOL1     H 1722   3.325   4.967   3.783
    2MOL1     C 1723   3.654   2.199   4.883
    2MOL1    Cl 1724   3.544   2.096   4.976
    2MOL1     H 1725   3.724   2.248   4.952
    2MOL1     H 1726   3.710   2.137   4.812
    2MOL1     H 1727   3.596   2.274   4.830
    2MOL1     C 1728   4.850   4.266   2.528
    2MOL1    Cl 1729   4.744   4.239   2.667
    2MOL1     H 1730   4.847   4.178   2.463
    2MOL1     H 1731   4.815   4.354   2.473
    2MOL1     H 1732   4.952   4.283   2.564
    2MOL1     C 1733   5.062   3.095   2.499
    2MOL1    Cl 1734   4.917   3.045   2.586
    2MOL1     H 1735   5.145   3.104   2.570
    2MOL1     H 1736   5.086   3.020   2.423
    2MOL1     H 1737   5.044   3.192   2.451
    2MOL1     C 1738   1.387   2.313   0.918
    2MOL1    Cl 1739   1.509   2.408   0.833
    2MOL1     H 1740   1.334   2.249   0.847
    2MOL1     H 1741   1.436   2.251   0.993
    2MOL1     H 1742   1.316   2.381   0.967
    2MOL1     C 1743   1.107   1.965   4.083
    2MOL1    Cl 1744   1.122   2.100   4.196
    2MOL1     H 1745   1.183   1.975   4.005
    2MOL1     H 1746   1.120   1.871   4.137
    2MOL1     H 1747   1.007   1.968   4.038
    2MOL1     C 1748   4.080   3.625   1.317
    2MOL1    Cl 1749   3.963   3.536   1.415
    2MOL1     H 1750   4.032   3.658   1.225
    2MOL1     H 1751   4.116   3.711   1.373
    2MOL1     H 1752   4.164   3.559   1.293
    2MOL1     C 1753   0.241   5.175   2.126
    2MOL1    Cl 1754   0.093   5.216   2.212
    2MOL1     H 1755   0.313   5.132   2.197
    2MOL1     H 1756   0.219   5.102   2.048
    2MOL1     H 1757   0.283   5.265   2.081
    2MOL1     C 1758   1.317   2.544   1.740
    2MOL1    Cl 1759   1.236   2.420   1.836
    2MOL1     H 1760   1.415   2.564   1.783
    2MOL1     H 1761   1.329   2.508   1.637
    2MOL1     H 1762   1.257   2.635   1.740
    2MOL1     C 1763   0.825   2.354   4.116
    2MOL1    Cl 1764   0.821   2.246   3.976
    2MOL1     H 1765   0.888   2.309   4.193
    2MOL1     H 1766   0.865   2.451   4.086
    2MOL1     H 1767   0.723   2.366   4.155
    2MOL1     C 1768   1.075   0.880   5.202
    2MOL1    Cl 1769   1.210   0.993   5.218
    2MOL1     H 1770   1.026   0.870   5.299
    2MOL1     H 1771   1.004   0.919   5.128
    2MOL1     H 1772   1.113   0.783   5.170
    2MOL1     C 1773   3.706   2.957   1.020
    2MOL1    Cl 1774   3.702   2.870   0.866
    2MOL1     H 1775   3.687   3.063   1.001
    2MOL1     H 1776   3.629   2.917   1.086
    2MOL1     H 1777   3.805   2.944   1.065
    2MOL1     C 1778   3.690   5.020   3.027
    2MOL1    Cl 1779   3.635   4.871   2.949
    2MOL1     H 1780   3.718   5.092   2.950
    2MOL1     H 1781   3.608   5.061   3.087
    2MOL1     H 1782   3.775   4.998   3.090
    2MOL1     C 1783   4.632   3.188   5.181
    2MOL1    Cl 1784   4.755   3.228   5.301
    2MOL1     H 1785   4.535   3.179   5.231
    2MOL1     H 1786   4.627   3.268   5.107
    2MOL1     H 1787   4.658   3.094   5.133
    2MOL1     C 1788   4.466   2.822   2.963
    2MOL1    Cl 1789   4.505   2.918   3.107
    2MOL1     H 1790   4.368   2.777   2.976
    2MOL1     H 1791   4.466   2.888   2.876
    2MOL1     H 1792   4.542   2.744   2.950
    2MOL1     C 1793   2.344   4.530   3.521
    2MOL1    Cl 1794   2.379   4.383   3.613
    2MOL1     H 1795   2.370   4.617   3.582
    2MOL1     H 1796   2.403   4.529   3.429
    2MOL1     H 1797   2.238   4.532   3.497
    2MOL1     C 1798   3.561   2.266   0.913
    2MOL1    Cl 1799   3.451   2.181   0.804
    2MOL1     H 1800   3.566   2.371   0.883
    2MOL1     H 1801   3.524   2.258   1.015
    2MOL1     H 1802   3.660   2.221   0.906
    2MOL1     C 1803   2.232   2.094   2.585
    2MOL1    Cl 1804   2.236   2.266   2.546
    2MOL1     H 1805   2.283   2.038   2.507
    2MOL1     H 1806   2.282   2.078   2.681
    2MOL1     H 1807   2.128   2.061   2.592
    2MOL1     C 1808   2.965   2.948   3.478
    2MOL1    Cl 1809   2.915   2.848   3.616
    2MOL1     H 1810   2.878   2.967   3.415
    2MOL1     H 1811   3.006   3.042   3.515
    2MOL1     H 1812   3.041   2.894   3.421
    2MOL1     C 1813   5.025   1.898   1.668
    2MOL1    Cl 1814   5.031   1.943   1.839
    2MOL1     H 1815   4.970   1.804   1.658
    2MOL1     H 1816   4.974   1.977   1.612
    2MOL1     H 1817   5.127   1.886   1.630
    2MOL1     C 1818   1.637   1.347   3.603
    2MOL1    Cl 1819   1.682   1.517   3.626
    2MOL1     H 1820   1.700   1.285   3.667
    2MOL1     H 1821   1.532   1.334   3.631
    2MOL1     H 1822   1.651   1.320   3.499
    2MOL1     C 1823   3.445   4.198   2.245
    2MOL1    Cl 1824   3.352   4.154   2.101
    2MOL1     H 1825   3.391   4.275   2.300
    2MOL1     H 1826   3.458   4.110   2.308
    2MOL1     H 1827   3.543   4.236   2.214
    2MOL1     C 1828   2.067   3.582   0.445
    2MOL1    Cl 1829   2.044   3.561   0.619
    2MOL1     H 1830   2.090   3.687   0.424
    2MOL1     H 1831   2.149   3.518   0.411
    2MOL1     H 1832   1.974   3.554   0.393
    2MOL1     C 1833   4.667   2.126   3.249
    2MOL1    Cl 1834   4.539   2.192   3.350
    2MOL1     H 1835   4.629   2.112   3.147
    2MOL1     H 1836   4.751   2.196   3.248
    2MOL1     H 1837   4.699   2.030   3.290
    2MOL1     C 1838   2.344   3.929   1.434
    2MOL1    Cl 1839   2.485   3.885   1.337
    2MOL1     H 1840   2.255   3.882   1.391
    2MOL1     H 1841   2.359   3.893   1.537
    2MOL1     H 1842   2.333   4.037   1.434
    2MOL1     C 1843   1.053   4.945   4.814
    2MOL1    Cl 1844   0.966   4.794   4.839
    2MOL1     H 1845   1.029   5.014   4.895
    2MOL1     H 1846   1.160   4.925   4.814
    2MOL1     H 1847   1.023   4.989   4.718
    2MOL1     C 1848   3.626   3.205   3.738
    2MOL1    Cl 1849   3.747   3.154   3.620
    2MOL1     H 1850   3.532   3.223   3.687
    2MOL1     H 1851   3.613   3.125   3.812
    2MOL1     H 1852   3.660   3.296   3.787
    2MOL1     C 1853   3.781   3.851   1.204
    2MOL1    Cl 1854   3.791   3.697   1.289
    2MOL1     H 1855   3.812   3.931   1.271
    2MOL1     H 1856   3.847   3.848   1.117
    2MOL1     H 1857   3.678   3.868   1.172
    2MOL1     C 1858   2.493   1.262   3.972
    2MOL1    Cl 1859   2.411   1.130   3.888
    2MOL1     H 1860   2.511   1.343   3.902
    2MOL1     H 1861   2.430   1.296   4.054
    2MOL1     H 1862   2.588   1.225   4.012
    2MOL1     C 1863   2.131   3.604   4.878
    2MOL1    Cl 1864   2.104   3.778   4.897
    2MOL1     H 1865   2.227   3.578   4.921
    2MOL1     H 1866   2.051   3.550   4.930
    2MOL1     H 1867   2.130   3.580   4.772
    2MOL1     C 1868   4.349   3.815   3.147
    2MOL1    Cl 1869   4.448   3.795   3.291
    2MOL1     H 1870   4.251   3.855   3.176
    2MOL1     H 1871   4.398   3.884   3.078
    2MOL1     H 1872   4.336   3.718   3.099
    2MOL1     C 1873   2.471   5.222   4.760
    2MOL1    Cl 1874   2.324   5.319   4.769
    2MOL1     H 1875   2.523   5.245   4.666
    2MOL1     H 1876   2.536   5.247   4.845
    2MOL1     H 1877   2.445   5.116   4.763
    2MOL1     C 1878   3.080   1.563   5.017
    2MOL1    Cl 1879   3.159   1.715   4.972
    2MOL1     H 1880   2.973   1.571   4.997
    2MOL1     H 1881   3.123   1.482   4.958
    2MOL1     H 1882   3.097   1.545   5.124
    2MOL1     C 1883   0.616   0.608   4.124
    2MOL1    Cl 1884   0.766   0.581   4.035
    2MOL1     H 1885   0.536   0.551   4.076
    2MOL1     H 1886   0.629   0.575   4.227
    2MOL1     H 1887   0.592   0.715   4.121
    2MOL1     C 1888   3.562   0.921   1.994
    2MOL1    Cl 1889   3.632   0.759   2.002
    2MOL1     H 1890   3.586   0.975   2.086
    2MOL1     H 1891   3.604   0.975   1.908
    2MOL1     H 1892   3.454   0.913   1.983
    2MOL1     C 1893   2.855   0.103   2.550
    2MOL1    Cl 1894   2.703   0.165   2.484
    2MOL1     H 1895   2.926   0.089   2.468
    2MOL1     H 1896   2.895   0.174   2.622
    2MOL1     H 1897   2.836   0.007   2.599
    2MOL1     C 1898   2.691   4.601   2.507
    2MOL1    Cl 1899   2.764   4.473   2.409
    2MOL1     H 1900   2.586   4.577   2.525
    2MOL1     H 1901   2.745   4.609   2.601
    2MOL1     H 1902   2.699   4.696   2.452
    2MOL1     C 1903   0.892   0.995   2.180
    2MOL1    Cl 1904   0.748   1.089   2.139
    2MOL1     H 1905   0.928   0.943   2.091
    2MOL1     H 1906   0.970   1.063   2.216
    2MOL1     H 1907   0.867   0.923   2.258
    2MOL1     C 1908   2.378   4.350   3.203
    2MOL1    Cl 1909   2.428   4.216   3.098
    2MOL1     H 1910   2.336   4.430   3.141
    2MOL1     H 1911   2.304   4.314   3.274
    2MOL1     H 1912   2.466   4.387   3.256
    2MOL1     C 1913   4.268   1.828   4.819
    2MOL1    Cl 1914   4.252   1.966   4.710
    2MOL1     H 1915   4.221   1.740   4.773
    2MOL1     H 1916   4.374   1.808   4.836
    2MOL1     H 1917   4.218   1.851   4.914
    2MOL1     C 1918   0.284   0.525   0.318
    2MOL1    Cl 1919   0.405   0.456   0.210
    2MOL1     H 1920   0.334   0.566   0.406
    2MOL1     H 1921   0.229   0.603   0.266
    2MOL1     H 1922   0.215   0.446   0.349
    2MOL1     C 1923   3.947   3.877   5.175
    2MOL1    Cl 1924   3.787   3.832   5.235
    2MOL1     H 1925   4.022   3.814   5.222
    2MOL1     H 1926   3.949   3.863   5.066
    2MOL1     H 1927   3.965   3.982   5.199
    2MOL1     C 1928   1.963   2.406   2.776
    2MOL1    Cl 1929   2.099   2.456   2.878
    2MOL1     H 1930   1.943   2.485   2.704
    2MOL1     H 1931   1.990   2.314   2.724
    2MOL1     H 1932   1.876   2.390   2.839
    2MOL1     C 1933   2.131   4.160   1.553
    2MOL1    Cl 1934   2.278   4.108   1.636
    2MOL1     H 1935   2.134   4.269   1.540
    2MOL1     H 1936   2.126   4.112   1.455
    2MOL1     H 1937   2.044   4.132   1.612
    2MOL1     C 1938   4.094   3.598   1.894
    2MOL1    Cl 1939   4.013   3.584   2.051
    2MOL1     H 1940   4.111   3.704   1.872
    2MOL1     H 1941   4.190   3.545   1.898
    2MOL1     H 1942   4.030   3.554   1.817
    2MOL1     C 1943   2.591   4.636   0.544
    2MOL1    Cl 1944   2.685   4.764   0.623
    2MOL1     H 1945   2.523   4.592   0.617
    2MOL1     H 1946   2.534   4.679   0.462
    2MOL1     H 1947   2.659   4.559   0.507
    2MOL1     C 1948   2.788   2.397   4.740
    2MOL1    Cl 1949   2.659   2.515   4.713
    2MOL1     H 1950   2.856   2.398   4.655
    2MOL1     H 1951   2.843   2.424   4.831
    2MOL1     H 1952   2.744   2.298   4.752
    2MOL1     C 1953   1.545   3.345   2.676
    2MOL1    Cl 1954   1.410   3.403   2.774
    2MOL1     H 1955   1.600   3.269   2.732
    2MOL1     H 1956   1.507   3.303   2.583
    2MOL1     H 1957   1.612   3.429   2.653
    2MOL1     C 1958   0.641   4.202   4.960
    2MOL1    Cl 1959   0.636   4.267   4.796
    2MOL1     H 1960   0.737   4.151   4.975
    2MOL1     H 1961   0.632   4.284   5.031
    2MOL1     H 1962   0.559   4.131   4.973
    2MOL1     C 1963   0.234   2.393   1.844
    2MOL1    Cl 1964   0.262   2.266   1.724
    2MOL1     H 1965   0.175   2.473   1.798
    2MOL1     H 1966   0.179   2.351   1.928
    2MOL1     H 1967   0.330   2.433   1.878
    2MOL1     C 1968   4.506   0.841   4.173
    2MOL1    Cl 1969   4.387   0.971   4.186
    2MOL1     H 1970   4.496   0.774   4.258
    2MOL1     H 1971   4.488   0.786   4.080
    2MOL1     H 1972   4.606   0.884   4.172
    2MOL1     C 1973   4.020   1.112   0.419
    2MOL1    Cl 1974   3.899   1.197   0.517
    2MOL1     H 1975   4.061   1.029   0.477
    2MOL1     H 1976   3.973   1.075   0.328
    2MOL1     H 1977   4.100   1.182   0.394
    2MOL1     C 1978   2.012   1.796   3.959
    2MOL1    Cl 1979   1.857   1.848   3.894
    2MOL1     H 1980   2.092   1.824   3.890
    2MOL1     H 1981   2.029   1.845   4.056
    2MOL1     H 1982   2.011   1.688   3.973
    2MOL1     C 1983   0.196   1.875   2.041
    2MOL1    Cl 1984   0.330   1.830   2.147
    2MOL1     H 1985   0.114   1.914   2.102
    2MOL1     H 1986   0.230   1.951   1.971
    2MOL1     H 1987   0.163   1.786   1.987
    2MOL1     C 1988   1.647   0.597   3.429
    2MOL1    Cl 1989   1.774   0.526   3.531
    2MOL1     H 1990   1.598   0.677   3.484
    2MOL1     H 1991   1.693   0.636   3.338
    2MOL1     H 1992   1.575   0.519   3.404
    2MOL1     C 1993   2.288   4.244   1.208
    2MOL1    Cl 1994   2.125   4.310   1.216
    2MOL1     H 1995   2.285   4.146   1.159
    2MOL1     H 1996   2.352   4.312   1.152
    2MOL1     H 1997   2.327   4.232   1.310
    2MOL1     C 1998   3.449   1.791   4.392
    2MOL1    Cl 1999   3.489   1.646   4.300
    2MOL1     H 2000   3.382   1.854   4.334
    2MOL1     H 2001   3.401   1.762   4.486
    2MOL1     H 2002   3.542   1.846   4.414
    2MOL1     C 2003   2.219   3.784   4.207
    2MOL1    Cl 2004   2.070   3.876   4.226
    2MOL1     H 2005   2.286   3.805   4.291
    2MOL1     H 2006   2.195   3.677   4.204
    2MOL1     H 2007   2.267   3.813   4.113
    2MOL1     C 2008   3.177   0.960   4.966
    2MOL1    Cl 2009   3.072   1.089   5.027
    2MOL1     H 2010   3.158   0.869   5.023
    2MOL1     H 2011   3.155   0.944   4.861
    2MOL1     H 2012   3.281   0.990   4.979
    2MOL1     C 2013   3.143   2.841   2.441
    2MOL1    Cl 2014   2.982   2.836   2.366
    2MOL1     H 2015   3.208   2.903   2.379
    2MOL1     H 2016   3.134   2.885   2.540
    2MOL1     H 2017   3.183   2.740   2.447
    2MOL1     C 2018   4.733   4.249   0.880
    2MOL1    Cl 2019   4.783   4.204   1.043
    2MOL1     H 2020   4.780   4.345   0.854
    2MOL1     H 2021   4.766   4.172   0.810
    2MOL1     H 2022   4.624   4.259   0.877
    2MOL1     C 2023   2.124   2.872   4.469
    2MOL1    Cl 2024   2.153   2.711   4.535
    2MOL1     H 2025   2.204   2.938   4.500
    2MOL1     H 2026   2.122   2.865   4.360
    2MOL1     H 2027   2.028   2.909   4.505
    2MOL1     C 2028   2.505   4.215   4.417
    2MOL1    Cl 2029   2.595   4.076   4.355
    2MOL1     H 2030   2.532   4.231   4.521
    2MOL1     H 2031   2.532   4.304   4.358
    2MOL1     H 2032   2.398   4.196   4.408
    2MOL1     C 2033   4.426   5.175   2.628
    2MOL1    Cl 2034   4.413   5.035   2.735
    2MOL1     H 2035   4.446   5.264   2.688
    2MOL1     H 2036   4.507   5.159   2.557
    2MOL1     H 2037   4.331   5.188   2.574
    2MOL1     C 2038   1.849   3.698   2.088
    2MOL1    Cl 2039   1.706   3.656   2.183
    2MOL1     H 2040   1.939   3.680   2.147
    2MOL1     H 2041   1.851   3.636   1.998
    2MOL1     H 2042   1.844   3.804   2.060
    2MOL1     C 2043   3.492   0.809   1.005
    2MOL1    Cl 2044   3.559   0.650   0.965
    2MOL1     H 2045   3.390   0.796   1.044
    2MOL1     H 2046   3.555   0.856   1.081
    2MOL1     H 2047   3.490   0.870   0.915
    2MOL1     C 2048   0.306   3.773   3.017
    2MOL1    Cl 2049   0.380   3.863   3.150
    2MOL1     H 2050   0.286   3.671   3.049
    2MOL1     H 2051   0.212   3.822   2.989
    2MOL1     H 2052   0.374   3.772   2.931
    2MOL1     C 2053   3.003   2.707   4.848
    2MOL1    Cl 2054   2.932   2.648   4.697
    2MOL1     H 2055   2.952   2.659   4.932
    2MOL1     H 2056   3.109   2.682   4.849
    2MOL1     H 2057   2.990   2.816   4.854
    2MOL1     C 2058   2.276   0.658   0.681
    2MOL1    Cl 2059   2.136   0.611   0.583
    2MOL1     H 2060   2.335   0.731   0.626
    2MOL1     H 2061   2.240   0.702   0.775
    2MOL1     H 2062   2.336   0.569   0.702
    2MOL1     C 2063   2.944   0.317   2.232
    2MOL1    Cl 2064   2.768   0.321   2.249
    2MOL1     H 2065   2.976   0.213   2.221
    2MOL1     H 2066   2.973   0.374   2.144
    2MOL1     H 2067   2.990   0.360   2.321
    2MOL1     C 2068   1.808   3.562   4.692
    2MOL1    Cl 2069   1.724   3.676   4.799
    2MOL1     H 2070   1.735   3.494   4.648
    2MOL1     H 2071   1.859   3.618   4.613
    2MOL1     H 2072   1.882   3.506   4.751
    2MOL1     C 2073   0.795   2.915   0.438
    2MOL1    Cl 2074   0.699   2.791   0.357
    2MOL1     H 2075   0.770   3.013   0.396
    2MOL1     H 2076   0.772   2.914   0.545
    2MOL1     H 2077   0.901   2.894   0.423
    2MOL1     C 2078   2.997   0.222   3.424
    2MOL1    Cl 2079   2.947   0.058   3.381
    2MOL1     H 2080   3.082   0.216   3.492
    2MOL1     H 2081   3.025   0.275   3.333
    2MOL1     H 2082   2.914   0.272   3.473
    2MOL1     C 2083   2.128   3.037   1.118
    2MOL1    Cl 2084   2.024   3.018   1.259
    2MOL1     H 2085   2.182   3.132   1.125
    2MOL1     H 2086   2.199   2.954   1.114
    2MOL1     H 2087   2.066   3.037   1.027
    2MOL1     C 2088   3.120   5.169   4.029
    2MOL1    Cl 2089   3.291   5.128   4.046
    2MOL1     H 2090   3.060   5.096   4.085
    2MOL1     H 2091   3.103   5.269   4.069
    2MOL1     H 2092   3.093   5.166   3.924
    2MOL1     C 2093   0.243   0.360   4.189
    2MOL1    Cl 2094   0.082   0.298   4.149
    2MOL1     H 2095   0.249   0.376   4.297
    2MOL1     H 2096   0.318   0.287   4.158
    2MOL1     H 2097   0.259   0.454   4.136
    2MOL1     C 2098   2.436   2.598   3.996
    2MOL1    Cl 2099   2.344   2.694   3.879
    2MOL1     H 2100   2.503   2.530   3.942
    2MOL1     H 2101   2.495   2.665   4.059
    2MOL1     H 2102   2.367   2.540   4.058
    2MOL1     C 2103   0.918   1.560   0.232
    2MOL1    Cl 2104   0.994   1.473   0.366
    2MOL1     H 2105   0.992   1.625   0.185
    2MOL1     H 2106   0.882   1.487   0.159
    2MOL1     H 2107   0.835   1.619   0.270
    2MOL1     C 2108   4.690   2.981   1.930
    2MOL1    Cl 2109   4.577   3.110   1.971
    2MOL1     H 2110   4.730   2.939   2.022
    2MOL1     H 2111   4.637   2.904   1.874
    2MOL1     H 2112   4.771   3.022   1.870
    2MOL1     C 2113   3.108   3.250   0.575
    2MOL1    Cl 2114   3.281   3.260   0.610
    2MOL1     H 2115   3.052   3.298   0.656
    2MOL1     H 2116   3.087   3.300   0.480
    2MOL1     H 2117   3.079   3.144   0.567
    2MOL1     C 2118   2.588   4.910   1.557
    2MOL1    Cl 2119   2.619   4.737   1.576
    2MOL1     H 2120   2.529   4.926   1.466
    2MOL1     H 2121   2.533   4.946   1.644
    2MOL1     H 2122   2.683   4.963   1.549
    2MOL1     C 2123   2.671   4.082   4.849
    2MOL1    Cl 2124   2.498   4.116   4.850
    2MOL1     H 2125   2.687   3.981   4.812
    2MOL1     H 2126   2.721   4.154   4.784
    2MOL1     H 2127   2.710   4.091   4.951
    2MOL1     C 2128   4.007   4.014   2.788
    2MOL1    Cl 2129   4.059   4.033   2.620
    2MOL1     H 2130   4.094   3.996   2.851
    2MOL1     H 2131   3.956   4.105   2.820
    2MOL1     H 2132   3.938   3.929   2.794
    2MOL1     C 2133   2.342   1.534   2.493
    2MOL1    Cl 2134   2.230   1.645   2.414
    2MOL1     H 2135   2.381   1.581   2.584
    2MOL1     H 2136   2.289   1.442   2.520
    2MOL1     H 2137   2.424   1.511   2.425
    2MOL1     C 2138   4.926   2.353   0.625
    2MOL1    Cl 2139   4.903   2.527   0.647
    2MOL1     H 2140   4.847   2.300   0.679
    2MOL1     H 2141   4.921   2.329   0.519
    2MOL1     H 2142   5.024   2.325   0.665
    2MOL1     C 2143   4.254   0.589   3.253
    2MOL1    Cl 2144   4.123   0.531   3.151
    2MOL1     H 2145   4.302   0.675   3.204
    2MOL1     H 2146   4.214   0.620   3.350
    2MOL1     H 2147   4.327   0.509   3.267
    2MOL1     C 2148   4.821   2.357   0.181
    2MOL1    Cl 2149   4.884   2.441   0.040
    2MOL1     H 2150   4.728   2.306   0.154
    2MOL1     H 2151   4.894   2.283   0.214
    2MOL1     H 2152   4.802   2.429   0.260
    2MOL1     C 2153   0.701   3.597   5.268
    2MOL1    Cl 2154   0.730   3.540   5.103
    2MOL1     H 2155   0.729   3.702   5.275
    2MOL1     H 2156   0.595   3.585   5.292
    2MOL1     H 2157   0.761   3.537   5.337
    2MOL1     C 2158   3.375   1.188   1.063
    2MOL1    Cl 2159   3.512   1.262   1.146
    2MOL1     H 2160   3.283   1.218   1.113
    2MOL1     H 2161   3.373   1.220   0.959
    2MOL1     H 2162   3.385   1.079   1.068
    2MOL1     C 2163   2.756   4.453   4.690
    2MOL1    Cl 2164   2.646   4.489   4.556
    2MOL1     H 2165   2.818   4.368   4.663
    2MOL1     H 2166   2.818   4.540   4.709
    2MOL1     H 2167   2.697   4.429   4.779
    2MOL1     C 2168   1.520   5.268   0.590
    2MOL1    Cl 2169   1.612   5.116   0.595
    2MOL1     H 2170   1.418   5.248   0.622
    2MOL1     H 2171   1.567   5.340   0.657
    2MOL1     H 2172   1.521   5.306   0.488
    2MOL1     C 2173   1.402   3.331   4.512
    2MOL1    Cl 2174   1.519   3.200   4.532
    2MOL1     H 2175   1.309   3.290   4.473
    2MOL1     H 2176   1.384   3.377   4.610
    2MOL1     H 2177   1.443   3.404   4.443
    2MOL1     C 2178   1.237   2.276   2.407
    2MOL1    Cl 2179   1.116   2.242   2.283
    2MOL1     H 2180   1.336   2.276   2.361
    2MOL1     H 2181   1.217   2.374   2.451
    2MOL1     H 2182   1.232   2.199   2.484
    2MOL1     C 2183   1.355   1.409   0.590
    2MOL1    Cl 2184   1.219   1.468   0.494
    2MOL1     H 2185   1.448   1.434   0.539
    2MOL1     H 2186   1.352   1.457   0.689
    2MOL1     H 2187   1.346   1.300   0.602
    2MOL1     C 2188   0.329   5.209   3.270
    2MOL1    Cl 2189   0.209   5.232   3.143
    2MOL1     H 2190   0.417   5.160   3.227
    2MOL1     H 2191   0.357   5.306   3.311
    2MOL1     H 2192   0.287   5.146   3.348
    2MOL1     C 2193   2.826   3.982   0.325
    2MOL1    Cl 2194   2.802   4.033   0.158
    2MOL1     H 2195   2.922   3.931   0.334
    2MOL1     H 2196   2.825   4.071   0.390
    2MOL1     H 2197   2.745   3.915   0.354
    2MOL1     C 2198   5.070   1.915   0.886
    2MOL1    Cl 2199   5.168   1.787   0.961
    2MOL1     H 2200   5.120   1.949   0.795
    2MOL1     H 2201   4.972   1.875   0.862
    2MOL1     H 2202   5.061   1.998   0.956
    2MOL1     C 2203   3.252   4.787   4.085
    2MOL1    Cl 2204   3.413   4.830   4.025
    2MOL1     H 2205   3.177   4.844   4.030
    2MOL1     H 2206   3.236   4.680   4.069
    2MOL1     H 2207   3.246   4.811   4.191
    2MOL1     C 2208   0.362   3.240   3.464
    2MOL1    Cl 2209   0.419   3.298   3.307
    2MOL1     H 2210   0.367   3.131   3.465
    2MOL1     H 2211   0.426   3.281   3.542
    2MOL1     H 2212   0.259   3.273   3.479
    2MOL1     C 2213   2.886   0.469   1.902
    2MOL1    Cl 2214   2.800   0.535   2.041
    2MOL1     H 2215   2.831   0.384   1.862
    2MOL1     H 2216   2.895   0.547   1.825
    2MOL1     H 2217   2.986   0.437   1.933
    2MOL1     C 2218   4.854   5.012   4.369
    2MOL1    Cl 2219   4.879   5.133   4.243
    2MOL1     H 2220   4.849   4.913   4.322
    2MOL1     H 2221   4.938   5.015   4.438
    2MOL1     H 2222   4.761   5.033   4.421
    2MOL1     C 2223   4.035   1.005   2.039
    2MOL1    Cl 2224   4.145   0.869   2.018
    2MOL1     H 2225   3.964   0.982   2.119
    2MOL1     H 2226   4.092   1.094   2.066
    2MOL1     H 2227   3.981   1.022   1.946
    2MOL1     C 2228   2.295   4.766   2.412
    2MOL1    Cl 2229   2.408   4.640   2.362
    2MOL1     H 2230   2.193   4.735   2.387
    2MOL1     H 2231   2.304   4.783   2.519
    2MOL1     H 2232   2.319   4.858   2.358
    2MOL1     C 2233   2.286   2.628   0.895
    2MOL1    Cl 2234   2.138   2.664   0.806
    2MOL1     H 2235   2.295   2.697   0.979
    2MOL1     H 2236   2.282   2.526   0.932
    2MOL1     H 2237   2.372   2.640   0.829
    2MOL1     C 2238   2.229   4.746   0.456
    2MOL1    Cl 2239   2.062   4.802   0.445
    2MOL1     H 2240   2.239   4.680   0.543
    2MOL1     H 2241   2.255   4.692   0.365
    2MOL1     H 2242   2.294   4.833   0.468
    2MOL1     C 2243   3.634   1.214   2.334
    2MOL1    Cl 2244   3.466   1.186   2.382
    2MOL1     H 2245   3.700   1.183   2.415
    2MOL1     H 2246   3.655   1.156   2.244
    2MOL1     H 2247   3.648   1.321   2.313
    2MOL1     C 2248   3.706   4.008   0.809
    2MOL1    Cl 2249   3.625   4.164   0.828
    2MOL1     H 2250   3.733   3.995   0.703
    2MOL1     H 2251   3.797   4.007   0.870
    2MOL1     H 2252   3.639   3.928   0.840
    2MOL1     C 2253   1.733   4.300   2.169
    2MOL1    Cl 2254   1.788   4.437   2.072
    2MOL1     H 2255   1.746   4.208   2.111
    2MOL1     H 2256   1.793   4.296   2.260
    2MOL1     H 2257   1.628   4.314   2.194
    2MOL1     C 2258   5.079   2.829   3.000
    2MOL1    Cl 2259   4.928   2.737   2.995
    2MOL1     H 2260   5.145   2.793   2.921
    2MOL1     H 2261   5.057   2.935   2.985
    2MOL1     H 2262   5.126   2.814   3.098
    2MOL1     C 2263   1.532   1.265   2.233
    2MOL1    Cl 2264   1.618   1.184   2.364
    2MOL1     H 2265   1.477   1.350   2.274
    2MOL1     H 2266   1.604   1.301   2.159
    2MOL1     H 2267   1.463   1.195   2.186
    2MOL1     C 2268   0.102   0.500   1.465
    2MOL1    Cl 2269   0.141   0.599   1.606
    2MOL1     H 2270   0.047   0.411   1.498
    2MOL1     H 2271   0.041   0.558   1.396
    2MOL1     H 2272   0.195   0.469   1.417
    2MOL1     C 2273   1.111   4.301   0.192
    2MOL1    Cl 2274   0.989   4.235   0.302
    2MOL1     H 2275   1.080   4.402   0.161
    2MOL1     H 2276   1.207   4.306   0.244
    2MOL1     H 2277   1.119   4.236   0.105
    2MOL1     C 2278   3.079   2.690   0.890
    2MOL1    Cl 2279   2.941   2.667   0.997
    2MOL1     H 2280   3.151   2.610   0.906
    2MOL1     H 2281   3.045   2.689   0.786
    2MOL1     H 2282   3.126   2.787   0.912
    2MOL1     C 2283   0.582   2.008   2.519
    2MOL1    Cl 2284   0.630   1.846   2.465
    2MOL1     H 2285   0.533   2.000   2.616
    2MOL1     H 2286   0.671   2.070   2.528
    2MOL1     H 2287   0.514   2.051   2.446
    2MOL1     C 2288   2.612   0.751   5.014
    2MOL1    Cl 2289   2.703   0.902   5.000
    2MOL1     H 2290   2.636   0.705   5.110
    2MOL1     H 2291   2.505   0.773   5.009
    2MOL1     H 2292   2.641   0.684   4.933
    2MOL1     C 2293   0.390   4.347   4.234
    2MOL1    Cl 2294   0.478   4.218   4.316
    2MOL1     H 2295   0.452   4.437   4.233
    2MOL1     H 2296   0.368   4.316   4.132
    2MOL1     H 2297   0.297   4.366   4.288
    2MOL1     C 2298   5.094   4.015   1.538
    2MOL1    Cl 2299   5.056   3.950   1.698
    2MOL1     H 2300   5.042   4.110   1.525
    2MOL1     H 2301   5.202   4.029   1.530
    2MOL1     H 2302   5.060   3.944   1.462
    2MOL1     C 2303   2.652   2.329   0.458
    2MOL1    Cl 2304   2.779   2.360   0.340
    2MOL1     H 2305   2.675   2.237   0.513
    2MOL1     H 2306   2.646   2.413   0.527
    2MOL1     H 2307   2.556   2.317   0.406
    2MOL1     C 2308   5.221   5.052   3.621
    2MOL1    Cl 2309   5.275   5.121   3.467
    2MOL1     H 2310   5.213   4.944   3.610
    2MOL1     H 2311   5.295   5.076   3.698
    2MOL1     H 2312   5.124   5.094   3.647
    2MOL1     C 2313   3.308   2.464   2.159
    2MOL1    Cl 2314   3.295   2.318   2.260
    2MOL1     H 2315   3.351   2.544   2.219
    2MOL1     H 2316   3.374   2.442   2.074
    2MOL1     H 2317   3.209   2.492   2.124
    2MOL1     C 2318   4.109   1.271   5.230
    2MOL1    Cl 2319   3.973   1.161   5.252
    2MOL1     H 2320   4.072   1.373   5.221
    2MOL1     H 2321   4.176   1.263   5.317
    2MOL1     H 2322   4.164   1.243   5.140
    2MOL1     C 2323   1.127   2.023   4.548
    2MOL1    Cl 2324   1.104   1.880   4.649
    2MOL1     H 2325   1.187   2.096   4.603
    2MOL1     H 2326   1.179   1.994   4.456
    2MOL1     H 2327   1.030   2.066   4.523
    2MOL1     C 2328   0.414   0.360   2.156
    2MOL1    Cl 2329   0.415   0.299   1.990
    2MOL1     H 2330   0.466   0.289   2.220
    2MOL1     H 2331   0.464   0.457   2.159
    2MOL1     H 2332   0.310   0.370   2.189
    2MOL1     C 2333   3.832   0.431   1.082
    2MOL1    Cl 2334   3.725   0.291   1.095
    2MOL1     H 2335   3.835   0.464   0.978
    2MOL1     H 2336   3.793   0.511   1.146
    2MOL1     H 2337   3.932   0.403   1.116
    2MOL1     C 2338   3.161   2.275   3.642
    2MOL1    Cl 2339   3.240   2.428   3.680
    2MOL1     H 2340   3.169   2.256   3.535
    2MOL1     H 2341   3.210   2.195   3.699
    2MOL1     H 2342   3.056   2.281   3.671
    2MOL1     C 2343   3.752   2.897   3.578
    2MOL1    Cl 2344   3.715   2.977   3.425
    2MOL1     H 2345   3.773   2.792   3.560
    2MOL1     H 2346   3.840   2.945   3.623
    2MOL1     H 2347   3.667   2.907   3.645
    2MOL1     C 2348   3.235   4.470   1.764
    2MOL1    Cl 2349   3.325   4.594   1.852
    2MOL1     H 2350   3.230   4.498   1.658
    2MOL1     H 2351   3.286   4.374   1.774
    2MOL1     H 2352   3.134   4.464   1.805
    2MOL1     C 2353   0.498   1.314   4.232
    2MOL1    Cl 2354   0.644   1.378   4.156
    2MOL1     H 2355   0.475   1.216   4.189
    2MOL1     H 2356   0.515   1.305   4.340
    2MOL1     H 2357   0.415   1.383   4.214
    2MOL1     C 2358   0.348   1.922   1.702
    2MOL1    Cl 2359   0.518   1.944   1.745
    2MOL1     H 2360   0.313   1.827   1.742
    2MOL1     H 2361   0.290   2.005   1.743
    2MOL1     H 2362   0.339   1.921   1.593
    2MOL1     C 2363   0.868   3.693   0.072
    2MOL1    Cl 2364   0.845   3.853   0.001
    2MOL1     H 2365   0.926   3.702   0.163
    2MOL1     H 2366   0.770   3.650   0.094
    2MOL1     H 2367   0.920   3.629   0.000
    2MOL1     C 2368   3.570   1.273   1.531
    2MOL1    Cl 2369   3.717   1.273   1.433
    2MOL1     H 2370   3.502   1.350   1.494
    2MOL1     H 2371   3.522   1.175   1.523
    2MOL1     H 2372   3.596   1.293   1.635
    2MOL1     C 2373   3.524   1.690   4.770
    2MOL1    Cl 2374   3.432   1.839   4.791
    2MOL1     H 2375   3.457   1.605   4.785
    2MOL1     H 2376   3.566   1.687   4.670
    2MOL1     H 2377   3.605   1.687   4.844
    2MOL1     C 2378   0.664   3.999   4.309
    2MOL1    Cl 2379   0.766   4.134   4.360
    2MOL1     H 2380   0.726   3.926   4.256
    2MOL1     H 2381   0.619   3.953   4.397
    2MOL1     H 2382   0.586   4.037   4.243
    2MOL1     C 2383   3.613   3.213   5.211
    2MOL1    Cl 2384   3.674   3.331   5.095
    2MOL1     H 2385   3.670   3.221   5.304
    2MOL1     H 2386   3.507   3.232   5.230
    2MOL1     H 2387   3.626   3.112   5.169
    2MOL1     C 2388   0.963   2.635   1.636
    2MOL1    Cl 2389   1.060   2.739   1.742
    2MOL1     H 2390   0.923   2.552   1.695
    2MOL1     H 2391   0.881   2.693   1.594
    2MOL1     H 2392   1.026   2.596   1.556
    2MOL1     C 2393   4.406   5.107   5.220
    2MOL1    Cl 2394   4.506   5.003   5.322
    2MOL1     H 2395   4.455   5.205   5.209
    2MOL1     H 2396   4.395   5.061   5.121
    2MOL1     H 2397   4.308   5.120   5.266
    2MOL1     C 2398   4.401   1.121   0.297
    2MOL1    Cl 2399   4.261   1.018   0.267
    2MOL1     H 2400   4.453   1.140   0.203
    2MOL1     H 2401   4.368   1.215   0.341
    2MOL1     H 2402   4.469   1.070   0.366
    2MOL1     C 2403   3.096   0.820   3.526
    2MOL1    Cl 2404   3.218   0.876   3.411
    2MOL1     H 2405   2.997   0.848   3.489
    2MOL1     H 2406   3.103   0.712   3.535
    2MOL1     H 2407   3.114   0.868   3.623
    2MOL1     C 2408   4.369   1.401   4.946
    2MOL1    Cl 2409   4.426   1.388   5.113
    2MOL1     H 2410   4.344   1.301   4.909
    2MOL1     H 2411   4.280   1.464   4.943
    2MOL1     H 2412   4.448   1.444   4.884
    2MOL1     C 2413   4.781   2.157   3.815
    2MOL1    Cl 2414   4.824   2.008   3.901
    2MOL1     H 2415   4.817   2.150   3.713
    2MOL1     H 2416   4.672   2.168   3.816
    2MOL1     H 2417   4.828   2.242   3.866
    2MOL1     C 2418   3.364   0.766   3.814
    2MOL1    Cl 2419   3.410   0.613   3.890
    2MOL1     H 2420   3.366   0.845   3.890
    2MOL1     H 2421   3.435   0.789   3.734
    2MOL1     H 2422   3.263   0.757   3.773
    2MOL1     C 2423   3.922   3.749   1.610
    2MOL1    Cl 2424   3.936   3.824   1.450
    2MOL1     H 2425   3.860   3.660   1.602
    2MOL1     H 2426   4.022   3.722   1.645
    2MOL1     H 2427   3.876   3.820   1.679
    2MOL1     C 2428   0.521   0.140   1.367
    2MOL1    Cl 2429   0.500   0.272   1.252
    2MOL1     H 2430   0.586   0.064   1.323
    2MOL1     H 2431   0.566   0.179   1.459
    2MOL1     H 2432   0.423   0.096   1.389
    2MOL1     C 2433   2.172   3.968   3.703
    2MOL1    Cl 2434   2.094   4.103   3.619
    2MOL1     H 2435   2.277   3.993   3.721
    2MOL1     H 2436   2.121   3.950   3.798
    2MOL1     H 2437   2.166   3.879   3.640
    2MOL1     C 2438   4.523   3.964   1.333
    2MOL1    Cl 2439   4.677   3.991   1.414
    2MOL1     H 2440   4.478   3.871   1.370
    2MOL1     H 2441   4.456   4.048   1.354
    2MOL1     H 2442   4.540   3.956   1.226
    2MOL1     C 2443   3.107   4.371   4.598
    2MOL1    Cl 2444   3.177   4.209   4.586
    2MOL1     H 2445   3.037   4.386   4.516
    2MOL1     H 2446   3.055   4.380   4.694
    2MOL1     H 2447   3.188   4.445   4.593
    2MOL1     C 2448   2.043   1.863   4.814
    2MOL1    Cl 2449   2.192   1.772   4.788
    2MOL1     H 2450   2.023   1.869   4.921
    2MOL1     H 2451   2.055   1.964   4.773
    2MOL1     H 2452   1.961   1.812   4.764
    2MOL1     C 2453   1.531   3.481   2.026
    2MOL1    Cl 2454   1.526   3.637   1.943
    2MOL1     H 2455   1.598   3.414   1.972
    2MOL1     H 2456   1.566   3.496   2.128
    2MOL1     H 2457   1.430   3.438   2.027
    2MOL1     C 2458   1.795   0.116   1.489
    2MOL1    Cl 2459   1.940   0.168   1.575
    2MOL1     H 2460   1.750   0.032   1.542
    2MOL1     H 2461   1.724   0.199   1.485
    2MOL1     H 2462   1.823   0.086   1.388
    2MOL1     C 2463   4.217   4.397   3.770
    2MOL1    Cl 2464   4.076   4.407   3.877
    2MOL1     H 2465   4.252   4.294   3.767
    2MOL1     H 2466   4.187   4.429   3.669
    2MOL1     H 2467   4.295   4.463   3.808
    2MOL1     C 2468   0.721   0.993   3.833
    2MOL1    Cl 2469   0.664   0.854   3.926
    2MOL1     H 2470   0.692   1.085   3.885
    2MOL1     H 2471   0.829   0.989   3.824
    2MOL1     H 2472   0.675   0.991   3.734
    2MOL1     C 2473   1.672   4.462   0.704
    2MOL1    Cl 2474   1.790   4.543   0.601
    2MOL1     H 2475   1.625   4.381   0.647
    2MOL1     H 2476   1.724   4.421   0.791
    2MOL1     H 2477   1.597   4.534   0.736
    2MOL1     C 2478   3.246   0.431   0.090
    2MOL1    Cl 2479   3.272   0.315   0.220
    2MOL1     H 2480   3.340   0.482   0.068
    2MOL1     H 2481   3.212   0.378   0.001
    2MOL1     H 2482   3.170   0.504   0.121
    2MOL1     C 2483   3.854   0.900   3.276
    2MOL1    Cl 2484   3.725   0.910   3.397
    2MOL1     H 2485   3.950   0.895   3.327
    2MOL1     H 2486   3.839   0.810   3.216
    2MOL1     H 2487   3.850   0.989   3.212
    2MOL1     C 2488   0.155   4.640   4.004
    2MOL1    Cl 2489   0.023   4.546   3.935
    2MOL1     H 2490   0.184   4.718   3.933
    2MOL1     H 2491   0.123   4.685   4.098
    2MOL1     H 2492   0.240   4.574   4.022
    2MOL1     C 2493   4.424   1.700   5.171
    2MOL1    Cl 2494   4.390   1.739   5.340
    2MOL1     H 2495   4.331   1.676   5.120
    2MOL1     H 2496   4.472   1.785   5.124
    2MOL1     H 2497   4.491   1.613   5.168
    2MOL1     C 2498   0.427   0.684   2.830
    2MOL1    Cl 2499   0.458   0.567   2.702
    2MOL1     H 2500   0.466   0.782   2.799
    2MOL1     H 2501   0.319   0.691   2.846
    2MOL1     H 2502   0.477   0.652   2.921
    2MOL1     C 2503   0.441   2.184   2.082
    2MOL1    Cl 2504   0.485   2.017   2.122
    2MOL1     H 2505   0.484   2.210   1.986
    2MOL1     H 2506   0.332   2.192   2.078
    2MOL1     H 2507   0.480   2.250   2.160
    2MOL1     C 2508   3.668   2.217   1.659
    2MOL1    Cl 2509   3.760   2.356   1.717
    2MOL1     H 2510   3.593   2.189   1.734
    2MOL1     H 2511   3.619   2.243   1.565
    2MOL1     H 2512   3.736   2.133   1.643
    2MOL1     C 2513   2.591   0.896   4.330
    2MOL1    Cl 2514   2.722   0.792   4.386
    2MOL1     H 2515   2.495   0.853   4.361
    2MOL1     H 2516   2.603   0.995   4.374
    2MOL1     H 2517   2.594   0.903   4.221
    2MOL1     C 2518   4.661   2.537   4.960
    2MOL1    Cl 2519   4.832   2.491   4.960
    2MOL1     H 2520   4.652   2.638   4.919
    2MOL1     H 2521   4.605   2.467   4.898
    2MOL1     H 2522   4.623   2.535   5.062
    2MOL1     C 2523   3.823   0.763   2.847
    2MOL1    Cl 2524   3.972   0.796   2.937
    2MOL1     H 2525   3.797   0.850   2.788
    2MOL1     H 2526   3.840   0.677   2.782
    2MOL1     H 2527   3.743   0.741   2.918
    2MOL1     C 2528   3.293   2.096   3.303
    2MOL1    Cl 2529   3.162   2.036   3.406
    2MOL1     H 2530   3.389   2.069   3.348
    2MOL1     H 2531   3.284   2.050   3.204
    2MOL1     H 2532   3.285   2.204   3.295
    2MOL1     C 2533   3.875   1.731   1.423
    2MOL1    Cl 2534   3.780   1.653   1.550
    2MOL1     H 2535   3.899   1.658   1.346
    2MOL1     H 2536   3.817   1.813   1.380
    2MOL1     H 2537   3.968   1.770   1.468
    2MOL1     C 2538   0.414   3.460   1.608
    2MOL1    Cl 2539   0.358   3.538   1.460
    2MOL1     H 2540   0.380   3.519   1.694
    2MOL1     H 2541   0.373   3.359   1.614
    2MOL1     H 2542   0.523   3.456   1.607
    2MOL1     C 2543   2.485   3.693   4.750
    2MOL1    Cl 2544   2.500   3.868   4.731
    2MOL1     H 2545   2.452   3.650   4.655
    2MOL1     H 2546   2.582   3.652   4.779
    2MOL1     H 2547   2.411   3.672   4.828
    2MOL1     C 2548   1.955   1.608   1.919
    2MOL1    Cl 2549   1.807   1.587   2.012
    2MOL1     H 2550   2.040   1.571   1.978
    2MOL1     H 2551   1.947   1.553   1.826
    2MOL1     H 2552   1.969   1.715   1.898
    2MOL1     C 2553   4.628   2.613   0.349
    2MOL1    Cl 2554   4.678   2.520   0.490
    2MOL1     H 2555   4.607   2.544   0.266
    2MOL1     H 2556   4.538   2.670   0.373
    2MOL1     H 2557   4.709   2.681   0.320
    2MOL1     C 2558   3.101   4.607   3.574
    2MOL1    Cl 2559   3.187   4.653   3.427
    2MOL1     H 2560   3.013   4.671   3.586
    2MOL1     H 2561   3.069   4.502   3.566
    2MOL1     H 2562   3.167   4.618   3.660
    2MOL1     C 2563   5.060   3.854   5.212
    2MOL1    Cl 2564   5.222   3.869   5.143
    2MOL1     H 2565   4.998   3.796   5.144
    2MOL1     H 2566   5.067   3.804   5.309
    2MOL1     H 2567   5.018   3.954   5.225
    2MOL1     C 2568   1.190   2.679   3.332
    2MOL1    Cl 2569   1.085   2.608   3.455
    2MOL1     H 2570   1.203   2.608   3.250
    2MOL1     H 2571   1.144   2.771   3.294
    2MOL1     H 2572   1.287   2.701   3.377
    2MOL1     C 2573   2.538   2.805   1.299
    2MOL1    Cl 2574   2.418   2.850   1.420
    2MOL1     H 2575   2.488   2.755   1.216
    2MOL1     H 2576   2.589   2.895   1.263
    2MOL1     H 2577   2.611   2.737   1.344
    2MOL1     C 2578   0.097   3.585   3.589
    2MOL1    Cl 2579   0.000   3.441   3.553
    2MOL1     H 2580   0.092   3.605   3.696
    2MOL1     H 2581   0.200   3.567   3.559
    2MOL1     H 2582   0.056   3.669   3.534
    2MOL1     C 2583   2.472   4.873   3.314
    2MOL1    Cl 2584   2.374   4.999   3.390
    2MOL1     H 2585   2.539   4.919   3.241
    2MOL1     H 2586   2.530   4.821   3.391
    2MOL1     H 2587   2.405   4.802   3.263
    2MOL1     C 2588   5.014   2.748   4.230
    2MOL1    Cl 2589   5.109   2.617   4.157
    2MOL1     H 2590   4.971   2.809   4.150
    2MOL1     H 2591   4.935   2.705   4.291
    2MOL1     H 2592   5.080   2.809   4.292
    2MOL1     C 2593   2.602   2.219   3.557
    2MOL1    Cl 2594   2.455   2.290   3.491
    2MOL1     H 2595   2.651   2.292   3.622
    2MOL1     H 2596   2.577   2.130   3.614
    2MOL1     H 2597   2.669   2.193   3.474
    2MOL1     C 2598   1.938   0.895   4.017
    2MOL1    Cl 2599   1.925   0.731   3.952
    2MOL1     H 2600   1.903   0.966   3.942
    2MOL1     H 2601   1.878   0.902   4.107
    2MOL1     H 2602   2.043   0.915   4.040
    2MOL1     C 2603   0.874   0.380   0.856
    2MOL1    Cl 2604   1.040   0.330   0.890
    2MOL1     H 2605   0.826   0.410   0.950
    2MOL1     H 2606   0.876   0.464   0.787
    2MOL1     H 2607   0.820   0.296   0.812
    2MOL1     C 2608   4.183   1.425   3.686
    2MOL1    Cl 2609   4.054   1.484   3.581
    2MOL1     H 2610   4.139   1.369   3.768
    2MOL1     H 2611   4.250   1.361   3.628
    2MOL1     H 2612   4.239   1.511   3.724
    2MOL1     C 2613   3.217   4.956   3.438
    2MOL1    Cl 2614   3.299   5.108   3.397
    2MOL1     H 2615   3.112   4.977   3.459
    2MOL1     H 2616   3.226   4.887   3.353
    2MOL1     H 2617   3.265   4.912   3.526
    2MOL1     C 2618   2.214   2.561   3.078
    2MOL1    Cl 2619   2.107   2.465   3.181
    2MOL1     H 2620   2.154   2.627   3.016
    2MOL1     H 2621   2.281   2.620   3.141
    2MOL1     H 2622   2.272   2.493   3.015
    2MOL1     C 2623   1.448   0.672   5.261
    2MOL1    Cl 2624   1.567   0.566   5.337
    2MOL1     H 2625   1.390   0.722   5.339
    2MOL1     H 2626   1.500   0.746   5.200
    2MOL1     H 2627   1.381   0.612   5.198
    2MOL1     C 2628   2.211   4.450   4.389
    2MOL1    Cl 2629   2.180   4.416   4.559
    2MOL1     H 2630   2.115   4.457   4.336
    2MOL1     H 2631   2.264   4.546   4.381
    2MOL1     H 2632   2.272   4.370   4.346
    2MOL1     C 2633   0.745   3.844   5.016
    2MOL1    Cl 2634   0.867   3.760   5.113
    2MOL1     H 2635   0.705   3.927   5.073
    2MOL1     H 2636   0.792   3.881   4.924
    2MOL1     H 2637   0.665   3.774   4.991
    2MOL1     C 2638   5.134   3.069   1.872
    2MOL1    Cl 2639   4.984   2.995   1.813
    2MOL1     H 2640   5.176   3.131   1.794
    2MOL1     H 2641   5.111   3.129   1.960
    2MOL1     H 2642   5.204   2.990   1.899
    2MOL1     C 2643   3.366   1.218   3.604
    2MOL1    Cl 2644   3.240   1.101   3.566
    2MOL1     H 2645   3.373   1.229   3.713
    2MOL1     H 2646   3.462   1.183   3.564
    2MOL1     H 2647   3.340   1.314   3.559
    2MOL1     C 2648   1.509   0.070   1.265
    2MOL1    Cl 2649   1.527   0.037   1.438
    2MOL1     H 2650   1.599   0.036   1.213
    2MOL1     H 2651   1.422   0.016   1.228
    2MOL1     H 2652   1.495   0.177   1.251
    2MOL1     C 2653   2.766   2.926   3.905
    2MOL1    Cl 2654   2.717   3.093   3.936
    2MOL1     H 2655   2.872   2.924   3.879
    2MOL1     H 2656   2.749   2.866   3.995
    2MOL1     H 2657   2.707   2.886   3.822
    2MOL1     C 2658   5.140   3.362   1.234
    2MOL1    Cl 2659   5.190   3.408   1.397
    2MOL1     H 2660   5.031   3.351   1.232
    2MOL1     H 2661   5.170   3.441   1.164
    2MOL1     H 2662   5.188   3.268   1.207
    2MOL1     C 2663   1.870   0.261   0.162
    2MOL1    Cl 2664   2.020   0.270   0.256
    2MOL1     H 2665   1.884   0.193   0.078
    2MOL1     H 2666   1.790   0.224   0.227
    2MOL1     H 2667   1.845   0.360   0.125
    2MOL1     C 2668   1.089   1.924   2.983
    2MOL1    Cl 2669   1.048   1.913   3.154
    2MOL1     H 2670   1.196   1.940   2.972
    2MOL1     H 2671   1.060   1.832   2.933
    2MOL1     H 2672   1.035   2.008   2.939
    2MOL1     C 2673   2.712   3.900   2.457
    2MOL1    Cl 2674   2.707   3.797   2.600
    2MOL1     H 2675   2.745   4.000   2.486
    2MOL1     H 2676   2.781   3.858   2.384
    2MOL1     H 2677   2.611   3.906   2.413
    2MOL1     C 2678   1.479   0.637   2.942
    2MOL1    Cl 2679   1.626   0.558   2.999
    2MOL1     H 2680   1.438   0.699   3.022
    2MOL1     H 2681   1.503   0.700   2.856
    2MOL1     H 2682   1.406   0.561   2.913
    2MOL1     C 2683   5.125   5.030   2.781
    2MOL1    Cl 2684   5.011   5.009   2.915
    2MOL1     H 2685   5.104   4.955   2.705
    2MOL1     H 2686   5.113   5.130   2.740
    2MOL1     H 2687   5.227   5.017   2.819
    2MOL1     C 2688   2.647   3.927   3.269
    2MOL1    Cl 2689   2.661   3.791   3.157
    2MOL1     H 2690   2.599   4.011   3.218
    2MOL1     H 2691   2.587   3.897   3.355
    2MOL1     H 2692   2.747   3.956   3.302
    2MOL1     C 2693   5.041   5.062   0.206
    2MOL1    Cl 2694   5.036   5.056   0.383
    2MOL1     H 2695   4.985   4.977   0.166
    2MOL1     H 2696   4.995   5.156   0.173
    2MOL1     H 2697   5.145   5.057   0.174
    2MOL1     C 2698   1.515   4.067   5.175
    2MOL1    Cl 2699   1.555   4.010   5.337
    2MOL1     H 2700   1.523   3.983   5.105
    2MOL1     H 2701   1.414   4.106   5.174
    2MOL1     H 2702   1.586   4.146   5.146
    2MOL1     C 2703   0.449   1.942   3.492
    2MOL1    Cl 2704   0.447   1.961   3.668
    2MOL1     H 2705   0.359   1.889   3.461
    2MOL1     H 2706   0.452   2.041   3.446
    2MOL1     H 2707   0.538   1.885   3.464
    2MOL1     C 2708   4.637   0.443   4.833
    2MOL1    Cl 2709   4.527   0.370   4.715
    2MOL1     H 2710   4.624   0.551   4.832
    2MOL1     H 2711   4.614   0.404   4.932
    2MOL1     H 2712   4.740   0.418   4.806
    2MOL1     C 2713   4.300   2.405   2.525
    2MOL1    Cl 2714   4.345   2.573   2.493
    2MOL1     H 2715   4.343   2.374   2.620
    2MOL1     H 2716   4.191   2.398   2.530
    2MOL1     H 2717   4.338   2.342   2.445
    2MOL1     C 2718   3.474   4.694   1.632
    2MOL1    Cl 2719   3.573   4.687   1.778
    2MOL1     H 2720   3.524   4.757   1.558
    2MOL1     H 2721   3.461   4.593   1.593
    2MOL1     H 2722   3.377   4.738   1.657
    2MOL1     C 2723   5.212   5.229   0.722
    2MOL1    Cl 2724   5.210   5.087   0.826
    2MOL1     H 2725   5.110   5.250   0.689
    2MOL1     H 2726   5.252   5.314   0.778
    2MOL1     H 2727   5.276   5.209   0.635
    2MOL1     C 2728   3.992   5.156   0.244
    2MOL1    Cl 2729   3.967   5.322   0.189
    2MOL1     H 2730   4.098   5.132   0.239
    2MOL1     H 2731   3.956   5.147   0.346
    2MOL1     H 2732   3.936   5.089   0.179
    2MOL1     C 2733   0.501   5.265   2.446
    2MOL1    Cl 2734   0.630   5.339   2.351
    2MOL1     H 2735   0.418   5.240   2.380
    2MOL1     H 2736   0.539   5.175   2.494
    2MOL1     H 2737   0.467   5.336   2.522
    2MOL1     C 2738   2.873   5.160   4.400
    2MOL1    Cl 2739   2.787   5.030   4.483
    2MOL1     H 2740   2.925   5.118   4.313
    2MOL1     H 2741   2.801   5.235   4.367
    2MOL1     H 2742   2.945   5.205   4.468
    2MOL1     C 2743   4.410   4.201   1.823
    2MOL1    Cl 2744   4.504   4.334   1.892
    2MOL1     H 2745   4.321   4.185   1.885
    2MOL1     H 2746   4.380   4.227   1.721
    2MOL1     H 2747   4.471   4.111   1.822
    2MOL1     C 2748   3.297   3.689   4.909
    2MOL1    Cl 2749   3.356   3.821   4.807
    2MOL1     H 2750   3.312   3.594   4.857
    2MOL1     H 2751   3.352   3.690   5.003
    2MOL1     H 2752   3.190   3.704   4.928
    2MOL1     C 2753   2.732   0.527   4.381
    2MOL1    Cl 2754   2.821   0.626   4.264
    2MOL1     H 2755   2.777   0.428   4.385
    2MOL1     H 2756   2.738   0.574   4.479
    2MOL1     H 2757   2.628   0.519   4.349
    2MOL1     C 2758   3.360   3.358   1.807
    2MOL1    Cl 2759   3.344   3.198   1.880
    2MOL1     H 2760   3.387   3.430   1.885
    2MOL1     H 2761   3.437   3.355   1.731
    2MOL1     H 2762   3.264   3.386   1.763
    2MOL1     C 2763   0.144   3.022   3.654
    2MOL1    Cl 2764   0.001   2.997   3.755
    2MOL1     H 2765   0.233   2.990   3.709
    2MOL1     H 2766   0.134   2.964   3.562
    2MOL1     H 2767   0.153   3.128   3.630
    2MOL1     C 2768   1.503   3.853   3.116
    2MOL1    Cl 2769   1.334   3.887   3.079
    2MOL1     H 2770   1.562   3.943   3.099
    2MOL1     H 2771   1.512   3.822   3.220
    2MOL1     H 2772   1.539   3.773   3.050
    2MOL1     C 2773   2.838   4.227   1.714
    2MOL1    Cl 2774   2.839   4.395   1.768
    2MOL1     H 2775   2.829   4.162   1.801
    2MOL1     H 2776   2.753   4.211   1.647
    2MOL1     H 2777   2.931   4.205   1.661
    2MOL1     C 2778   5.161   1.665   2.950
    2MOL1    Cl 2779   5.194   1.558   3.087
    2MOL1     H 2780   5.247   1.665   2.883
    2MOL1     H 2781   5.073   1.628   2.897
    2MOL1     H 2782   5.142   1.766   2.987
    2MOL1     C 2783   4.454   3.489   3.040
    2MOL1    Cl 2784   4.350   3.568   2.922
    2MOL1     H 2785   4.391   3.441   3.116
    2MOL1     H 2786   4.514   3.413   2.990
    2MOL1     H 2787   4.518   3.563   3.087
    2MOL1     C 2788   2.766   4.918   2.654
    2MOL1    Cl 2789   2.664   4.815   2.754
    2MOL1     H 2790   2.838   4.970   2.717
    2MOL1     H 2791   2.819   4.856   2.581
    2MOL1     H 2792   2.703   4.991   2.602
    2MOL1     C 2793   3.051   3.197   2.446
    2MOL1    Cl 2794   3.159   3.246   2.577
    2MOL1     H 2795   3.110   3.181   2.355
    2MOL1     H 2796   3.001   3.104   2.473
    2MOL1     H 2797   2.977   3.276   2.428
    2MOL1     C 2798   1.906   3.526   4.165
    2MOL1    Cl 2799   2.051   3.439   4.216
    2MOL1     H 2800   1.889   3.610   4.233
    2MOL1     H 2801   1.920   3.564   4.063
    2MOL1     H 2802   1.820   3.458   4.168
    2MOL1     C 2803   5.073   1.697   0.595
    2MOL1    Cl 2804   5.178   1.746   0.729
    2MOL1     H 2805   4.971   1.729   0.617
    2MOL1     H 2806   5.108   1.744   0.503
    2MOL1     H 2807   5.077   1.588   0.585
    2MOL1     C 2808   2.056   3.052   2.108
    2MOL1    Cl 2809   1.950   2.972   1.991
    2MOL1     H 2810   2.118   3.125   2.055
    2MOL1     H 2811   1.995   3.102   2.183
    2MOL1     H 2812   2.120   2.977   2.155
    2MOL1     C 2813   1.990   0.948   4.984
    2MOL1    Cl 2814   1.895   0.837   4.885
    2MOL1     H 2815   2.095   0.944   4.953
    2MOL1     H 2816   1.952   1.050   4.971
    2MOL1     H 2817   1.982   0.919   5.089
    2MOL1     C 2818   0.292   5.102   4.012
    2MOL1    Cl 2819   0.143   5.181   3.959
    2MOL1     H 2820   0.373   5.131   3.945
    2MOL1     H 2821   0.315   5.134   4.114
    2MOL1     H 2822   0.278   4.994   4.009
    2MOL1     C 2823   1.652   4.514   1.708
    2MOL1    Cl 2824   1.692   4.344   1.680
    2MOL1     H 2825   1.744   4.571   1.721
    2MOL1     H 2826   1.596   4.552   1.622
    2MOL1     H 2827   1.591   4.522   1.799
    2MOL1     C 2828   4.844   1.036   4.296
    2MOL1    Cl 2829   4.948   0.933   4.198
    2MOL1     H 2830   4.760   1.071   4.235
    2MOL1     H 2831   4.806   0.979   4.381
    2MOL1     H 2832   4.901   1.122   4.332
    2MOL1     C 2833   2.338   3.270   0.254
    2MOL1    Cl 2834   2.411   3.174   0.383
    2MOL1     H 2835   2.329   3.374   0.288
    2MOL1     H 2836   2.402   3.266   0.165
    2MOL1     H 2837   2.239   3.230   0.231
    2MOL1     C 2838   2.674   4.257   1.359
    2MOL1    Cl 2839   2.529   4.200   1.442
    2MOL1     H 2840   2.660   4.249   1.251
    2MOL1     H 2841   2.692   4.361   1.387
    2MOL1     H 2842   2.759   4.196   1.390
    2MOL1     C 2843   1.580   0.935   4.014
    2MOL1    Cl 2844   1.586   1.093   4.093
    2MOL1     H 2845   1.604   0.948   3.908
    2MOL1     H 2846   1.652   0.868   4.061
    2MOL1     H 2847   1.479   0.894   4.024
    2MOL1     C 2848   1.556   1.066   2.887
    2MOL1    Cl 2849   1.562   1.194   3.008
    2MOL1     H 2850   1.474   0.998   2.911
    2MOL1     H 2851   1.540   1.110   2.789
    2MOL1     H 2852   1.651   1.011   2.889
    2MOL1     C 2853   1.980   3.199   3.472
    2MOL1    Cl 2854   2.131   3.190   3.562
    2MOL1     H 2855   1.969   3.299   3.430
    2MOL1     H 2856   1.982   3.125   3.391
    2MOL1     H 2857   1.897   3.177   3.539
    2MOL1     C 2858   3.870   4.284   3.054
    2MOL1    Cl 2859   3.767   4.164   2.974
    2MOL1     H 2860   3.891   4.365   2.984
    2MOL1     H 2861   3.818   4.322   3.142
    2MOL1     H 2862   3.964   4.236   3.084
    2MOL1     C 2863   2.684   5.098   0.461
    2MOL1    Cl 2864   2.609   5.031   0.606
    2MOL1     H 2865   2.717   5.200   0.482
    2MOL1     H 2866   2.769   5.036   0.433
    2MOL1     H 2867   2.610   5.099   0.380
    2MOL1     C 2868   1.650   3.819   4.128
    2MOL1    Cl 2869   1.646   3.663   4.045
    2MOL1     H 2870   1.710   3.809   4.219
    2MOL1     H 2871   1.694   3.894   4.062
    2MOL1     H 2872   1.548   3.848   4.155
    2MOL1     C 2873   2.370   2.246   1.316
    2MOL1    Cl 2874   2.235   2.202   1.422
    2MOL1     H 2875   2.348   2.341   1.267
    2MOL1     H 2876   2.460   2.254   1.375
    2MOL1     H 2877   2.382   2.168   1.240
    2MOL1     C 2878   3.083   0.098   3.744
    2MOL1    Cl 2879   2.924   0.052   3.683
    2MOL1     H 2880   3.091   0.207   3.742
    2MOL1     H 2881   3.095   0.061   3.845
    2MOL1     H 2882   3.160   0.055   3.679
    2MOL1     C 2883   2.037   1.293   2.122
    2MOL1    Cl 2884   2.018   1.383   2.274
    2MOL1     H 2885   1.938   1.270   2.082
    2MOL1     H 2886   2.093   1.355   2.051
    2MOL1     H 2887   2.092   1.201   2.142
    2MOL1     C 2888   2.308   2.918   0.309
    2MOL1    Cl 2889   2.272   2.749   0.342
    2MOL1     H 2890   2.228   2.960   0.247
    2MOL1     H 2891   2.314   2.973   0.403
    2MOL1     H 2892   2.403   2.925   0.256
    2MOL1     C 2893   3.570   2.551   4.401
    2MOL1    Cl 2894   3.508   2.502   4.243
    2MOL1     H 2895   3.656   2.489   4.426
    2MOL1     H 2896   3.600   2.656   4.397
    2MOL1     H 2897   3.491   2.537   4.476
    2MOL1     C 2898   0.708   0.370   1.978
    2MOL1    Cl 2899   0.712   0.501   2.096
    2MOL1     H 2900   0.668   0.280   2.025
    2MOL1     H 2901   0.643   0.400   1.894
    2MOL1     H 2902   0.809   0.352   1.941
    2MOL1     C 2903   4.294   4.893   0.785
    2MOL1    Cl 2904   4.340   4.727   0.746
    2MOL1     H 2905   4.246   4.894   0.883
    2MOL1     H 2906   4.384   4.956   0.787
    2MOL1     H 2907   4.225   4.930   0.709
    2MOL1     C 2908   0.257   4.318   1.096
    2MOL1    Cl 2909   0.111   4.370   1.011
    2MOL1     H 2910   0.326   4.402   1.103
    2MOL1     H 2911   0.230   4.283   1.196
    2MOL1     H 2912   0.304   4.237   1.039
    2MOL1     C 2913   2.215   2.373   3.823
    2MOL1    Cl 2914   2.279   2.317   3.669
    2MOL1     H 2915   2.145   2.455   3.806
    2MOL1     H 2916   2.163   2.290   3.872
    2MOL1     H 2917   2.297   2.408   3.886
    2MOL1     C 2918   0.544   4.116   1.186
    2MOL1    Cl 2919   0.498   3.977   1.286
    2MOL1     H 2920   0.651   4.133   1.196
    2MOL1     H 2921   0.518   4.095   1.082
    2MOL1     H 2922   0.489   4.204   1.221
    2MOL1     C 2923   1.361   3.819   0.348
    2MOL1    Cl 2924   1.212   3.871   0.428
    2MOL1     H 2925   1.416   3.751   0.415
    2MOL1     H 2926   1.336   3.767   0.256
    2MOL1     H 2927   1.423   3.907   0.327
    2MOL1     C 2928   3.197   2.075   2.572
    2MOL1    Cl 2929   3.139   2.172   2.708
    2MOL1     H 2930   3.306   2.068   2.577
    2MOL1     H 2931   3.154   1.975   2.579
    2MOL1     H 2932   3.167   2.122   2.478
    2MOL1     C 2933   1.898   2.738   2.496
    2MOL1    Cl 2934   1.937   2.909   2.512
    2MOL1     H 2935   1.930   2.703   2.397
    2MOL1     H 2936   1.950   2.682   2.574
    2MOL1     H 2937   1.790   2.725   2.506
    2MOL1     C 2938   3.416   5.156   2.106
    2MOL1    Cl 2939   3.328   5.057   1.989
    2MOL1     H 2940   3.362   5.157   2.200
    2MOL1     H 2941   3.516   5.113   2.120
    2MOL1     H 2942   3.425   5.258   2.067
    2MOL1     C 2943   0.986   2.537   4.433
    2MOL1    Cl 2944   1.067   2.660   4.530
    2MOL1     H 2945   0.904   2.494   4.491
    2MOL1     H 2946   0.947   2.583   4.342
    2MOL1     H 2947   1.057   2.459   4.407
    2MOL1     C 2948   4.659   3.897   4.962
    2MOL1    Cl 2949   4.588   4.035   4.877
    2MOL1     H 2950   4.737   3.852   4.899
    2MOL1     H 2951   4.703   3.931   5.056
    2MOL1     H 2952   4.581   3.823   4.982
    2MOL1     C 2953   4.941   1.868   4.168
    2MOL1    Cl 2954   4.996   2.036   4.173
    2MOL1     H 2955   5.004   1.812   4.098
    2MOL1     H 2956   4.950   1.824   4.268
    2MOL1     H 2957   4.837   1.865   4.136
    2MOL1     C 2958   4.108   2.277   2.806
    2MOL1    Cl 2959   4.028   2.424   2.750
    2MOL1     H 2960   4.144   2.221   2.719
    2MOL1     H 2961   4.192   2.304   2.870
    2MOL1     H 2962   4.036   2.216   2.861
    2MOL1     C 2963   1.443   2.841   5.204
    2MOL1    Cl 2964   1.516   2.681   5.214
    2MOL1     H 2965   1.382   2.848   5.113
    2MOL1     H 2966   1.380   2.858   5.291
    2MOL1     H 2967   1.522   2.917   5.200
    2MOL1     C 2968   3.670   2.167   3.130
    2MOL1    Cl 2969   3.706   2.023   3.226
    2MOL1     H 2970   3.562   2.186   3.134
    2MOL1     H 2971   3.725   2.252   3.171
    2MOL1     H 2972   3.701   2.149   3.027
    2MOL1     C 2973   2.748   4.869   1.049
    2MOL1    Cl 2974   2.905   4.948   1.071
    2MOL1     H 2975   2.687   4.884   1.138
    2MOL1     H 2976   2.698   4.913   0.962
    2MOL1     H 2977   2.764   4.762   1.032
    2MOL1     C 2978   1.657   3.861   0.851
    2MOL1    Cl 2979   1.616   3.789   1.007
    2MOL1     H 2980   1.571   3.855   0.785
    2MOL1     H 2981   1.686   3.966   0.867
    2MOL1     H 2982   1.741   3.806   0.808
    2MOL1     C 2983   5.092   3.205   5.166
    2MOL1    Cl 2984   5.043   3.349   5.075
    2MOL1     H 2985   5.118   3.126   5.096
    2MOL1     H 2986   5.178   3.230   5.228
    2MOL1     H 2987   5.009   3.173   5.229
    2MOL1     C 2988   2.921   5.051   3.083
    2MOL1    Cl 2989   3.016   4.907   3.121
    2MOL1     H 2990   2.815   5.028   3.092
    2MOL1     H 2991   2.948   5.131   3.152
    2MOL1     H 2992   2.944   5.082   2.980
    2MOL1     C 2993   4.824   3.850   3.648
    2MOL1    Cl 2994   4.658   3.909   3.658
    2MOL1     H 2995   4.852   3.838   3.543
    2MOL1     H 2996   4.890   3.922   3.696
    2MOL1     H 2997   4.831   3.753   3.699
    2MOL1     C 2998   1.599   0.919   3.171
    2MOL1    Cl 2999   1.636   0.797   3.048
    2MOL1     H 3000   1.492   0.940   3.169
    2MOL1     H 3001   1.628   0.880   3.269
    2MOL1     H 3002   1.656   1.010   3.149
    2MOL1     C 3003   3.294   2.706   4.644
    2MOL1    Cl 3004   3.334   2.666   4.812
    2MOL1     H 3005   3.201   2.765   4.643
    2MOL1     H 3006   3.375   2.764   4.601
    2MOL1     H 3007   3.280   2.614   4.588
    2MOL1     C 3008   2.406   4.342   0.596
    2MOL1    Cl 3009   2.347   4.194   0.518
    2MOL1     H 3010   2.403   4.424   0.524
    2MOL1     H 3011   2.343   4.365   0.681
    2MOL1     H 3012   2.509   4.325   0.629
    2MOL1     C 3013   3.243   1.584   0.256
    2MOL1    Cl 3014   3.142   1.670   0.373
    2MOL1     H 3015   3.284   1.495   0.304
    2MOL1     H 3016   3.182   1.556   0.170
    2MOL1     H 3017   3.324   1.650   0.224
    2MOL1     C 3018   2.288   1.745   4.065
    2MOL1    Cl 3019   2.163   1.705   4.184
    2MOL1     H 3020   2.268   1.691   3.972
    2MOL1     H 3021   2.286   1.852   4.046
    2MOL1     H 3022   2.385   1.715   4.105
    2MOL1     C 3023   1.252   0.993   2.638
    2MOL1    Cl 3024   1.275   0.832   2.708
    2MOL1     H 3025   1.237   1.065   2.719
    2MOL1     H 3026   1.341   1.020   2.581
    2MOL1     H 3027   1.165   0.992   2.573
    2MOL1     C 3028   2.825   4.320   5.115
    2MOL1    Cl 3029   2.733   4.468   5.146
    2MOL1     H 3030   2.845   4.313   5.008
    2MOL1     H 3031   2.919   4.324   5.171
    2MOL1     H 3032   2.766   4.234   5.147
    2MOL1     C 3033   2.308   4.501   1.517
    2MOL1    Cl 3034   2.448   4.463   1.415
    2MOL1     H 3035   2.217   4.478   1.462
    2MOL1     H 3036   2.313   4.440   1.608
    2MOL1     H 3037   2.310   4.607   1.543
    2MOL1     C 3038   0.962   2.535   5.173
    2MOL1    Cl 3039   1.082   2.441   5.085
    2MOL1     H 3040   0.902   2.592   5.102
    2MOL1     H 3041   0.898   2.467   5.230
    2MOL1     H 3042   1.012   2.604   5.241
    2MOL1     C 3043   1.654   1.183   1.855
    2MOL1    Cl 3044   1.814   1.118   1.896
    2MOL1     H 3045   1.602   1.110   1.792
    2MOL1     H 3046   1.598   1.199   1.947
    2MOL1     H 3047   1.666   1.277   1.801
    2MOL1     C 3048   0.501   3.615   3.648
    2MOL1    Cl 3049   0.449   3.574   3.811
    2MOL1     H 3050   0.421   3.592   3.578
    2MOL1     H 3051   0.525   3.722   3.643
    2MOL1     H 3052   0.590   3.556   3.623
    2MOL1     C 3053   2.332   0.142   1.408
    2MOL1    Cl 3054   2.473   0.037   1.429
    2MOL1     H 3055   2.306   0.146   1.302
    2MOL1     H 3056   2.248   0.101   1.466
    2MOL1     H 3057   2.356   0.242   1.444
    2MOL1     C 3058   0.263   0.186   3.845
    2MOL1    Cl 3059   0.193   0.084   3.719
    2MOL1     H 3060   0.367   0.206   3.820
    2MOL1     H 3061   0.207   0.279   3.851
    2MOL1     H 3062   0.257   0.133   3.941
    2MOL1     C 3063   4.287   5.209   3.321
    2MOL1    Cl 3064   4.251   5.272   3.160
    2MOL1     H 3065   4.345   5.118   3.311
    2MOL1     H 3066   4.344   5.284   3.376
    2MOL1     H 3067   4.193   5.188   3.372
    2MOL1     C 3068   3.269   4.037   1.555
    2MOL1    Cl 3069   3.268   3.898   1.446
    2MOL1     H 3070   3.326   4.012   1.644
    2MOL1     H 3071   3.314   4.122   1.504
    2MOL1     H 3072   3.166   4.061   1.583
    2MOL1     C 3073   4.666   4.324   3.885
    2MOL1    Cl 3074   4.825   4.248   3.891
    2MOL1     H 3075   4.649   4.378   3.979
    2MOL1     H 3076   4.664   4.395   3.802
    2MOL1     H 3077   4.590   4.247   3.872
    2MOL1     C 3078   0.966   3.780   0.400
    2MOL1    Cl 3079   1.026   3.922   0.314
    2MOL1     H 3080   0.859   3.770   0.380
    2MOL1     H 3081   1.019   3.692   0.365
    2MOL1     H 3082   0.982   3.794   0.507
    2MOL1     C 3083   5.129   2.328   5.124
    2MOL1    Cl 3084   5.119   2.491   5.057
    2MOL1     H 3085   5.221   2.319   5.182
    2MOL1     H 3086   5.042   2.311   5.188
    2MOL1     H 3087   5.129   2.256   5.042
    2MOL1     C 3088   1.125   5.020   2.475
    2MOL1    Cl 3089   0.973   4.979   2.394
    2MOL1     H 3090   1.201   5.039   2.399
    2MOL1     H 3091   1.110   5.110   2.536
    2MOL1     H 3092   1.156   4.937   2.538
    2MOL1     C 3093   0.985   1.251   4.216
    2MOL1    Cl 3094   0.955   1.093   4.142
    2MOL1     H 3095   0.924   1.326   4.165
    2MOL1     H 3096   0.957   1.246   4.322
    2MOL1     H 3097   1.091   1.276   4.207
    2MOL1     C 3098   3.900   2.690   4.225
    2MOL1    Cl 3099   3.898   2.830   4.332
    2MOL1     H 3100   3.859   2.604   4.278
    2MOL1     H 3101   3.840   2.711   4.136
    2MOL1     H 3102   4.004   2.669   4.196
    2MOL1     C 3103   2.301   3.513   5.205
    2MOL1    Cl 3104   2.178   3.619   5.134
    2MOL1     H 3105   2.285   3.411   5.169
    2MOL1     H 3106   2.400   3.548   5.175
    2MOL1     H 3107   2.292   3.516   5.314
    2MOL1     C 3108   1.264   0.590   0.946
    2MOL1    Cl 3109   1.396   0.602   1.062
    2MOL1     H 3110   1.224   0.690   0.927
    2MOL1     H 3111   1.301   0.547   0.853
    2MOL1     H 3112   1.185   0.526   0.988
    2MOL1     C 3113   0.393   3.658   0.531
    2MOL1    Cl 3114   0.227   3.649   0.593
    2MOL1     H 3115   0.436   3.557   0.532
    2MOL1     H 3116   0.391   3.696   0.429
    2MOL1     H 3117   0.451   3.724   0.595
    2MOL1     C 3118   3.225   1.710   3.408
    2MOL1    Cl 3119   3.077   1.672   3.496
    2MOL1     H 3120   3.285   1.620   3.398
    2MOL1     H 3121   3.199   1.749   3.310
    2MOL1     H 3122   3.281   1.785   3.464
    2MOL1     C 3123   2.801   4.758   0.331
    2MOL1    Cl 3124   2.631   4.800   0.305
    2MOL1     H 3125   2.838   4.704   0.243
    2MOL1     H 3126   2.859   4.850   0.345
    2MOL1     H 3127   2.809   4.695   0.419
    2MOL1     C 3128   3.753   3.498   3.408
    2MOL1    Cl 3129   3.633   3.588   3.503
    2MOL1     H 3130   3.808   3.568   3.345
    2MOL1     H 3131   3.821   3.448   3.477
    2MOL1     H 3132   3.701   3.424   3.347
    2MOL1     C 3133   2.916   3.986   0.971
    2MOL1    Cl 3134   3.055   3.990   1.080
    2MOL1     H 3135   2.827   4.022   1.024
    2MOL1     H 3136   2.936   4.051   0.885
    2MOL1     H 3137   2.899   3.884   0.937
    2MOL1     C 3138   4.499   4.359   1.129
    2MOL1    Cl 3139   4.457   4.188   1.143
    2MOL1     H 3140   4.594   4.368   1.076
    2MOL1     H 3141   4.420   4.410   1.074
    2MOL1     H 3142   4.508   4.402   1.229
    2MOL1     C 3143   4.612   3.034   0.273
    2MOL1    Cl 3144   4.697   3.128   0.151
    2MOL1     H 3145   4.666   2.941   0.291
    2MOL1     H 3146   4.606   3.092   0.366
    2MOL1     H 3147   4.511   3.012   0.238
    2MOL1     C 3148   2.895   1.029   2.340
    2MOL1    Cl 3149   2.860   1.034   2.513
    2MOL1     H 3150   2.846   0.942   2.296
    2MOL1     H 3151   2.859   1.121   2.293
    2MOL1     H 3152   3.003   1.021   2.326
    2MOL1     C 3153   3.442   4.622   2.993
    2MOL1    Cl 3154   3.552   4.659   3.127
    2MOL1     H 3155   3.339   4.636   3.026
    2MOL1     H 3156   3.465   4.688   2.909
    2MOL1     H 3157   3.457   4.518   2.963
    2MOL1     C 3158   3.749   3.508   3.948
    2MOL1    Cl 3159   3.807   3.574   3.795
    2MOL1     H 3160   3.770   3.400   3.950
    2MOL1     H 3161   3.800   3.557   4.030
    2MOL1     H 3162   3.641   3.524   3.956
    2MOL1     C 3163   4.194   0.296   0.193
    2MOL1    Cl 3164   4.142   0.424   0.083
    2MOL1     H 3165   4.260   0.227   0.140
    2MOL1     H 3166   4.248   0.341   0.277
    2MOL1     H 3167   4.106   0.243   0.230
    2MOL1     C 3168   3.255   3.155   3.476
    2MOL1    Cl 3169   3.121   3.218   3.379
    2MOL1     H 3170   3.349   3.194   3.436
    2MOL1     H 3171   3.243   3.187   3.579
    2MOL1     H 3172   3.255   3.046   3.470
    2MOL1     C 3173   0.575   2.558   1.912
    2MOL1    Cl 3174   0.576   2.460   1.764
    2MOL1     H 3175   0.507   2.642   1.899
    2MOL1     H 3176   0.543   2.496   1.996
    2MOL1     H 3177   0.677   2.595   1.930
    2MOL1     C 3178   5.215   4.319   3.023
    2MOL1    Cl 3179   5.339   4.195   3.043
    2MOL1     H 3180   5.225   4.392   3.104
    2MOL1     H 3181   5.228   4.368   2.927
    2MOL1     H 3182   5.116   4.271   3.028
    2MOL1     C 3183   2.322   3.584   1.513
    2MOL1    Cl 3184   2.288   3.436   1.604
    2MOL1     H 3185   2.394   3.644   1.568
    2MOL1     H 3186   2.362   3.558   1.415
    2MOL1     H 3187   2.229   3.641   1.501
    2MOL1     C 3188   5.096   1.371   2.437
    2MOL1    Cl 3189   4.965   1.253   2.437
    2MOL1     H 3190   5.192   1.318   2.430
    2MOL1     H 3191   5.084   1.438   2.352
    2MOL1     H 3192   5.093   1.428   2.530
    2MOL1     C 3193   4.193   3.112   4.017
    2MOL1    Cl 3194   4.324   3.191   4.105
    2MOL1     H 3195   4.203   3.004   4.027
    2MOL1     H 3196   4.098   3.144   4.059
    2MOL1     H 3197   4.199   3.140   3.911
    2MOL1     C 3198   1.616   3.561   3.457
    2MOL1    Cl 3199   1.477   3.454   3.431
    2MOL1     H 3200   1.700   3.525   3.398
    2MOL1     H 3201   1.589   3.662   3.426
    2MOL1     H 3202   1.642   3.560   3.563
    2MOL1     C 3203   2.533   3.264   2.614
    2MOL1    Cl 3204   2.564   3.422   2.543
    2MOL1     H 3205   2.603   3.247   2.696
    2MOL1     H 3206   2.431   3.261   2.652
    2MOL1     H 3207   2.547   3.187   2.538
    2MOL1     C 3208   1.907   2.876   0.133
    2MOL1    Cl 3209   2.068   2.839   0.068
    2MOL1     H 3210   1.831   2.839   0.063
    2MOL1     H 3211   1.896   2.827   0.230
    2MOL1     H 3212   1.897   2.984   0.144
    2MOL1     C 3213   4.831   0.811   2.891
    2MOL1    Cl 3214   4.947   0.864   2.770
    2MOL1     H 3215   4.735   0.792   2.843
    2MOL1     H 3216   4.868   0.720   2.939
    2MOL1     H 3217   4.819   0.890   2.966
    2MOL1     C 3218   4.892   2.045   1.255
    2MOL1    Cl 3219   5.033   2.152   1.246
    2MOL1     H 3220   4.805   2.104   1.287
    2MOL1     H 3221   4.873   2.002   1.157
    2MOL1     H 3222   4.912   1.966   1.328
    2MOL1     C 3223   3.193   4.014   0.436
    2MOL1    Cl 3224   3.284   4.143   0.516
    2MOL1     H 3225   3.225   4.008   0.332
    2MOL1     H 3226   3.213   3.919   0.487
    2MOL1     H 3227   3.087   4.037   0.442
    2MOL1     C 3228   2.726   4.066   3.595
    2MOL1    Cl 3229   2.900   4.077   3.563
    2MOL1     H 3230   2.696   3.961   3.594
    2MOL1     H 3231   2.705   4.111   3.692
    2MOL1     H 3232   2.672   4.120   3.516
    2MOL1     C 3233   2.042   4.546   2.217
    2MOL1    Cl 3234   1.906   4.658   2.228
    2MOL1     H 3235   2.046   4.486   2.308
    2MOL1     H 3236   2.028   4.481   2.131
    2MOL1     H 3237   2.135   4.602   2.207
    2MOL1     C 3238   1.527   1.705   0.702
    2MOL1    Cl 3239   1.459   1.745   0.544
    2MOL1     H 3240   1.592   1.786   0.735
    2MOL1     H 3241   1.445   1.692   0.774
    2MOL1     H 3242   1.584   1.612   0.693
    2MOL1     C 3243   0.224   2.855   4.402
    2MOL1    Cl 3244   0.081   2.756   4.369
    2MOL1     H 3245   0.307   2.819   4.342
    2MOL1     H 3246   0.202   2.959   4.376
    2MOL1     H 3247   0.249   2.848   4.508
    2MOL1     C 3248   0.465   1.587   4.728
    2MOL1    Cl 3249   0.512   1.472   4.602
    2MOL1     H 3250   0.491   1.545   4.826
    2MOL1     H 3251   0.519   1.681   4.713
    2MOL1     H 3252   0.358   1.604   4.723
    2MOL1     C 3253   4.958   2.938   0.619
    2MOL1    Cl 3254   5.067   2.851   0.510
    2MOL1     H 3255   4.889   2.868   0.665
    2MOL1     H 3256   5.017   2.988   0.696
    2MOL1     H 3257   4.902   3.013   0.562
    2MOL1     C 3258   2.240   4.229   4.829
    2MOL1    Cl 3259   2.085   4.191   4.905
    2MOL1     H 3260   2.311   4.261   4.906
    2MOL1     H 3261   2.278   4.140   4.778
    2MOL1     H 3262   2.225   4.310   4.757
    2MOL1     C 3263   3.072   3.468   3.242
    2MOL1    Cl 3264   3.194   3.366   3.166
    2MOL1     H 3265   3.076   3.568   3.197
    2MOL1     H 3266   2.973   3.424   3.227
    2MOL1     H 3267   3.093   3.476   3.349
    2MOL1     C 3268   3.022   4.402   0.361
    2MOL1    Cl 3269   3.170   4.445   0.276
    2MOL1     H 3270   2.962   4.336   0.298
    2MOL1     H 3271   3.047   4.351   0.454
    2MOL1     H 3272   2.965   4.493   0.382
    2MOL1     C 3273   3.403   4.458   0.435
    2MOL1    Cl 3274   3.264   4.419   0.537
    2MOL1     H 3275   3.494   4.426   0.485
    2MOL1     H 3276   3.392   4.406   0.339
    2MOL1     H 3277   3.405   4.566   0.418
    2MOL1     C 3278   2.412   3.767   1.031
    2MOL1    Cl 3279   2.335   3.609   1.018
    2MOL1     H 3280   2.459   3.776   1.130
    2MOL1     H 3281   2.488   3.777   0.953
    2MOL1     H 3282   2.337   3.845   1.020
    2MOL1     C 3283   4.107   3.942   3.750
    2MOL1    Cl 3284   4.053   3.827   3.872
    2MOL1     H 3285   4.200   3.988   3.782
    2MOL1     H 3286   4.122   3.889   3.655
    2MOL1     H 3287   4.030   4.019   3.738
    2MOL1     C 3288   5.223   4.792   4.214
    2MOL1    Cl 3289   5.309   4.946   4.223
    2MOL1     H 3290   5.148   4.788   4.293
    2MOL1     H 3291   5.174   4.784   4.116
    2MOL1     H 3292   5.294   4.710   4.227
    2MOL1     C 3293   4.221   0.330   3.554
    2MOL1    Cl 3294   4.133   0.381   3.410
    2MOL1     H 3295   4.152   0.326   3.639
    2MOL1     H 3296   4.264   0.231   3.537
    2MOL1     H 3297   4.300   0.402   3.575
    2MOL1     C 3298   2.430   2.675   3.454
    2MOL1    Cl 3299   2.576   2.661   3.552
    2MOL1     H 3300   2.354   2.729   3.511
    2MOL1     H 3301   2.454   2.731   3.363
    2MOL1     H 3302   2.394   2.576   3.428
    2MOL1     C 3303   5.030   4.711   2.678
    2MOL1    Cl 3304   5.060   4.538   2.704
    2MOL1     H 3305   5.027   4.761   2.775
    2MOL1     H 3306   5.110   4.752   2.617
    2MOL1     H 3307   4.934   4.723   2.627
    2MOL1     C 3308   2.370   0.816   2.057
    2MOL1    Cl 3309   2.313   0.953   2.153
    2MOL1     H 3310   2.361   0.725   2.116
    2MOL1     H 3311   2.309   0.808   1.966
    2MOL1     H 3312   2.475   0.833   2.030
    2MOL1     C 3313   0.247   2.333   3.056
    2MOL1    Cl 3314   0.235   2.296   3.229
    2MOL1     H 3315   0.242   2.239   2.999
    2MOL1     H 3316   0.164   2.398   3.028
    2MOL1     H 3317   0.342   2.383   3.037
    2MOL1     C 3318   1.203   4.200   1.132
    2MOL1    Cl 3319   1.100   4.228   1.272
    2MOL1     H 3320   1.213   4.092   1.115
    2MOL1     H 3321   1.158   4.247   1.044
    2MOL1     H 3322   1.302   4.243   1.150
    2MOL1     C 3323   2.650   2.992   0.610
    2MOL1    Cl 3324   2.747   2.977   0.757
    2MOL1     H 3325   2.622   3.097   0.596
    2MOL1     H 3326   2.710   2.958   0.525
    2MOL1     H 3327   2.561   2.931   0.619
    2MOL1     C 3328   0.644   0.626   0.884
    2MOL1    Cl 3329   0.561   0.762   0.961
    2MOL1     H 3330   0.604   0.533   0.923
    2MOL1     H 3331   0.629   0.632   0.776
    2MOL1     H 3332   0.751   0.633   0.906
    2MOL1     C 3333   5.048   2.120   3.275
    2MOL1    Cl 3334   4.941   2.022   3.174
    2MOL1     H 3335   5.093   2.198   3.213
    2MOL1     H 3336   4.990   2.164   3.356
    2MOL1     H 3337   5.126   2.056   3.316
    2MOL1     C 3338   2.521   1.009   3.506
    2MOL1    Cl 3339   2.393   0.965   3.620
    2MOL1     H 3340   2.618   0.994   3.554
    2MOL1     H 3341   2.513   0.946   3.417
    2MOL1     H 3342   2.509   1.114   3.478
    2MOL1     C 3343   5.118   1.000   2.245
    2MOL1    Cl 3344   4.948   0.974   2.206
    2MOL1     H 3345   5.174   0.909   2.224
    2MOL1     H 3346   5.156   1.082   2.183
    2MOL1     H 3347   5.127   1.025   2.350
    2MOL1     C 3348   3.980   0.516   4.550
    2MOL1    Cl 3349   3.962   0.688   4.512
    2MOL1     H 3350   3.941   0.498   4.650
    2MOL1     H 3351   3.925   0.458   4.477
    2MOL1     H 3352   4.086   0.490   4.547
    2MOL1     C 3353   5.138   0.865   5.082
    2MOL1    Cl 3354   5.010   0.801   5.186
    2MOL1     H 3355   5.235   0.842   5.127
    2MOL1     H 3356   5.131   0.818   4.984
    2MOL1     H 3357   5.126   0.973   5.073
    2MOL1     C 3358   2.941   0.556   1.487
    2MOL1    Cl 3359   2.997   0.416   1.578
    2MOL1     H 3360   2.886   0.623   1.554
    2MOL1     H 3361   3.027   0.609   1.445
    2MOL1     H 3362   2.875   0.523   1.406
    2MOL1     C 3363   2.111   1.354   3.862
    2MOL1    Cl 3364   2.204   1.214   3.804
    2MOL1     H 3365   2.005   1.330   3.857
    2MOL1     H 3366   2.140   1.376   3.965
    2MOL1     H 3367   2.133   1.440   3.798
  5.5400000  5.5400000  5.5400000
