[ defaults ]
; nbfunc	comb-rule	gen-pairs	fudgeLJ	fudgeQQ
     1	     2	yes   	0.500000	0.833333

[ atomtypes ]
;type, bondingtype, atomic_number, mass, charge, ptype, sigma, epsilon
pop_tetramer.pdb_0	     6	12.01078	0.0000000000000000	A    	0.3480646886945065	0.3635030558377792
pop_tetramer.pdb_1	     8	15.99943	0.0000000000000000	A    	0.3039812205065809	0.8795023257036865
pop_tetramer.pdb_2	     6	12.01078	0.0000000000000000	A    	0.3480646886945065	0.3635030558377792
pop_tetramer.pdb_3	     6	12.01078	0.0000000000000000	A    	0.3480646886945065	0.3635030558377792
pop_tetramer.pdb_4	     6	12.01078	0.0000000000000000	A    	0.3480646886945065	0.3635030558377792
pop_tetramer.pdb_5	     6	12.01078	0.0000000000000000	A    	0.3480646886945065	0.3635030558377792
pop_tetramer.pdb_6	     6	12.01078	0.0000000000000000	A    	0.3480646886945065	0.3635030558377792
pop_tetramer.pdb_7	     6	12.01078	0.0000000000000000	A    	0.3480646886945065	0.3635030558377792
pop_tetramer.pdb_8	     6	12.01078	0.0000000000000000	A    	0.3480646886945065	0.3635030558377792
pop_tetramer.pdb_9	     6	12.01078	0.0000000000000000	A    	0.3480646886945065	0.3635030558377792
pop_tetramer.pdb_10	     8	15.99943	0.0000000000000000	A    	0.3025106490435313	0.7048581468486769
pop_tetramer.pdb_11	     6	12.01078	0.0000000000000000	A    	0.337953176162662	0.4553891161106184
pop_tetramer.pdb_12	     6	12.01078	0.0000000000000000	A    	0.3480646886945065	0.3635030558377792
pop_tetramer.pdb_13	     6	12.01078	0.0000000000000000	A    	0.3480646886945065	0.3635030558377792
pop_tetramer.pdb_14	     6	12.01078	0.0000000000000000	A    	0.3480646886945065	0.3635030558377792
pop_tetramer.pdb_15	     6	12.01078	0.0000000000000000	A    	0.3480646886945065	0.3635030558377792
pop_tetramer.pdb_16	     6	12.01078	0.0000000000000000	A    	0.3480646886945065	0.3635030558377792
pop_tetramer.pdb_17	     6	12.01078	0.0000000000000000	A    	0.3480646886945065	0.3635030558377792
pop_tetramer.pdb_18	     6	12.01078	0.0000000000000000	A    	0.3480646886945065	0.3635030558377792
pop_tetramer.pdb_19	     6	12.01078	0.0000000000000000	A    	0.3480646886945065	0.3635030558377792
pop_tetramer.pdb_20	     6	12.01078	0.0000000000000000	A    	0.337953176162662	0.4553891161106184
pop_tetramer.pdb_21	     7	14.00672	0.0000000000000000	A    	0.3206876023663901	0.7016212989374017
pop_tetramer.pdb_22	     6	12.01078	0.0000000000000000	A    	0.337953176162662	0.4553891161106184
pop_tetramer.pdb_23	     6	12.01078	0.0000000000000000	A    	0.3480646886945065	0.3635030558377792
pop_tetramer.pdb_24	     6	12.01078	0.0000000000000000	A    	0.3480646886945065	0.3635030558377792
pop_tetramer.pdb_25	     1	1.007947	0.0000000000000000	A    	0.2572581535063279	0.06531785996356952
pop_tetramer.pdb_26	     1	1.007947	0.0000000000000000	A    	0.2572581535063279	0.06531785996356952
pop_tetramer.pdb_27	     1	1.007947	0.0000000000000000	A    	0.2572581535063279	0.06531785996356952
pop_tetramer.pdb_28	     1	1.007947	0.0000000000000000	A    	0.2583225710839196	0.068656285380106
pop_tetramer.pdb_29	     1	1.007947	0.0000000000000000	A    	0.2583225710839196	0.068656285380106
pop_tetramer.pdb_30	     1	1.007947	0.0000000000000000	A    	0.2583225710839196	0.068656285380106
pop_tetramer.pdb_31	     1	1.007947	0.0000000000000000	A    	0.2572581535063279	0.06531785996356952
pop_tetramer.pdb_32	     1	1.007947	0.0000000000000000	A    	0.2572581535063279	0.06531785996356952
pop_tetramer.pdb_33	     1	1.007947	0.0000000000000000	A    	0.2572581535063279	0.06531785996356952
pop_tetramer.pdb_34	     1	1.007947	0.0000000000000000	A    	0.2572581535063279	0.06531785996356952
pop_tetramer.pdb_35	     1	1.007947	0.0000000000000000	A    	0.2572581535063279	0.06531785996356952
pop_tetramer.pdb_36	     1	1.007947	0.0000000000000000	A    	0.2572581535063279	0.06531785996356952
pop_tetramer.pdb_37	     1	1.007947	0.0000000000000000	A    	0.2583225710839196	0.068656285380106
pop_tetramer.pdb_38	     1	1.007947	0.0000000000000000	A    	0.1103427677297317	0.05895596890015097
pop_tetramer.pdb_39	     1	1.007947	0.0000000000000000	A    	0.2644543413268124	0.06602135607582665
pop_tetramer.pdb_40	     1	1.007947	0.0000000000000000	A    	0.2644543413268124	0.06602135607582665
pop_tetramer.pdb_41	     1	1.007947	0.0000000000000000	A    	0.2644543413268124	0.06602135607582665
pop_tetramer.pdb_42	     1	1.007947	0.0000000000000000	A    	0.2572581535063279	0.06531785996356952
pop_tetramer.pdb_43	     1	1.007947	0.0000000000000000	A    	0.2572581535063279	0.06531785996356952
pop_tetramer.pdb_44	     6	12.01078	0.0000000000000000	A    	0.3480646886945065	0.3635030558377792
pop_tetramer.pdb_45	     8	15.99943	0.0000000000000000	A    	0.3039812205065809	0.8795023257036865
pop_tetramer.pdb_46	     6	12.01078	0.0000000000000000	A    	0.3480646886945065	0.3635030558377792
pop_tetramer.pdb_47	     6	12.01078	0.0000000000000000	A    	0.3480646886945065	0.3635030558377792
pop_tetramer.pdb_48	     6	12.01078	0.0000000000000000	A    	0.3480646886945065	0.3635030558377792
pop_tetramer.pdb_49	     6	12.01078	0.0000000000000000	A    	0.3480646886945065	0.3635030558377792
pop_tetramer.pdb_50	     6	12.01078	0.0000000000000000	A    	0.3480646886945065	0.3635030558377792
pop_tetramer.pdb_51	     6	12.01078	0.0000000000000000	A    	0.3480646886945065	0.3635030558377792
pop_tetramer.pdb_52	     6	12.01078	0.0000000000000000	A    	0.3480646886945065	0.3635030558377792
pop_tetramer.pdb_53	     6	12.01078	0.0000000000000000	A    	0.3480646886945065	0.3635030558377792
pop_tetramer.pdb_54	     8	15.99943	0.0000000000000000	A    	0.3025106490435313	0.7048581468486769
pop_tetramer.pdb_55	     6	12.01078	0.0000000000000000	A    	0.337953176162662	0.4553891161106184
pop_tetramer.pdb_56	     6	12.01078	0.0000000000000000	A    	0.3480646886945065	0.3635030558377792
pop_tetramer.pdb_57	     6	12.01078	0.0000000000000000	A    	0.3480646886945065	0.3635030558377792
pop_tetramer.pdb_58	     6	12.01078	0.0000000000000000	A    	0.3480646886945065	0.3635030558377792
pop_tetramer.pdb_59	     6	12.01078	0.0000000000000000	A    	0.3480646886945065	0.3635030558377792
pop_tetramer.pdb_60	     6	12.01078	0.0000000000000000	A    	0.3480646886945065	0.3635030558377792
pop_tetramer.pdb_61	     6	12.01078	0.0000000000000000	A    	0.3480646886945065	0.3635030558377792
pop_tetramer.pdb_62	     6	12.01078	0.0000000000000000	A    	0.3480646886945065	0.3635030558377792
pop_tetramer.pdb_63	     6	12.01078	0.0000000000000000	A    	0.3480646886945065	0.3635030558377792
pop_tetramer.pdb_64	     6	12.01078	0.0000000000000000	A    	0.337953176162662	0.4553891161106184
pop_tetramer.pdb_65	     7	14.00672	0.0000000000000000	A    	0.3206876023663901	0.7016212989374017
pop_tetramer.pdb_66	     6	12.01078	0.0000000000000000	A    	0.337953176162662	0.4553891161106184
pop_tetramer.pdb_67	     6	12.01078	0.0000000000000000	A    	0.3480646886945065	0.3635030558377792
pop_tetramer.pdb_68	     6	12.01078	0.0000000000000000	A    	0.3480646886945065	0.3635030558377792
pop_tetramer.pdb_69	     1	1.007947	0.0000000000000000	A    	0.2572581535063279	0.06531785996356952
pop_tetramer.pdb_70	     1	1.007947	0.0000000000000000	A    	0.2572581535063279	0.06531785996356952
pop_tetramer.pdb_71	     1	1.007947	0.0000000000000000	A    	0.2572581535063279	0.06531785996356952
pop_tetramer.pdb_72	     1	1.007947	0.0000000000000000	A    	0.2583225710839196	0.068656285380106
pop_tetramer.pdb_73	     1	1.007947	0.0000000000000000	A    	0.2583225710839196	0.068656285380106
pop_tetramer.pdb_74	     1	1.007947	0.0000000000000000	A    	0.2583225710839196	0.068656285380106
pop_tetramer.pdb_75	     1	1.007947	0.0000000000000000	A    	0.2572581535063279	0.06531785996356952
pop_tetramer.pdb_76	     1	1.007947	0.0000000000000000	A    	0.2572581535063279	0.06531785996356952
pop_tetramer.pdb_77	     1	1.007947	0.0000000000000000	A    	0.2572581535063279	0.06531785996356952
pop_tetramer.pdb_78	     1	1.007947	0.0000000000000000	A    	0.2572581535063279	0.06531785996356952
pop_tetramer.pdb_79	     1	1.007947	0.0000000000000000	A    	0.2572581535063279	0.06531785996356952
pop_tetramer.pdb_80	     1	1.007947	0.0000000000000000	A    	0.2572581535063279	0.06531785996356952
pop_tetramer.pdb_81	     1	1.007947	0.0000000000000000	A    	0.2583225710839196	0.068656285380106
pop_tetramer.pdb_82	     1	1.007947	0.0000000000000000	A    	0.1103427677297317	0.05895596890015097
pop_tetramer.pdb_83	     1	1.007947	0.0000000000000000	A    	0.2644543413268124	0.06602135607582665
pop_tetramer.pdb_84	     1	1.007947	0.0000000000000000	A    	0.2644543413268124	0.06602135607582665
pop_tetramer.pdb_85	     1	1.007947	0.0000000000000000	A    	0.2644543413268124	0.06602135607582665
pop_tetramer.pdb_86	     1	1.007947	0.0000000000000000	A    	0.2572581535063279	0.06531785996356952
pop_tetramer.pdb_87	     1	1.007947	0.0000000000000000	A    	0.2572581535063279	0.06531785996356952
pop_tetramer.pdb_88	     6	12.01078	0.0000000000000000	A    	0.3480646886945065	0.3635030558377792
pop_tetramer.pdb_89	     8	15.99943	0.0000000000000000	A    	0.3039812205065809	0.8795023257036865
pop_tetramer.pdb_90	     6	12.01078	0.0000000000000000	A    	0.3480646886945065	0.3635030558377792
pop_tetramer.pdb_91	     6	12.01078	0.0000000000000000	A    	0.3480646886945065	0.3635030558377792
pop_tetramer.pdb_92	     6	12.01078	0.0000000000000000	A    	0.3480646886945065	0.3635030558377792
pop_tetramer.pdb_93	     6	12.01078	0.0000000000000000	A    	0.3480646886945065	0.3635030558377792
pop_tetramer.pdb_94	     6	12.01078	0.0000000000000000	A    	0.3480646886945065	0.3635030558377792
pop_tetramer.pdb_95	     6	12.01078	0.0000000000000000	A    	0.3480646886945065	0.3635030558377792
pop_tetramer.pdb_96	     6	12.01078	0.0000000000000000	A    	0.3480646886945065	0.3635030558377792
pop_tetramer.pdb_97	     6	12.01078	0.0000000000000000	A    	0.3480646886945065	0.3635030558377792
pop_tetramer.pdb_98	     8	15.99943	0.0000000000000000	A    	0.3025106490435313	0.7048581468486769
pop_tetramer.pdb_99	     6	12.01078	0.0000000000000000	A    	0.337953176162662	0.4553891161106184
pop_tetramer.pdb_100	     6	12.01078	0.0000000000000000	A    	0.3480646886945065	0.3635030558377792
pop_tetramer.pdb_101	     6	12.01078	0.0000000000000000	A    	0.3480646886945065	0.3635030558377792
pop_tetramer.pdb_102	     6	12.01078	0.0000000000000000	A    	0.3480646886945065	0.3635030558377792
pop_tetramer.pdb_103	     6	12.01078	0.0000000000000000	A    	0.3480646886945065	0.3635030558377792
pop_tetramer.pdb_104	     6	12.01078	0.0000000000000000	A    	0.3480646886945065	0.3635030558377792
pop_tetramer.pdb_105	     6	12.01078	0.0000000000000000	A    	0.3480646886945065	0.3635030558377792
pop_tetramer.pdb_106	     6	12.01078	0.0000000000000000	A    	0.3480646886945065	0.3635030558377792
pop_tetramer.pdb_107	     6	12.01078	0.0000000000000000	A    	0.3480646886945065	0.3635030558377792
pop_tetramer.pdb_108	     6	12.01078	0.0000000000000000	A    	0.337953176162662	0.4553891161106184
pop_tetramer.pdb_109	     7	14.00672	0.0000000000000000	A    	0.3206876023663901	0.7016212989374017
pop_tetramer.pdb_110	     6	12.01078	0.0000000000000000	A    	0.337953176162662	0.4553891161106184
pop_tetramer.pdb_111	     6	12.01078	0.0000000000000000	A    	0.3480646886945065	0.3635030558377792
pop_tetramer.pdb_112	     6	12.01078	0.0000000000000000	A    	0.3480646886945065	0.3635030558377792
pop_tetramer.pdb_113	     1	1.007947	0.0000000000000000	A    	0.2572581535063279	0.06531785996356952
pop_tetramer.pdb_114	     1	1.007947	0.0000000000000000	A    	0.2572581535063279	0.06531785996356952
pop_tetramer.pdb_115	     1	1.007947	0.0000000000000000	A    	0.2572581535063279	0.06531785996356952
pop_tetramer.pdb_116	     1	1.007947	0.0000000000000000	A    	0.2583225710839196	0.068656285380106
pop_tetramer.pdb_117	     1	1.007947	0.0000000000000000	A    	0.2583225710839196	0.068656285380106
pop_tetramer.pdb_118	     1	1.007947	0.0000000000000000	A    	0.2583225710839196	0.068656285380106
pop_tetramer.pdb_119	     1	1.007947	0.0000000000000000	A    	0.2572581535063279	0.06531785996356952
pop_tetramer.pdb_120	     1	1.007947	0.0000000000000000	A    	0.2572581535063279	0.06531785996356952
pop_tetramer.pdb_121	     1	1.007947	0.0000000000000000	A    	0.2572581535063279	0.06531785996356952
pop_tetramer.pdb_122	     1	1.007947	0.0000000000000000	A    	0.2572581535063279	0.06531785996356952
pop_tetramer.pdb_123	     1	1.007947	0.0000000000000000	A    	0.2572581535063279	0.06531785996356952
pop_tetramer.pdb_124	     1	1.007947	0.0000000000000000	A    	0.2572581535063279	0.06531785996356952
pop_tetramer.pdb_125	     1	1.007947	0.0000000000000000	A    	0.2583225710839196	0.068656285380106
pop_tetramer.pdb_126	     1	1.007947	0.0000000000000000	A    	0.1103427677297317	0.05895596890015097
pop_tetramer.pdb_127	     1	1.007947	0.0000000000000000	A    	0.2644543413268124	0.06602135607582665
pop_tetramer.pdb_128	     1	1.007947	0.0000000000000000	A    	0.2644543413268124	0.06602135607582665
pop_tetramer.pdb_129	     1	1.007947	0.0000000000000000	A    	0.2644543413268124	0.06602135607582665
pop_tetramer.pdb_130	     1	1.007947	0.0000000000000000	A    	0.2572581535063279	0.06531785996356952
pop_tetramer.pdb_131	     1	1.007947	0.0000000000000000	A    	0.2572581535063279	0.06531785996356952
pop_tetramer.pdb_132	     6	12.01078	0.0000000000000000	A    	0.3480646886945065	0.3635030558377792
pop_tetramer.pdb_133	     8	15.99943	0.0000000000000000	A    	0.3039812205065809	0.8795023257036865
pop_tetramer.pdb_134	     6	12.01078	0.0000000000000000	A    	0.3480646886945065	0.3635030558377792
pop_tetramer.pdb_135	     6	12.01078	0.0000000000000000	A    	0.3480646886945065	0.3635030558377792
pop_tetramer.pdb_136	     6	12.01078	0.0000000000000000	A    	0.3480646886945065	0.3635030558377792
pop_tetramer.pdb_137	     6	12.01078	0.0000000000000000	A    	0.3480646886945065	0.3635030558377792
pop_tetramer.pdb_138	     6	12.01078	0.0000000000000000	A    	0.3480646886945065	0.3635030558377792
pop_tetramer.pdb_139	     6	12.01078	0.0000000000000000	A    	0.3480646886945065	0.3635030558377792
pop_tetramer.pdb_140	     6	12.01078	0.0000000000000000	A    	0.3480646886945065	0.3635030558377792
pop_tetramer.pdb_141	     6	12.01078	0.0000000000000000	A    	0.3480646886945065	0.3635030558377792
pop_tetramer.pdb_142	     8	15.99943	0.0000000000000000	A    	0.3025106490435313	0.7048581468486769
pop_tetramer.pdb_143	     6	12.01078	0.0000000000000000	A    	0.337953176162662	0.4553891161106184
pop_tetramer.pdb_144	     6	12.01078	0.0000000000000000	A    	0.3480646886945065	0.3635030558377792
pop_tetramer.pdb_145	     6	12.01078	0.0000000000000000	A    	0.3480646886945065	0.3635030558377792
pop_tetramer.pdb_146	     6	12.01078	0.0000000000000000	A    	0.3480646886945065	0.3635030558377792
pop_tetramer.pdb_147	     6	12.01078	0.0000000000000000	A    	0.3480646886945065	0.3635030558377792
pop_tetramer.pdb_148	     6	12.01078	0.0000000000000000	A    	0.3480646886945065	0.3635030558377792
pop_tetramer.pdb_149	     6	12.01078	0.0000000000000000	A    	0.3480646886945065	0.3635030558377792
pop_tetramer.pdb_150	     6	12.01078	0.0000000000000000	A    	0.3480646886945065	0.3635030558377792
pop_tetramer.pdb_151	     6	12.01078	0.0000000000000000	A    	0.3480646886945065	0.3635030558377792
pop_tetramer.pdb_152	     6	12.01078	0.0000000000000000	A    	0.337953176162662	0.4553891161106184
pop_tetramer.pdb_153	     7	14.00672	0.0000000000000000	A    	0.3206876023663901	0.7016212989374017
pop_tetramer.pdb_154	     6	12.01078	0.0000000000000000	A    	0.337953176162662	0.4553891161106184
pop_tetramer.pdb_155	     6	12.01078	0.0000000000000000	A    	0.3480646886945065	0.3635030558377792
pop_tetramer.pdb_156	     6	12.01078	0.0000000000000000	A    	0.3480646886945065	0.3635030558377792
pop_tetramer.pdb_157	     1	1.007947	0.0000000000000000	A    	0.2572581535063279	0.06531785996356952
pop_tetramer.pdb_158	     1	1.007947	0.0000000000000000	A    	0.2572581535063279	0.06531785996356952
pop_tetramer.pdb_159	     1	1.007947	0.0000000000000000	A    	0.2572581535063279	0.06531785996356952
pop_tetramer.pdb_160	     1	1.007947	0.0000000000000000	A    	0.2583225710839196	0.068656285380106
pop_tetramer.pdb_161	     1	1.007947	0.0000000000000000	A    	0.2583225710839196	0.068656285380106
pop_tetramer.pdb_162	     1	1.007947	0.0000000000000000	A    	0.2583225710839196	0.068656285380106
pop_tetramer.pdb_163	     1	1.007947	0.0000000000000000	A    	0.2572581535063279	0.06531785996356952
pop_tetramer.pdb_164	     1	1.007947	0.0000000000000000	A    	0.2572581535063279	0.06531785996356952
pop_tetramer.pdb_165	     1	1.007947	0.0000000000000000	A    	0.2572581535063279	0.06531785996356952
pop_tetramer.pdb_166	     1	1.007947	0.0000000000000000	A    	0.2572581535063279	0.06531785996356952
pop_tetramer.pdb_167	     1	1.007947	0.0000000000000000	A    	0.2572581535063279	0.06531785996356952
pop_tetramer.pdb_168	     1	1.007947	0.0000000000000000	A    	0.2572581535063279	0.06531785996356952
pop_tetramer.pdb_169	     1	1.007947	0.0000000000000000	A    	0.2583225710839196	0.068656285380106
pop_tetramer.pdb_170	     1	1.007947	0.0000000000000000	A    	0.1103427677297317	0.05895596890015097
pop_tetramer.pdb_171	     1	1.007947	0.0000000000000000	A    	0.2644543413268124	0.06602135607582665
pop_tetramer.pdb_172	     1	1.007947	0.0000000000000000	A    	0.2644543413268124	0.06602135607582665
pop_tetramer.pdb_173	     1	1.007947	0.0000000000000000	A    	0.2644543413268124	0.06602135607582665
pop_tetramer.pdb_174	     1	1.007947	0.0000000000000000	A    	0.2572581535063279	0.06531785996356952
pop_tetramer.pdb_175	     1	1.007947	0.0000000000000000	A    	0.2572581535063279	0.06531785996356952
pop_tetramer.pdb_176	     6	12.01078	0.0000000000000000	A    	0.337953176162662	0.4553891161106184
pop_tetramer.pdb_177	     8	15.99943	0.0000000000000000	A    	0.3025106490435313	0.7048581468486769
pop_tetramer.pdb_178	     1	1.007947	0.0000000000000000	A    	0.2583225710839196	0.068656285380106
pop_tetramer.pdb_179	     1	1.007947	0.0000000000000000	A    	0.2583225710839196	0.068656285380106
pop_tetramer.pdb_180	     1	1.007947	0.0000000000000000	A    	0.2583225710839196	0.068656285380106
pop_tetramer.pdb_181	     6	12.01078	0.0000000000000000	A    	0.337953176162662	0.4553891161106184
pop_tetramer.pdb_182	     6	12.01078	0.0000000000000000	A    	0.337953176162662	0.4553891161106184
pop_tetramer.pdb_183	     6	12.01078	0.0000000000000000	A    	0.337953176162662	0.4553891161106184
pop_tetramer.pdb_184	     6	12.01078	0.0000000000000000	A    	0.337953176162662	0.4553891161106184
pop_tetramer.pdb_185	     8	15.99943	0.0000000000000000	A    	0.3025106490435313	0.7048581468486769
pop_tetramer.pdb_186	     6	12.01078	0.0000000000000000	A    	0.3480646886945065	0.3635030558377792
pop_tetramer.pdb_187	     8	15.99943	0.0000000000000000	A    	0.3039812205065809	0.8795023257036865
pop_tetramer.pdb_188	     1	1.007947	0.0000000000000000	A    	0.2644543413268124	0.06602135607582665
pop_tetramer.pdb_189	     1	1.007947	0.0000000000000000	A    	0.2644543413268124	0.06602135607582665
pop_tetramer.pdb_190	     1	1.007947	0.0000000000000000	A    	0.2644543413268124	0.06602135607582665
pop_tetramer.pdb_191	     1	1.007947	0.0000000000000000	A    	0.2644543413268124	0.06602135607582665
pop_tetramer.pdb_192	     1	1.007947	0.0000000000000000	A    	0.2644543413268124	0.06602135607582665
pop_tetramer.pdb_193	     1	1.007947	0.0000000000000000	A    	0.2644543413268124	0.06602135607582665
pop_tetramer.pdb_194	     1	1.007947	0.0000000000000000	A    	0.2644543413268124	0.06602135607582665
pop_tetramer.pdb_195	     1	1.007947	0.0000000000000000	A    	0.2644543413268124	0.06602135607582665
pop_tetramer.pdb_196	     1	1.007947	0.0000000000000000	A    	0.2644543413268124	0.06602135607582665

[ moleculetype ]
pop_tetramer.pdb	         3

[ atoms ]
;index, atom type, resnum, resname, name, cgnr, charge, mass
     1 pop_tetramer.pdb_0       1 POP      C1         1      0.642570019145     12.010780000000
     2 pop_tetramer.pdb_1       1 POP      O2         1     -0.546259998898     15.999430000000
     3 pop_tetramer.pdb_2       1 POP      C3         1     -0.142000004272     12.010780000000
     4 pop_tetramer.pdb_3       1 POP      C4         1     -0.077840000014     12.010780000000
     5 pop_tetramer.pdb_4       1 POP      C5         1     -0.127709999303     12.010780000000
     6 pop_tetramer.pdb_5       1 POP      C6         1     -0.001919999574     12.010780000000
     7 pop_tetramer.pdb_6       1 POP      C7         1     -0.078290000181     12.010780000000
     8 pop_tetramer.pdb_7       1 POP      C8         1      0.010339999948     12.010780000000
     9 pop_tetramer.pdb_8       1 POP      C9         1     -0.148029997568     12.010780000000
    10 pop_tetramer.pdb_9       1 POP      C10        1      0.131540000816     12.010780000000
    11 pop_tetramer.pdb_10       1 POP      O11        1     -0.325769990306     15.999430000000
    12 pop_tetramer.pdb_11       1 POP      C12        1      0.115510002156     12.010780000000
    13 pop_tetramer.pdb_12       1 POP      C13        1     -0.207560002427     12.010780000000
    14 pop_tetramer.pdb_13       1 POP      C14        1     -0.081629998605     12.010780000000
    15 pop_tetramer.pdb_14       1 POP      C15        1     -0.039019997786     12.010780000000
    16 pop_tetramer.pdb_15       1 POP      C16        1     -0.108350000899     12.010780000000
    17 pop_tetramer.pdb_16       1 POP      C17        1     -0.122230000417     12.010780000000
    18 pop_tetramer.pdb_17       1 POP      C18        1     -0.097180001061     12.010780000000
    19 pop_tetramer.pdb_18       1 POP      C19        1     -0.122230000417     12.010780000000
    20 pop_tetramer.pdb_19       1 POP      C20        1     -0.108350000899     12.010780000000
    21 pop_tetramer.pdb_20       1 POP      C21        1      0.149309993167     12.010780000000
    22 pop_tetramer.pdb_21       1 POP      N22        1     -0.578299998860     14.006720000000
    23 pop_tetramer.pdb_22       1 POP      C23        1     -0.110019996385     12.010780000000
    24 pop_tetramer.pdb_23       1 POP      C24        1     -0.127709999303     12.010780000000
    25 pop_tetramer.pdb_24       1 POP      C25        1     -0.077840000014     12.010780000000
    26 pop_tetramer.pdb_25       1 POP      H26        1      0.155289993067      1.007947000000
    27 pop_tetramer.pdb_26       1 POP      H27        1      0.143079996486      1.007947000000
    28 pop_tetramer.pdb_27       1 POP      H28        1      0.158059999724      1.007947000000
    29 pop_tetramer.pdb_28       1 POP      H29        1      0.046480000396      1.007947000000
    30 pop_tetramer.pdb_29       1 POP      H30        1      0.046480000396      1.007947000000
    31 pop_tetramer.pdb_30       1 POP      H31        1      0.046480000396      1.007947000000
    32 pop_tetramer.pdb_31       1 POP      H32        1      0.141210005064      1.007947000000
    33 pop_tetramer.pdb_32       1 POP      H33        1      0.140039995690      1.007947000000
    34 pop_tetramer.pdb_33       1 POP      H34        1      0.139200002332      1.007947000000
    35 pop_tetramer.pdb_34       1 POP      H35        1      0.134819999714      1.007947000000
    36 pop_tetramer.pdb_35       1 POP      H36        1      0.134819999714      1.007947000000
    37 pop_tetramer.pdb_36       1 POP      H37        1      0.139200002332      1.007947000000
    38 pop_tetramer.pdb_37       1 POP      H38        1      0.085869998117      1.007947000000
    39 pop_tetramer.pdb_38       1 POP      H39        1      0.311879992862      1.007947000000
    40 pop_tetramer.pdb_39       1 POP      H40        1      0.044500001152      1.007947000000
    41 pop_tetramer.pdb_40       1 POP      H41        1      0.044500001152      1.007947000000
    42 pop_tetramer.pdb_41       1 POP      H42        1      0.044500001152      1.007947000000
    43 pop_tetramer.pdb_42       1 POP      H43        1      0.143079996486      1.007947000000
    44 pop_tetramer.pdb_43       1 POP      H44        1      0.155289993067      1.007947000000
    45 pop_tetramer.pdb_44       2 POP      C45        1      0.683770001312     12.010780000000
    46 pop_tetramer.pdb_45       2 POP      O46        1     -0.603169977288     15.999430000000
    47 pop_tetramer.pdb_46       2 POP      C47        1     -0.139640003066     12.010780000000
    48 pop_tetramer.pdb_47       2 POP      C48        1     -0.098039999227     12.010780000000
    49 pop_tetramer.pdb_48       2 POP      C49        1     -0.120750002186     12.010780000000
    50 pop_tetramer.pdb_49       2 POP      C50        1     -0.009050000082     12.010780000000
    51 pop_tetramer.pdb_50       2 POP      C51        1     -0.075790002565     12.010780000000
    52 pop_tetramer.pdb_51       2 POP      C52        1      0.006640000180     12.010780000000
    53 pop_tetramer.pdb_52       2 POP      C53        1     -0.143230005722     12.010780000000
    54 pop_tetramer.pdb_53       2 POP      C54        1      0.126519993325     12.010780000000
    55 pop_tetramer.pdb_54       2 POP      O55        1     -0.322690009694     15.999430000000
    56 pop_tetramer.pdb_55       2 POP      C56        1      0.112109996755     12.010780000000
    57 pop_tetramer.pdb_56       2 POP      C57        1     -0.204419999938     12.010780000000
    58 pop_tetramer.pdb_57       2 POP      C58        1     -0.081940002362     12.010780000000
    59 pop_tetramer.pdb_58       2 POP      C59        1     -0.038369997959     12.010780000000
    60 pop_tetramer.pdb_59       2 POP      C60        1     -0.109590001027     12.010780000000
    61 pop_tetramer.pdb_60       2 POP      C61        1     -0.123039997737     12.010780000000
    62 pop_tetramer.pdb_61       2 POP      C62        1     -0.093780003111     12.010780000000
    63 pop_tetramer.pdb_62       2 POP      C63        1     -0.123039997737     12.010780000000
    64 pop_tetramer.pdb_63       2 POP      C64        1     -0.109590001027     12.010780000000
    65 pop_tetramer.pdb_64       2 POP      C65        1      0.150590002914     12.010780000000
    66 pop_tetramer.pdb_65       2 POP      N66        1     -0.570089995484     14.006720000000
    67 pop_tetramer.pdb_66       2 POP      C67        1     -0.108029998462     12.010780000000
    68 pop_tetramer.pdb_67       2 POP      C68        1     -0.120750002186     12.010780000000
    69 pop_tetramer.pdb_68       2 POP      C69        1     -0.098039999227     12.010780000000
    70 pop_tetramer.pdb_69       2 POP      H70        1      0.142869994421      1.007947000000
    71 pop_tetramer.pdb_70       2 POP      H71        1      0.143720001359      1.007947000000
    72 pop_tetramer.pdb_71       2 POP      H72        1      0.157920003314      1.007947000000
    73 pop_tetramer.pdb_72       2 POP      H73        1      0.044930000235      1.007947000000
    74 pop_tetramer.pdb_73       2 POP      H74        1      0.044930000235      1.007947000000
    75 pop_tetramer.pdb_74       2 POP      H75        1      0.044930000235      1.007947000000
    76 pop_tetramer.pdb_75       2 POP      H76        1      0.142619997640      1.007947000000
    77 pop_tetramer.pdb_76       2 POP      H77        1      0.139919996639      1.007947000000
    78 pop_tetramer.pdb_77       2 POP      H78        1      0.139630005141      1.007947000000
    79 pop_tetramer.pdb_78       2 POP      H79        1      0.131809994955      1.007947000000
    80 pop_tetramer.pdb_79       2 POP      H80        1      0.131809994955      1.007947000000
    81 pop_tetramer.pdb_80       2 POP      H81        1      0.139630005141      1.007947000000
    82 pop_tetramer.pdb_81       2 POP      H82        1      0.082280002911      1.007947000000
    83 pop_tetramer.pdb_82       2 POP      H83        1      0.311509997030      1.007947000000
    84 pop_tetramer.pdb_83       2 POP      H84        1      0.045469999690      1.007947000000
    85 pop_tetramer.pdb_84       2 POP      H85        1      0.045469999690      1.007947000000
    86 pop_tetramer.pdb_85       2 POP      H86        1      0.045469999690      1.007947000000
    87 pop_tetramer.pdb_86       2 POP      H87        1      0.143720001359      1.007947000000
    88 pop_tetramer.pdb_87       2 POP      H88        1      0.142869994421      1.007947000000
    89 pop_tetramer.pdb_88       3 POP      C89        1      0.679570019622     12.010780000000
    90 pop_tetramer.pdb_89       3 POP      O90        1     -0.606819986920     15.999430000000
    91 pop_tetramer.pdb_90       3 POP      C91        1     -0.148010000209     12.010780000000
    92 pop_tetramer.pdb_91       3 POP      C92        1     -0.091399997096     12.010780000000
    93 pop_tetramer.pdb_92       3 POP      C93        1     -0.124049998443     12.010780000000
    94 pop_tetramer.pdb_93       3 POP      C94        1     -0.010369999889     12.010780000000
    95 pop_tetramer.pdb_94       3 POP      C95        1     -0.071269996087     12.010780000000
    96 pop_tetramer.pdb_95       3 POP      C96        1      0.009540000376     12.010780000000
    97 pop_tetramer.pdb_96       3 POP      C97        1     -0.142770006876     12.010780000000
    98 pop_tetramer.pdb_97       3 POP      C98        1      0.122570000966     12.010780000000
    99 pop_tetramer.pdb_98       3 POP      O99        1     -0.322569995742     15.999430000000
   100 pop_tetramer.pdb_99       3 POP      C100       1      0.110040001948     12.010780000000
   101 pop_tetramer.pdb_100       3 POP      C101       1     -0.204490005593     12.010780000000
   102 pop_tetramer.pdb_101       3 POP      C102       1     -0.085960000376     12.010780000000
   103 pop_tetramer.pdb_102       3 POP      C103       1     -0.049690000336     12.010780000000
   104 pop_tetramer.pdb_103       3 POP      C104       1     -0.114900000016     12.010780000000
   105 pop_tetramer.pdb_104       3 POP      C105       1     -0.118119999389     12.010780000000
   106 pop_tetramer.pdb_105       3 POP      C106       1     -0.086800001185     12.010780000000
   107 pop_tetramer.pdb_106       3 POP      C107       1     -0.118119999389     12.010780000000
   108 pop_tetramer.pdb_107       3 POP      C108       1     -0.114900000016     12.010780000000
   109 pop_tetramer.pdb_108       3 POP      C109       1      0.153280005236     12.010780000000
   110 pop_tetramer.pdb_109       3 POP      N110       1     -0.577729999642     14.006720000000
   111 pop_tetramer.pdb_110       3 POP      C111       1     -0.110030002515     12.010780000000
   112 pop_tetramer.pdb_111       3 POP      C112       1     -0.124049998443     12.010780000000
   113 pop_tetramer.pdb_112       3 POP      C113       1     -0.091399997096     12.010780000000
   114 pop_tetramer.pdb_113       3 POP      H114       1      0.148149997373      1.007947000000
   115 pop_tetramer.pdb_114       3 POP      H115       1      0.142189994831      1.007947000000
   116 pop_tetramer.pdb_115       3 POP      H116       1      0.162619993468      1.007947000000
   117 pop_tetramer.pdb_116       3 POP      H117       1      0.044480000068      1.007947000000
   118 pop_tetramer.pdb_117       3 POP      H118       1      0.044480000068      1.007947000000
   119 pop_tetramer.pdb_118       3 POP      H119       1      0.044480000068      1.007947000000
   120 pop_tetramer.pdb_119       3 POP      H120       1      0.138999998947      1.007947000000
   121 pop_tetramer.pdb_120       3 POP      H121       1      0.137769997497      1.007947000000
   122 pop_tetramer.pdb_121       3 POP      H122       1      0.132699996610      1.007947000000
   123 pop_tetramer.pdb_122       3 POP      H123       1      0.139330000062      1.007947000000
   124 pop_tetramer.pdb_123       3 POP      H124       1      0.139330000062      1.007947000000
   125 pop_tetramer.pdb_124       3 POP      H125       1      0.132699996610      1.007947000000
   126 pop_tetramer.pdb_125       3 POP      H126       1      0.087959997733      1.007947000000
   127 pop_tetramer.pdb_126       3 POP      H127       1      0.313199997325      1.007947000000
   128 pop_tetramer.pdb_127       3 POP      H128       1      0.042449999978      1.007947000000
   129 pop_tetramer.pdb_128       3 POP      H129       1      0.042449999978      1.007947000000
   130 pop_tetramer.pdb_129       3 POP      H130       1      0.042449999978      1.007947000000
   131 pop_tetramer.pdb_130       3 POP      H131       1      0.142189994831      1.007947000000
   132 pop_tetramer.pdb_131       3 POP      H132       1      0.148149997373      1.007947000000
   133 pop_tetramer.pdb_132       4 POP      C133       1      0.677339971443     12.010780000000
   134 pop_tetramer.pdb_133       4 POP      O134       1     -0.603540002923     15.999430000000
   135 pop_tetramer.pdb_134       4 POP      C135       1     -0.136910006027     12.010780000000
   136 pop_tetramer.pdb_135       4 POP      C136       1     -0.084700002889     12.010780000000
   137 pop_tetramer.pdb_136       4 POP      C137       1     -0.125880002598     12.010780000000
   138 pop_tetramer.pdb_137       4 POP      C138       1     -0.013279999229     12.010780000000
   139 pop_tetramer.pdb_138       4 POP      C139       1     -0.067290000240     12.010780000000
   140 pop_tetramer.pdb_139       4 POP      C140       1      0.007460000370     12.010780000000
   141 pop_tetramer.pdb_140       4 POP      C141       1     -0.147949993233     12.010780000000
   142 pop_tetramer.pdb_141       4 POP      C142       1      0.124250002582     12.010780000000
   143 pop_tetramer.pdb_142       4 POP      O143       1     -0.328550010543     15.999430000000
   144 pop_tetramer.pdb_143       4 POP      C144       1      0.112860002001     12.010780000000
   145 pop_tetramer.pdb_144       4 POP      C145       1     -0.202299996833     12.010780000000
   146 pop_tetramer.pdb_145       4 POP      C146       1     -0.083339996259     12.010780000000
   147 pop_tetramer.pdb_146       4 POP      C147       1     -0.043299998711     12.010780000000
   148 pop_tetramer.pdb_147       4 POP      C148       1     -0.109360001604     12.010780000000
   149 pop_tetramer.pdb_148       4 POP      C149       1     -0.119829997043     12.010780000000
   150 pop_tetramer.pdb_149       4 POP      C150       1     -0.101669996600     12.010780000000
   151 pop_tetramer.pdb_150       4 POP      C151       1     -0.119829997043     12.010780000000
   152 pop_tetramer.pdb_151       4 POP      C152       1     -0.109360001604     12.010780000000
   153 pop_tetramer.pdb_152       4 POP      C153       1      0.146210000296     12.010780000000
   154 pop_tetramer.pdb_153       4 POP      N154       1     -0.539099990945     14.006720000000
   155 pop_tetramer.pdb_154       4 POP      C155       1     -0.096519998829     12.010780000000
   156 pop_tetramer.pdb_155       4 POP      C156       1     -0.125880002598     12.010780000000
   157 pop_tetramer.pdb_156       4 POP      C157       1     -0.084700002889     12.010780000000
   158 pop_tetramer.pdb_157       4 POP      H158       1      0.147960007568      1.007947000000
   159 pop_tetramer.pdb_158       4 POP      H159       1      0.136790007730      1.007947000000
   160 pop_tetramer.pdb_159       4 POP      H160       1      0.155389994760      1.007947000000
   161 pop_tetramer.pdb_160       4 POP      H161       1      0.044930000235      1.007947000000
   162 pop_tetramer.pdb_161       4 POP      H162       1      0.044930000235      1.007947000000
   163 pop_tetramer.pdb_162       4 POP      H163       1      0.044930000235      1.007947000000
   164 pop_tetramer.pdb_163       4 POP      H164       1      0.138280004640      1.007947000000
   165 pop_tetramer.pdb_164       4 POP      H165       1      0.141670003910      1.007947000000
   166 pop_tetramer.pdb_165       4 POP      H166       1      0.133310005446      1.007947000000
   167 pop_tetramer.pdb_166       4 POP      H167       1      0.135429993649      1.007947000000
   168 pop_tetramer.pdb_167       4 POP      H168       1      0.135429993649      1.007947000000
   169 pop_tetramer.pdb_168       4 POP      H169       1      0.133310005446      1.007947000000
   170 pop_tetramer.pdb_169       4 POP      H170       1      0.090889998157      1.007947000000
   171 pop_tetramer.pdb_170       4 POP      H171       1      0.319150001188      1.007947000000
   172 pop_tetramer.pdb_171       4 POP      H172       1      0.045460001011      1.007947000000
   173 pop_tetramer.pdb_172       4 POP      H173       1      0.045460001011      1.007947000000
   174 pop_tetramer.pdb_173       4 POP      H174       1      0.045460001011      1.007947000000
   175 pop_tetramer.pdb_174       4 POP      H175       1      0.136790007730      1.007947000000
   176 pop_tetramer.pdb_175       4 POP      H176       1      0.147960007568      1.007947000000
   177 pop_tetramer.pdb_176       5 CAP      C177       1      0.125619992991     12.010780000000
   178 pop_tetramer.pdb_177       5 CAP      O178       1     -0.427320003133     15.999430000000
   179 pop_tetramer.pdb_178       5 CAP      H179       1      0.052639998873      1.007947000000
   180 pop_tetramer.pdb_179       5 CAP      H180       1      0.052639998873      1.007947000000
   181 pop_tetramer.pdb_180       5 CAP      H181       1      0.052639998873      1.007947000000
   182 pop_tetramer.pdb_181       6 CAP      C182       1     -0.115400001030     12.010780000000
   183 pop_tetramer.pdb_182       6 CAP      C183       1      0.187950000544     12.010780000000
   184 pop_tetramer.pdb_183       6 CAP      C184       1     -0.115400001030     12.010780000000
   185 pop_tetramer.pdb_184       6 CAP      C185       1     -0.115400001030     12.010780000000
   186 pop_tetramer.pdb_185       6 CAP      O186       1     -0.446469992022     15.999430000000
   187 pop_tetramer.pdb_186       6 CAP      C187       1      0.745679974933     12.010780000000
   188 pop_tetramer.pdb_187       6 CAP      O188       1     -0.582289993386     15.999430000000
   189 pop_tetramer.pdb_188       6 CAP      H189       1      0.051690001418      1.007947000000
   190 pop_tetramer.pdb_189       6 CAP      H190       1      0.051690001418      1.007947000000
   191 pop_tetramer.pdb_190       6 CAP      H191       1      0.051690001418      1.007947000000
   192 pop_tetramer.pdb_191       6 CAP      H192       1      0.051690001418      1.007947000000
   193 pop_tetramer.pdb_192       6 CAP      H193       1      0.051690001418      1.007947000000
   194 pop_tetramer.pdb_193       6 CAP      H194       1      0.051690001418      1.007947000000
   195 pop_tetramer.pdb_194       6 CAP      H195       1      0.051690001418      1.007947000000
   196 pop_tetramer.pdb_195       6 CAP      H196       1      0.051690001418      1.007947000000
   197 pop_tetramer.pdb_196       6 CAP      H197       1      0.051690001418      1.007947000000

[ pairs ]
;ai    aj   funct
    10	    31	     1
   100	   101	     1
    92	    95	     1
    95	    98	     1
   143	   164	     1
   139	   159	     1
   111	   127	     1
   145	   160	     1
    22	    41	     1
   146	   147	     1
   110	   129	     1
   151	   170	     1
    54	    59	     1
   182	   193	     1
    76	    77	     1
    52	    77	     1
    43	    44	     1
     9	    12	     1
    97	   100	     1
    38	    41	     1
    45	    49	     1
   150	   172	     1
     1	   179	     1
    83	    91	     1
    93	   113	     1
   140	   143	     1
   138	   165	     1
   139	   152	     1
   135	   138	     1
   138	   145	     1
   106	   128	     1
    62	    85	     1
   141	   148	     1
   136	   156	     1
    17	    38	     1
    14	    24	     1
   105	   126	     1
   154	   183	     1
    49	    87	     1
     9	    32	     1
    66	   113	     1
    59	    62	     1
    61	    67	     1
   185	   189	     1
    68	    71	     1
    52	    81	     1
   184	   191	     1
    99	   116	     1
   151	   167	     1
    38	    45	     1
   126	   128	     1
    95	   115	     1
    94	    97	     1
    16	    37	     1
    23	    45	     1
    89	   112	     1
    90	    92	     1
   111	   133	     1
   142	   163	     1
   138	   158	     1
    15	    35	     1
    18	    42	     1
    78	    79	     1
    21	    36	     1
    62	    78	     1
   109	   124	     1
   186	   193	     1
    61	    80	     1
    92	   132	     1
     8	    34	     1
     6	     9	     1
   184	   195	     1
    99	   120	     1
    66	    86	     1
     7	    27	     1
    47	    71	     1
    89	   132	     1
    10	    30	     1
   150	   169	     1
    95	   108	     1
    99	   102	     1
   134	   157	     1
    82	    86	     1
    16	    19	     1
    22	    40	     1
    63	    82	     1
   110	   128	     1
    15	    28	     1
   186	   197	     1
    53	    58	     1
   137	   140	     1
   182	   192	     1
   104	   125	     1
    51	    76	     1
     7	    20	     1
    94	   121	     1
   147	   168	     1
   171	   186	     1
   135	   175	     1
     5	    43	     1
    96	    99	     1
   152	   153	     1
    94	   103	     1
   139	   142	     1
    18	    39	     1
    12	    13	     1
   106	   127	     1
    62	    84	     1
   186	   190	     1
    80	    81	     1
     6	    15	     1
    57	    72	     1
    67	    83	     1
   114	   115	     1
   149	   170	     1
    66	    92	     1
   155	   187	     1
   120	   121	     1
    51	    69	     1
    96	   112	     1
    25	   178	     1
     8	    13	     1
   152	   166	     1
   140	   166	     1
   170	   172	     1
     7	    10	     1
   143	   160	     1
     3	    27	     1
   142	   162	     1
     1	    26	     1
    82	    83	     1
    63	    79	     1
   109	   134	     1
    26	    27	     1
    53	    64	     1
   137	   146	     1
    21	    35	     1
   136	   139	     1
   107	   111	     1
   185	   192	     1
   103	   124	     1
     8	    24	     1
    66	    85	     1
    48	    68	     1
    11	    32	     1
    50	    57	     1
   108	   109	     1
   168	   169	     1
    13	    28	     1
    96	   105	     1
   103	   106	     1
   133	   176	     1
    25	    26	     1
    20	    34	     1
    87	    88	     1
   139	   148	     1
   146	   156	     1
   141	   164	     1
    18	    45	     1
   106	   133	     1
   133	   158	     1
   138	   141	     1
    19	    23	     1
   134	   136	     1
    15	    18	     1
    62	    81	     1
   141	   144	     1
   186	   196	     1
    54	    75	     1
   153	   188	     1
     8	    37	     1
    67	    89	     1
    96	   125	     1
   153	   168	     1
   102	   112	     1
   113	   114	     1
     8	    17	     1
   127	   135	     1
   184	   187	     1
    65	    91	     1
    50	    88	     1
    98	   121	     1
    10	    33	     1
   122	   123	     1
     4	    44	     1
     4	    24	     1
   143	   146	     1
    93	   102	     1
    82	    89	     1
   182	   195	     1
    52	    63	     1
   186	   189	     1
    56	    57	     1
    97	   120	     1
   154	   172	     1
   108	   122	     1
     1	     5	     1
     7	    43	     1
    95	   131	     1
    47	    87	     1
   124	   125	     1
     2	   177	     1
    60	    65	     1
   148	   169	     1
   105	   108	     1
   158	   159	     1
    97	   102	     1
   150	   174	     1
    95	   104	     1
     1	   181	     1
   170	   171	     1
   140	   156	     1
   148	   151	     1
   136	   176	     1
   142	   161	     1
   138	   147	     1
     3	     6	     1
    58	    59	     1
   106	   130	     1
    17	    20	     1
   107	   110	     1
   185	   191	     1
    48	    51	     1
    49	    69	     1
     9	    14	     1
    96	   122	     1
   103	   123	     1
    51	    72	     1
     7	    16	     1
    98	   118	     1
   126	   130	     1
     2	    25	     1
    46	    69	     1
   140	   149	     1
     5	     8	     1
   110	   157	     1
    32	    33	     1
    89	   114	     1
   142	   165	     1
    19	    22	     1
   186	   195	     1
    53	    56	     1
    54	    74	     1
    61	    82	     1
   184	   197	     1
   153	   167	     1
   103	   116	     1
   127	   134	     1
    39	    47	     1
    65	    90	     1
     6	    13	     1
   140	   169	     1
   104	   107	     1
    38	    40	     1
   150	   171	     1
    34	    35	     1
     3	    43	     1
   151	   155	     1
    83	    90	     1
   147	   150	     1
    24	    27	     1
    19	    35	     1
    22	    42	     1
   110	   130	     1
    22	    69	     1
     6	    44	     1
    53	    60	     1
   182	   194	     1
    61	    66	     1
   184	   190	     1
    47	    50	     1
   131	   132	     1
    50	    53	     1
    11	    28	     1
    55	    72	     1
    45	    88	     1
   126	   127	     1
   157	   158	     1
    96	   101	     1
   149	   152	     1
     5	    25	     1
    45	    68	     1
     5	    14	     1
   139	   164	     1
     4	     7	     1
     2	     4	     1
    18	    41	     1
   106	   129	     1
    62	    86	     1
   109	   123	     1
   186	   192	     1
    49	    52	     1
   182	   187	     1
    69	    70	     1
    52	    55	     1
    48	    88	     1
     8	    33	     1
    51	    64	     1
    96	   121	     1
    55	    76	     1
   105	   111	     1
    51	    71	     1
    98	   117	     1
   139	   175	     1
    10	    29	     1
   170	   174	     1
    36	    37	     1
   139	   157	     1
    22	    48	     1
    82	    85	     1
    89	    93	     1
    18	    34	     1
   106	   122	     1
    17	    23	     1
   185	   194	     1
    60	    81	     1
   184	   196	     1
     7	    28	     1
    65	    80	     1
    50	    77	     1
   126	   133	     1
     4	   178	     1
    11	    14	     1
   147	   167	     1
    38	    39	     1
    96	   107	     1
   170	   187	     1
    91	   115	     1
   147	   160	     1
    98	   103	     1
   151	   154	     1
    23	    39	     1
    62	    83	     1
   141	   146	     1
    49	    58	     1
    17	    36	     1
    54	    77	     1
   105	   124	     1
    52	    61	     1
   185	   187	     1
     7	    32	     1
     8	    19	     1
    52	    68	     1
    95	   120	     1
   184	   189	     1
   102	   103	     1
    93	   131	     1
    50	    70	     1
   164	   165	     1
    10	    15	     1
    95	   113	     1
   156	   159	     1
   140	   165	     1
   140	   145	     1
    19	    38	     1
   107	   126	     1
    18	    40	     1
    63	    67	     1
   182	   197	     1
   186	   191	     1
   154	   174	     1
    14	    15	     1
   101	   116	     1
    51	    54	     1
    59	    80	     1
    66	    84	     1
     7	    25	     1
   105	   110	     1
   150	   187	     1
    97	   104	     1
    92	   112	     1
   138	   176	     1
   175	   176	     1
   149	   155	     1
   170	   173	     1
   148	   153	     1
    82	    84	     1
    21	    47	     1
    61	    64	     1
    62	    89	     1
   109	   135	     1
   141	   152	     1
   133	   137	     1
    58	    68	     1
   166	   167	     1
    17	    22	     1
   185	   193	     1
     9	    16	     1
    64	    65	     1
   112	   115	     1
    70	    71	     1
    97	   108	     1
    65	    79	     1
     3	   177	     1
   140	   151	     1
    91	    94	     1
    94	   101	     1
   139	   160	     1
    16	    21	     1
   107	   123	     1
   142	   147	     1
    18	    37	     1
   106	   125	     1
     6	    33	     1
    53	    76	     1
     9	    20	     1
    64	    78	     1
    51	    60	     1
    52	    78	     1
   149	   168	     1
    51	    87	     1
    94	   132	     1
   183	   188	     1
    46	    48	     1
   171	   188	     1
   104	   109	     1
    38	    42	     1
   150	   173	     1
     8	    11	     1
    94	   114	     1
     1	   180	     1
     1	    44	     1
   144	   145	     1
   150	   166	     1
   135	   159	     1
     1	    24	     1
    63	    66	     1
   182	   196	     1
     6	    26	     1
   154	   173	     1
   155	   171	     1
   185	   190	     1
    55	    58	     1
    59	    79	     1
   126	   129	     1
   149	   154	     1
    45	    70	     1
   137	   175	     1
    90	   113	     1
    20	    21	     1
    93	    96	     1
   110	   136	     1
    15	    36	     1
   137	   157	     1
   133	   156	     1
    21	    46	     1
   186	   194	     1
    54	    73	     1
    60	    63	     1
   153	   186	     1
    52	    57	     1
    91	   131	     1
    50	    59	     1
    95	   116	     1
    59	    72	     1
    39	    46	     1
    98	   119	     1

[ bonds ]
;ai    aj   funct r k
     1      2      1      0.122519838622  487602.327766196802 
     1      3      1      0.145462892503  233580.248617646750 
     1    178      1      0.134574123280  252005.673256632901 
     3      4      1      0.138719322718  301905.092578520998 
     3     25      1      0.138719322718  301905.092578520998 
     4      5      1      0.138719322718  301905.092578520998 
     4     26      1      0.108535849592  332422.631675317942 
     5      6      1      0.138719322718  301905.092578520998 
     5     27      1      0.108535849592  332422.631675317942 
     6      7      1      0.145462892503  233580.248617646750 
     6     24      1      0.138719322718  301905.092578520998 
     7      8      1      0.138719322718  301905.092578520998 
     7     14      1      0.138719322718  301905.092578520998 
     8      9      1      0.138719322718  301905.092578520998 
     8     15      1      0.145462892503  233580.248617646750 
     9     10      1      0.138719322718  301905.092578520998 
     9     28      1      0.108535849592  332422.631675317942 
    10     11      1      0.136294580649  356218.264001121745 
    10     13      1      0.138719322718  301905.092578520998 
    11     12      1      0.142589505373  306888.771877388994 
    12     29      1      0.109389949263  309655.084322414012 
    12     30      1      0.109389949263  309655.084322414012 
    12     31      1      0.109389949263  309655.084322414012 
    13     14      1      0.138719322718  301905.092578520998 
    13     32      1      0.108535849592  332422.631675317942 
    14     33      1      0.108535849592  332422.631675317942 
    15     16      1      0.138719322718  301905.092578520998 
    15     20      1      0.138719322718  301905.092578520998 
    16     17      1      0.138719322718  301905.092578520998 
    16     34      1      0.108535849592  332422.631675317942 
    17     18      1      0.138719322718  301905.092578520998 
    17     35      1      0.108535849592  332422.631675317942 
    18     19      1      0.138719322718  301905.092578520998 
    18     21      1      0.149864681646  242452.869388089370 
    19     20      1      0.138719322718  301905.092578520998 
    19     36      1      0.108535849592  332422.631675317942 
    20     37      1      0.108535849592  332422.631675317942 
    21     22      1      0.145009858627  294600.927775905351 
    21     23      1      0.152190126495  221435.259290285845 
    21     38      1      0.109389949263  309655.084322414012 
    22     39      1      0.101948186503  422704.914414302446 
    22     45      1      0.138189777668  412347.817359175009 
    23     40      1      0.109389949263  309655.084322414012 
    23     41      1      0.109389949263  309655.084322414012 
    23     42      1      0.109389949263  309655.084322414012 
    24     25      1      0.138719322718  301905.092578520998 
    24     43      1      0.108535849592  332422.631675317942 
    25     44      1      0.108535849592  332422.631675317942 
    45     46      1      0.122519838622  487602.327766196802 
    45     47      1      0.145462892503  233580.248617646750 
    47     48      1      0.138719322718  301905.092578520998 
    47     69      1      0.138719322718  301905.092578520998 
    48     49      1      0.138719322718  301905.092578520998 
    48     70      1      0.108535849592  332422.631675317942 
    49     50      1      0.138719322718  301905.092578520998 
    49     71      1      0.108535849592  332422.631675317942 
    50     51      1      0.145462892503  233580.248617646750 
    50     68      1      0.138719322718  301905.092578520998 
    51     52      1      0.138719322718  301905.092578520998 
    51     58      1      0.138719322718  301905.092578520998 
    52     53      1      0.138719322718  301905.092578520998 
    52     59      1      0.145462892503  233580.248617646750 
    53     54      1      0.138719322718  301905.092578520998 
    53     72      1      0.108535849592  332422.631675317942 
    54     55      1      0.136294580649  356218.264001121745 
    54     57      1      0.138719322718  301905.092578520998 
    55     56      1      0.142589505373  306888.771877388994 
    56     73      1      0.109389949263  309655.084322414012 
    56     74      1      0.109389949263  309655.084322414012 
    56     75      1      0.109389949263  309655.084322414012 
    57     58      1      0.138719322718  301905.092578520998 
    57     76      1      0.108535849592  332422.631675317942 
    58     77      1      0.108535849592  332422.631675317942 
    59     60      1      0.138719322718  301905.092578520998 
    59     64      1      0.138719322718  301905.092578520998 
    60     61      1      0.138719322718  301905.092578520998 
    60     78      1      0.108535849592  332422.631675317942 
    61     62      1      0.138719322718  301905.092578520998 
    61     79      1      0.108535849592  332422.631675317942 
    62     63      1      0.138719322718  301905.092578520998 
    62     65      1      0.149864681646  242452.869388089370 
    63     64      1      0.138719322718  301905.092578520998 
    63     80      1      0.108535849592  332422.631675317942 
    64     81      1      0.108535849592  332422.631675317942 
    65     66      1      0.145009858627  294600.927775905351 
    65     67      1      0.152190126495  221435.259290285845 
    65     82      1      0.109389949263  309655.084322414012 
    66     83      1      0.101948186503  422704.914414302446 
    66     89      1      0.138189777668  412347.817359175009 
    67     84      1      0.109389949263  309655.084322414012 
    67     85      1      0.109389949263  309655.084322414012 
    67     86      1      0.109389949263  309655.084322414012 
    68     69      1      0.138719322718  301905.092578520998 
    68     87      1      0.108535849592  332422.631675317942 
    69     88      1      0.108535849592  332422.631675317942 
    89     90      1      0.122519838622  487602.327766196802 
    89     91      1      0.145462892503  233580.248617646750 
    91     92      1      0.138719322718  301905.092578520998 
    91    113      1      0.138719322718  301905.092578520998 
    92     93      1      0.138719322718  301905.092578520998 
    92    114      1      0.108535849592  332422.631675317942 
    93     94      1      0.138719322718  301905.092578520998 
    93    115      1      0.108535849592  332422.631675317942 
    94     95      1      0.145462892503  233580.248617646750 
    94    112      1      0.138719322718  301905.092578520998 
    95     96      1      0.138719322718  301905.092578520998 
    95    102      1      0.138719322718  301905.092578520998 
    96     97      1      0.138719322718  301905.092578520998 
    96    103      1      0.145462892503  233580.248617646750 
    97     98      1      0.138719322718  301905.092578520998 
    97    116      1      0.108535849592  332422.631675317942 
    98     99      1      0.136294580649  356218.264001121745 
    98    101      1      0.138719322718  301905.092578520998 
    99    100      1      0.142589505373  306888.771877388994 
   100    117      1      0.109389949263  309655.084322414012 
   100    118      1      0.109389949263  309655.084322414012 
   100    119      1      0.109389949263  309655.084322414012 
   101    102      1      0.138719322718  301905.092578520998 
   101    120      1      0.108535849592  332422.631675317942 
   102    121      1      0.108535849592  332422.631675317942 
   103    104      1      0.138719322718  301905.092578520998 
   103    108      1      0.138719322718  301905.092578520998 
   104    105      1      0.138719322718  301905.092578520998 
   104    122      1      0.108535849592  332422.631675317942 
   105    106      1      0.138719322718  301905.092578520998 
   105    123      1      0.108535849592  332422.631675317942 
   106    107      1      0.138719322718  301905.092578520998 
   106    109      1      0.149864681646  242452.869388089370 
   107    108      1      0.138719322718  301905.092578520998 
   107    124      1      0.108535849592  332422.631675317942 
   108    125      1      0.108535849592  332422.631675317942 
   109    110      1      0.145009858627  294600.927775905351 
   109    111      1      0.152190126495  221435.259290285845 
   109    126      1      0.109389949263  309655.084322414012 
   110    127      1      0.101948186503  422704.914414302446 
   110    133      1      0.138189777668  412347.817359175009 
   111    128      1      0.109389949263  309655.084322414012 
   111    129      1      0.109389949263  309655.084322414012 
   111    130      1      0.109389949263  309655.084322414012 
   112    113      1      0.138719322718  301905.092578520998 
   112    131      1      0.108535849592  332422.631675317942 
   113    132      1      0.108535849592  332422.631675317942 
   133    134      1      0.122519838622  487602.327766196802 
   133    135      1      0.145462892503  233580.248617646750 
   135    136      1      0.138719322718  301905.092578520998 
   135    157      1      0.138719322718  301905.092578520998 
   136    137      1      0.138719322718  301905.092578520998 
   136    158      1      0.108535849592  332422.631675317942 
   137    138      1      0.138719322718  301905.092578520998 
   137    159      1      0.108535849592  332422.631675317942 
   138    139      1      0.145462892503  233580.248617646750 
   138    156      1      0.138719322718  301905.092578520998 
   139    140      1      0.138719322718  301905.092578520998 
   139    146      1      0.138719322718  301905.092578520998 
   140    141      1      0.138719322718  301905.092578520998 
   140    147      1      0.145462892503  233580.248617646750 
   141    142      1      0.138719322718  301905.092578520998 
   141    160      1      0.108535849592  332422.631675317942 
   142    143      1      0.136294580649  356218.264001121745 
   142    145      1      0.138719322718  301905.092578520998 
   143    144      1      0.142589505373  306888.771877388994 
   144    161      1      0.109389949263  309655.084322414012 
   144    162      1      0.109389949263  309655.084322414012 
   144    163      1      0.109389949263  309655.084322414012 
   145    146      1      0.138719322718  301905.092578520998 
   145    164      1      0.108535849592  332422.631675317942 
   146    165      1      0.108535849592  332422.631675317942 
   147    148      1      0.138719322718  301905.092578520998 
   147    152      1      0.138719322718  301905.092578520998 
   148    149      1      0.138719322718  301905.092578520998 
   148    166      1      0.108535849592  332422.631675317942 
   149    150      1      0.138719322718  301905.092578520998 
   149    167      1      0.108535849592  332422.631675317942 
   150    151      1      0.138719322718  301905.092578520998 
   150    153      1      0.149864681646  242452.869388089370 
   151    152      1      0.138719322718  301905.092578520998 
   151    168      1      0.108535849592  332422.631675317942 
   152    169      1      0.108535849592  332422.631675317942 
   153    154      1      0.145009858627  294600.927775905351 
   153    155      1      0.152190126495  221435.259290285845 
   153    170      1      0.109389949263  309655.084322414012 
   154    171      1      0.101948186503  422704.914414302446 
   154    187      1      0.138189777668  412347.817359175009 
   155    172      1      0.109389949263  309655.084322414012 
   155    173      1      0.109389949263  309655.084322414012 
   155    174      1      0.109389949263  309655.084322414012 
   156    157      1      0.138719322718  301905.092578520998 
   156    175      1      0.108535849592  332422.631675317942 
   157    176      1      0.108535849592  332422.631675317942 
   177    178      1      0.142589505373  306888.771877388994 
   177    179      1      0.109389949263  309655.084322414012 
   177    180      1      0.109389949263  309655.084322414012 
   177    181      1      0.109389949263  309655.084322414012 
   182    183      1      0.152190126495  221435.259290285845 
   182    189      1      0.109389949263  309655.084322414012 
   182    190      1      0.109389949263  309655.084322414012 
   182    191      1      0.109389949263  309655.084322414012 
   183    184      1      0.152190126495  221435.259290285845 
   183    185      1      0.152190126495  221435.259290285845 
   183    186      1      0.142589505373  306888.771877388994 
   184    192      1      0.109389949263  309655.084322414012 
   184    193      1      0.109389949263  309655.084322414012 
   184    194      1      0.109389949263  309655.084322414012 
   185    195      1      0.109389949263  309655.084322414012 
   185    196      1      0.109389949263  309655.084322414012 
   185    197      1      0.109389949263  309655.084322414012 
   186    187      1      0.134574123280  252005.673256632901 
   187    188      1      0.122519838622  487602.327766196802 

[ angles ]
;ai    aj   ak   funct theta  k
   134    133    135      1     126.806242045100     484.492885493347 
    10     11     12      1     110.353880618100     544.678275491328 
   183    182    190      1     116.547586263400     445.222086509286 
   178    177    180      1     116.547586263400     445.222086509286 
   133    135    157      1     126.806242045100     484.492885493347 
   161    144    162      1     115.603099953300     408.161690475075 
   157    156    175      1     129.183592992600     285.070774532144 
   196    185    197      1     115.603099953300     408.161690475075 
    55     56     73      1     116.547586263400     445.222086509286 
     9      8     15      1     126.806242045100     484.492885493347 
   184    183    185      1     116.547586263400     445.222086509286 
    55     54     57      1     126.806242045100     484.492885493347 
    74     56     75      1     115.603099953300     408.161690475075 
    91    113    112      1     126.806242045100     484.492885493347 
     6      5     27      1     129.183592992600     285.070774532144 
   151    152    169      1     129.183592992600     285.070774532144 
   149    150    151      1     126.806242045100     484.492885493347 
    19     20     37      1     129.183592992600     285.070774532144 
     9     10     11      1     126.806242045100     484.492885493347 
    59     60     78      1     129.183592992600     285.070774532144 
    48     47     69      1     126.806242045100     484.492885493347 
    89     91    113      1     126.806242045100     484.492885493347 
    94     95    102      1     126.806242045100     484.492885493347 
   137    136    158      1     129.183592992600     285.070774532144 
    94    112    131      1     129.183592992600     285.070774532144 
   110    109    111      1     116.547586263400     445.222086509286 
   105    106    109      1     126.806242045100     484.492885493347 
   140    141    142      1     126.806242045100     484.492885493347 
   151    150    153      1     126.806242045100     484.492885493347 
    91    113    132      1     129.183592992600     285.070774532144 
     1      3      4      1     126.806242045100     484.492885493347 
   147    152    169      1     129.183592992600     285.070774532144 
   155    153    170      1     116.547586263400     445.222086509286 
     6      7      8      1     126.806242045100     484.492885493347 
   179    177    181      1     115.603099953300     408.161690475075 
   104    103    108      1     126.806242045100     484.492885493347 
     3     25     44      1     129.183592992600     285.070774532144 
    15     20     37      1     129.183592992600     285.070774532144 
   136    135    157      1     126.806242045100     484.492885493347 
    62     65     82      1     116.547586263400     445.222086509286 
    96    103    108      1     126.806242045100     484.492885493347 
    96     95    102      1     126.806242045100     484.492885493347 
    21     23     40      1     116.547586263400     445.222086509286 
     3     25     24      1     126.806242045100     484.492885493347 
   147    152    151      1     126.806242045100     484.492885493347 
    10     13     14      1     126.806242045100     484.492885493347 
    65     66     83      1     115.507132767400     530.901282784327 
   139    140    147      1     126.806242045100     484.492885493347 
   183    184    192      1     116.547586263400     445.222086509286 
    17     16     34      1     129.183592992600     285.070774532144 
   193    184    194      1     115.603099953300     408.161690475075 
    19     18     21      1     126.806242045100     484.492885493347 
   140    147    152      1     126.806242045100     484.492885493347 
    54     55     56      1     110.353880618100     544.678275491328 
   140    139    146      1     126.806242045100     484.492885493347 
    99    100    118      1     116.547586263400     445.222086509286 
   128    111    130      1     115.603099953300     408.161690475075 
   141    142    145      1     126.806242045100     484.492885493347 
    50     49     71      1     129.183592992600     285.070774532144 
     7     14     13      1     126.806242045100     484.492885493347 
   135    157    176      1     129.183592992600     285.070774532144 
    22     21     38      1     116.547586263400     445.222086509286 
   108    107    124      1     129.183592992600     285.070774532144 
    51     58     57      1     126.806242045100     484.492885493347 
   183    185    196      1     116.547586263400     445.222086509286 
    96     97     98      1     126.806242045100     484.492885493347 
    65     67     85      1     116.547586263400     445.222086509286 
   180    177    181      1     115.603099953300     408.161690475075 
    54     57     58      1     126.806242045100     484.492885493347 
   117    100    119      1     115.603099953300     408.161690475075 
    48     49     71      1     129.183592992600     285.070774532144 
    60     61     62      1     126.806242045100     484.492885493347 
     6      7     14      1     126.806242045100     484.492885493347 
   133    135    136      1     126.806242045100     484.492885493347 
     2      1    178      1     127.469141619100    1685.413543333009 
   150    153    155      1     116.547586263400     445.222086509286 
     3      4     26      1     129.183592992600     285.070774532144 
    91     92    114      1     129.183592992600     285.070774532144 
   106    107    108      1     126.806242045100     484.492885493347 
    58     57     76      1     129.183592992600     285.070774532144 
    59     60     61      1     126.806242045100     484.492885493347 
   138    156    157      1     126.806242045100     484.492885493347 
     4      3     25      1     126.806242045100     484.492885493347 
   182    183    186      1     116.547586263400     445.222086509286 
    97     98     99      1     126.806242045100     484.492885493347 
    89     91     92      1     126.806242045100     484.492885493347 
    25     24     43      1     129.183592992600     285.070774532144 
   109    111    129      1     116.547586263400     445.222086509286 
    93     94    112      1     126.806242045100     484.492885493347 
   152    151    168      1     129.183592992600     285.070774532144 
     5      6      7      1     126.806242045100     484.492885493347 
    23     21     38      1     116.547586263400     445.222086509286 
    21     22     45      1     117.346557051400     463.769802376852 
   148    147    152      1     126.806242045100     484.492885493347 
    93     92    114      1     129.183592992600     285.070774532144 
   179    177    180      1     115.603099953300     408.161690475075 
     6     24     25      1     126.806242045100     484.492885493347 
    11     12     31      1     116.547586263400     445.222086509286 
   137    138    139      1     126.806242045100     484.492885493347 
   183    186    187      1     110.353880618100     544.678275491328 
    97     96    103      1     126.806242045100     484.492885493347 
    47     48     49      1     126.806242045100     484.492885493347 
    50     51     52      1     126.806242045100     484.492885493347 
     7      6     24      1     126.806242045100     484.492885493347 
    29     12     31      1     115.603099953300     408.161690475075 
    66     65     82      1     116.547586263400     445.222086509286 
    63     64     81      1     129.183592992600     285.070774532144 
    53     54     57      1     126.806242045100     484.492885493347 
   147    148    149      1     126.806242045100     484.492885493347 
   150    151    152      1     126.806242045100     484.492885493347 
    69     68     87      1     129.183592992600     285.070774532144 
   153    154    171      1     115.507132767400     530.901282784327 
     3      4      5      1     126.806242045100     484.492885493347 
    51     50     68      1     126.806242045100     484.492885493347 
    65     67     84      1     116.547586263400     445.222086509286 
   117    100    118      1     115.603099953300     408.161690475075 
     4      5     27      1     129.183592992600     285.070774532144 
     5      6     24      1     126.806242045100     484.492885493347 
   135    136    158      1     129.183592992600     285.070774532144 
   103    108    107      1     126.806242045100     484.492885493347 
    73     56     75      1     115.603099953300     408.161690475075 
   150    149    167      1     129.183592992600     285.070774532144 
    60     61     79      1     129.183592992600     285.070774532144 
    50     68     87      1     129.183592992600     285.070774532144 
   136    137    138      1     126.806242045100     484.492885493347 
   150    153    154      1     116.547586263400     445.222086509286 
    59     64     81      1     129.183592992600     285.070774532144 
    96    103    104      1     126.806242045100     484.492885493347 
   129    111    130      1     115.603099953300     408.161690475075 
    62     65     67      1     116.547586263400     445.222086509286 
    94     93    115      1     129.183592992600     285.070774532144 
    40     23     42      1     115.603099953300     408.161690475075 
    61     60     78      1     129.183592992600     285.070774532144 
   137    138    156      1     126.806242045100     484.492885493347 
    63     62     65      1     126.806242045100     484.492885493347 
   107    106    109      1     126.806242045100     484.492885493347 
   182    183    185      1     116.547586263400     445.222086509286 
   143    144    161      1     116.547586263400     445.222086509286 
    50     51     58      1     126.806242045100     484.492885493347 
   140    147    148      1     126.806242045100     484.492885493347 
   109    111    128      1     116.547586263400     445.222086509286 
    22     45     47      1     126.806242045100     484.492885493347 
   101    102    121      1     129.183592992600     285.070774532144 
    94    112    113      1     126.806242045100     484.492885493347 
    52     53     72      1     129.183592992600     285.070774532144 
    55     56     75      1     116.547586263400     445.222086509286 
    10      9     28      1     129.183592992600     285.070774532144 
   147    148    166      1     129.183592992600     285.070774532144 
   149    150    153      1     126.806242045100     484.492885493347 
   142    141    160      1     129.183592992600     285.070774532144 
   195    185    196      1     115.603099953300     408.161690475075 
    11     12     30      1     116.547586263400     445.222086509286 
     9     10     13      1     126.806242045100     484.492885493347 
    22     21     23      1     116.547586263400     445.222086509286 
   190    182    191      1     115.603099953300     408.161690475075 
   138    137    159      1     129.183592992600     285.070774532144 
    68     69     88      1     129.183592992600     285.070774532144 
    17     18     19      1     126.806242045100     484.492885493347 
    41     23     42      1     115.603099953300     408.161690475075 
   143    142    145      1     126.806242045100     484.492885493347 
    11     10     13      1     126.806242045100     484.492885493347 
    14     13     32      1     129.183592992600     285.070774532144 
    93     94     95      1     126.806242045100     484.492885493347 
    20     19     36      1     129.183592992600     285.070774532144 
    15     16     34      1     129.183592992600     285.070774532144 
    21     23     42      1     116.547586263400     445.222086509286 
    15     20     19      1     126.806242045100     484.492885493347 
   104    105    106      1     126.806242045100     484.492885493347 
   118    100    119      1     115.603099953300     408.161690475075 
   153    155    172      1     116.547586263400     445.222086509286 
   192    184    194      1     115.603099953300     408.161690475075 
    98     97    116      1     129.183592992600     285.070774532144 
   183    184    194      1     116.547586263400     445.222086509286 
   172    155    174      1     115.603099953300     408.161690475075 
    13     14     33      1     129.183592992600     285.070774532144 
   154    187    186      1     126.806242045100     484.492885493347 
   183    182    189      1     116.547586263400     445.222086509286 
   178    177    179      1     116.547586263400     445.222086509286 
   103    104    105      1     126.806242045100     484.492885493347 
     7     14     33      1     129.183592992600     285.070774532144 
    73     56     74      1     115.603099953300     408.161690475075 
   135    136    137      1     126.806242045100     484.492885493347 
   106    107    124      1     129.183592992600     285.070774532144 
   109    110    127      1     115.507132767400     530.901282784327 
     5      4     26      1     129.183592992600     285.070774532144 
    49     48     70      1     129.183592992600     285.070774532144 
   145    146    165      1     129.183592992600     285.070774532144 
   189    182    191      1     115.603099953300     408.161690475075 
    18     21     23      1     116.547586263400     445.222086509286 
   139    146    145      1     126.806242045100     484.492885493347 
    67     65     82      1     116.547586263400     445.222086509286 
    65     66     89      1     117.346557051400     463.769802376852 
   110    109    126      1     116.547586263400     445.222086509286 
     1    178    177      1     110.353880618100     544.678275491328 
    40     23     41      1     115.603099953300     408.161690475075 
   110    133    135      1     126.806242045100     484.492885493347 
     8      9     28      1     129.183592992600     285.070774532144 
    51     58     77      1     129.183592992600     285.070774532144 
    62     63     64      1     126.806242045100     484.492885493347 
    95     94    112      1     126.806242045100     484.492885493347 
   106    109    126      1     116.547586263400     445.222086509286 
   148    149    150      1     126.806242045100     484.492885493347 
     7      8      9      1     126.806242045100     484.492885493347 
   161    144    163      1     115.603099953300     408.161690475075 
    22     45     46      1     126.806242045100     484.492885493347 
    49     50     68      1     126.806242045100     484.492885493347 
    61     62     63      1     126.806242045100     484.492885493347 
    18     19     20      1     126.806242045100     484.492885493347 
   173    155    174      1     115.603099953300     408.161690475075 
    18     17     35      1     129.183592992600     285.070774532144 
   153    154    187      1     117.346557051400     463.769802376852 
    64     63     80      1     129.183592992600     285.070774532144 
    11     12     29      1     116.547586263400     445.222086509286 
   102    101    120      1     129.183592992600     285.070774532144 
    48     49     50      1     126.806242045100     484.492885493347 
    51     52     53      1     126.806242045100     484.492885493347 
    97     98    101      1     126.806242045100     484.492885493347 
    92     91    113      1     126.806242045100     484.492885493347 
    99    100    117      1     116.547586263400     445.222086509286 
   109    110    133      1     117.346557051400     463.769802376852 
   128    111    129      1     115.603099953300     408.161690475075 
   104    105    123      1     129.183592992600     285.070774532144 
     3      1    178      1     126.806242045100     484.492885493347 
    21     23     41      1     116.547586263400     445.222086509286 
   142    145    164      1     129.183592992600     285.070774532144 
    99     98    101      1     126.806242045100     484.492885493347 
   183    185    195      1     116.547586263400     445.222086509286 
   103    104    122      1     129.183592992600     285.070774532144 
    98    101    120      1     129.183592992600     285.070774532144 
    30     12     31      1     115.603099953300     408.161690475075 
    52     59     64      1     126.806242045100     484.492885493347 
    94     95     96      1     126.806242045100     484.492885493347 
   172    155    173      1     115.603099953300     408.161690475075 
     7      8     15      1     126.806242045100     484.492885493347 
    46     45     47      1     126.806242045100     484.492885493347 
    62     61     79      1     129.183592992600     285.070774532144 
   154    153    170      1     116.547586263400     445.222086509286 
    59     64     63      1     126.806242045100     484.492885493347 
    45     47     69      1     126.806242045100     484.492885493347 
   103    108    125      1     129.183592992600     285.070774532144 
   189    182    190      1     115.603099953300     408.161690475075 
    18     21     22      1     116.547586263400     445.222086509286 
   139    138    156      1     126.806242045100     484.492885493347 
    15     16     17      1     126.806242045100     484.492885493347 
    91     92     93      1     126.806242045100     484.492885493347 
   148    149    167      1     129.183592992600     285.070774532144 
   110    133    134      1     126.806242045100     484.492885493347 
    51     52     59      1     126.806242045100     484.492885493347 
    39     22     45      1     115.507132767400     530.901282784327 
     2      1      3      1     126.806242045100     484.492885493347 
    65     67     86      1     116.547586263400     445.222086509286 
   140    141    160      1     129.183592992600     285.070774532144 
   105    106    107      1     126.806242045100     484.492885493347 
    54     53     72      1     129.183592992600     285.070774532144 
    49     50     51      1     126.806242045100     484.492885493347 
    52     53     54      1     126.806242045100     484.492885493347 
   146    145    164      1     129.183592992600     285.070774532144 
    92     93    115      1     129.183592992600     285.070774532144 
   138    139    140      1     126.806242045100     484.492885493347 
   149    148    166      1     129.183592992600     285.070774532144 
    50     68     69      1     126.806242045100     484.492885493347 
    10     13     32      1     129.183592992600     285.070774532144 
    85     67     86      1     115.603099953300     408.161690475075 
   107    108    125      1     129.183592992600     285.070774532144 
    16     17     18      1     126.806242045100     484.492885493347 
   143    144    163      1     116.547586263400     445.222086509286 
    16     15     20      1     126.806242045100     484.492885493347 
   112    113    132      1     129.183592992600     285.070774532144 
    95    102    101      1     126.806242045100     484.492885493347 
   109    111    130      1     116.547586263400     445.222086509286 
   141    140    147      1     126.806242045100     484.492885493347 
    47     69     88      1     129.183592992600     285.070774532144 
    52     51     58      1     126.806242045100     484.492885493347 
    29     12     30      1     115.603099953300     408.161690475075 
    45     47     48      1     126.806242045100     484.492885493347 
   106    109    111      1     116.547586263400     445.222086509286 
    47     69     68      1     126.806242045100     484.492885493347 
   141    142    143      1     126.806242045100     484.492885493347 
     8     15     16      1     126.806242045100     484.492885493347 
    95    102    121      1     129.183592992600     285.070774532144 
    66     89     91      1     126.806242045100     484.492885493347 
   105    104    122      1     129.183592992600     285.070774532144 
   135    157    156      1     126.806242045100     484.492885493347 
    60     59     64      1     126.806242045100     484.492885493347 
    17     18     21      1     126.806242045100     484.492885493347 
     8      9     10      1     126.806242045100     484.492885493347 
     4      5      6      1     126.806242045100     484.492885493347 
    57     58     77      1     129.183592992600     285.070774532144 
    18     19     36      1     129.183592992600     285.070774532144 
    21     22     39      1     115.507132767400     530.901282784327 
    84     67     86      1     115.603099953300     408.161690475075 
   138    139    146      1     126.806242045100     484.492885493347 
    96     97    116      1     129.183592992600     285.070774532144 
   139    146    165      1     129.183592992600     285.070774532144 
   156    157    176      1     129.183592992600     285.070774532144 
    62     65     66      1     116.547586263400     445.222086509286 
   142    143    144      1     110.353880618100     544.678275491328 
     8     15     20      1     126.806242045100     484.492885493347 
   153    155    174      1     116.547586263400     445.222086509286 
    16     17     35      1     129.183592992600     285.070774532144 
    24     25     44      1     129.183592992600     285.070774532144 
     8      7     14      1     126.806242045100     484.492885493347 
   182    183    184      1     116.547586263400     445.222086509286 
    62     63     80      1     129.183592992600     285.070774532144 
   154    187    188      1     126.806242045100     484.492885493347 
   183    182    191      1     116.547586263400     445.222086509286 
    54     57     76      1     129.183592992600     285.070774532144 
   178    177    181      1     116.547586263400     445.222086509286 
   106    105    123      1     129.183592992600     285.070774532144 
   171    154    187      1     115.507132767400     530.901282784327 
    47     48     70      1     129.183592992600     285.070774532144 
   136    137    159      1     129.183592992600     285.070774532144 
    55     56     74      1     116.547586263400     445.222086509286 
    92     93     94      1     126.806242045100     484.492885493347 
    95     96     97      1     126.806242045100     484.492885493347 
   184    183    186      1     116.547586263400     445.222086509286 
    66     65     67      1     116.547586263400     445.222086509286 
   138    156    175      1     129.183592992600     285.070774532144 
   154    153    155      1     116.547586263400     445.222086509286 
     6     24     43      1     129.183592992600     285.070774532144 
   162    144    163      1     115.603099953300     408.161690475075 
    52     59     60      1     126.806242045100     484.492885493347 
   143    144    162      1     116.547586263400     445.222086509286 
   111    109    126      1     116.547586263400     445.222086509286 
    83     66     89      1     115.507132767400     530.901282784327 
   150    151    168      1     129.183592992600     285.070774532144 
    98     99    100      1     110.353880618100     544.678275491328 
   106    109    110      1     116.547586263400     445.222086509286 
    18     21     38      1     116.547586263400     445.222086509286 
    90     89     91      1     126.806242045100     484.492885493347 
    53     54     55      1     126.806242045100     484.492885493347 
   195    185    197      1     115.603099953300     408.161690475075 
   113    112    131      1     129.183592992600     285.070774532144 
   192    184    193      1     115.603099953300     408.161690475075 
   127    110    133      1     115.507132767400     530.901282784327 
    66     89     90      1     126.806242045100     484.492885493347 
   185    183    186      1     116.547586263400     445.222086509286 
     1      3     25      1     126.806242045100     484.492885493347 
   183    184    193      1     116.547586263400     445.222086509286 
   150    153    170      1     116.547586263400     445.222086509286 
    98    101    102      1     126.806242045100     484.492885493347 
   186    187    188      1     127.469141619100    1685.413543333009 
    99    100    119      1     116.547586263400     445.222086509286 
    95     96    103      1     126.806242045100     484.492885493347 
    84     67     85      1     115.603099953300     408.161690475075 
    61     62     65      1     126.806242045100     484.492885493347 
   153    155    173      1     116.547586263400     445.222086509286 
    53     52     59      1     126.806242045100     484.492885493347 
   183    185    197      1     116.547586263400     445.222086509286 
   142    145    146      1     126.806242045100     484.492885493347 
   139    140    141      1     126.806242045100     484.492885493347 

[ dihedrals ]
;ai    aj   ak   al   funct phi  k
    97    98   101   102     1    180.000000000000     15.321515534534                 2
    39    22    45    47     1      0.000000000000      0.871027764609                 1
    39    22    45    47     1    180.000000000000      7.706657846814                 2
    39    22    45    47     1      0.000000000000      0.423380926962                 3
    39    22    45    47     1    180.000000000000      0.388469639312                 4
    83    66    89    90     1      0.000000000000      4.222981482677                 1
    83    66    89    90     1    180.000000000000      9.776877442699                 2
    83    66    89    90     1      0.000000000000     -0.063801604437                 3
    83    66    89    90     1    180.000000000000     -0.338533248540                 4
    18    21    22    39     1      0.000000000000      5.466943011662                 1
    18    21    22    39     1    180.000000000000      2.568759264304                 2
    18    21    22    39     1      0.000000000000      0.367734069005                 3
    18    21    22    39     1    180.000000000000      0.741368484416                 4
    15    16    17    35     1    180.000000000000     15.321515534534                 2
    16    17    18    19     1    180.000000000000     15.321515534534                 2
    82    65    67    85     1      0.000000000000      0.799950138473                 3
   156   138   137   159     1    180.000000000000     15.321515534534                 2
   145   142   141   160     1    180.000000000000     15.321515534534                 2
     1   178   177   181     1      0.000000000000      0.198220506977                 3
   107   106   109   110     1      0.000000000000      0.310203004974                 1
   107   106   109   110     1    180.000000000000      1.464546931435                 2
   107   106   109   110     1      0.000000000000     -0.251143550136                 3
   107   106   109   110     1    180.000000000000     -0.043678926009                 4
   110   133   135   157     1      0.000000000000      0.259702831036                 1
   110   133   135   157     1    180.000000000000      3.026074469520                 2
   110   133   135   157     1      0.000000000000      0.000256535572                 3
   110   133   135   157     1    180.000000000000     -0.513315731905                 4
    17    16    15    20     1    180.000000000000     15.321515534534                 2
   185   183   182   191     1      0.000000000000      0.435413753811                 3
    46    45    47    48     1      0.000000000000     -0.270863823998                 1
    46    45    47    48     1    180.000000000000      0.947926434169                 2
    46    45    47    48     1      0.000000000000      0.002274365033                 3
    46    45    47    48     1    180.000000000000      0.619957801127                 4
    98    99   100   119     1      0.000000000000      0.198220506977                 3
   106   109   110   127     1      0.000000000000      5.466943011662                 1
   106   109   110   127     1    180.000000000000      2.568759264304                 2
   106   109   110   127     1      0.000000000000      0.367734069005                 3
   106   109   110   127     1    180.000000000000      0.741368484416                 4
   154   187   186   183     1      0.000000000000     -0.882139046963                 1
   154   187   186   183     1    180.000000000000     14.245716291377                 2
   154   187   186   183     1      0.000000000000     -0.181993520472                 3
   154   187   186   183     1    180.000000000000      1.025644921212                 4
    61    62    63    64     1    180.000000000000     15.321515534534                 2
   141   140   139   146     1    180.000000000000     15.321515534534                 2
    59    60    61    62     1    180.000000000000     15.321515534534                 2
    19    18    21    38     1      0.000000000000     -0.116758018889                 1
    19    18    21    38     1    180.000000000000     -0.832578844106                 2
    19    18    21    38     1      0.000000000000     -0.273754590650                 3
    19    18    21    38     1    180.000000000000      0.162294396255                 4
    32    13    14    33     1    180.000000000000     15.321515534534                 2
    17    18    21    23     1      0.000000000000     -0.202901273497                 1
    17    18    21    23     1    180.000000000000     -0.086329199834                 2
    17    18    21    23     1      0.000000000000     -0.247566839267                 3
    17    18    21    23     1    180.000000000000     -0.035914832101                 4
    93    94   112   113     1    180.000000000000     15.321515534534                 2
   134   133   135   157     1      0.000000000000     -0.270863823998                 1
   134   133   135   157     1    180.000000000000      0.947926434169                 2
   134   133   135   157     1      0.000000000000      0.002274365033                 3
   134   133   135   157     1    180.000000000000      0.619957801127                 4
    14     7     6    24     1      0.000000000000      0.255378194547                 1
    14     7     6    24     1    180.000000000000      6.115043598569                 2
    14     7     6    24     1      0.000000000000      0.147138087687                 3
    14     7     6    24     1    180.000000000000      1.309986077753                 4
   143   142   145   164     1    180.000000000000     15.321515534534                 2
    69    47    48    70     1    180.000000000000     15.321515534534                 2
     8    15    16    17     1    180.000000000000     15.321515534534                 2
    38    21    23    41     1      0.000000000000      0.799950138473                 3
   110   109   111   129     1      0.000000000000      0.483407861024                 3
    94   112   113   132     1    180.000000000000     15.321515534534                 2
   166   148   149   167     1    180.000000000000     15.321515534534                 2
    51    58    57    54     1    180.000000000000     15.321515534534                 2
   185   183   184   193     1      0.000000000000      0.435413753811                 3
   107   106   105   123     1    180.000000000000     15.321515534534                 2
   148   149   150   153     1    180.000000000000     15.321515534534                 2
     6     7    14    13     1    180.000000000000     15.321515534534                 2
   154   153   155   172     1      0.000000000000      0.483407861024                 3
   144   143   142   145     1      0.000000000000      0.099416038382                 1
   144   143   142   145     1    180.000000000000      9.050931121674                 2
   144   143   142   145     1      0.000000000000      0.473974975878                 3
   144   143   142   145     1    180.000000000000      0.628851037202                 4
    47    48    49    71     1    180.000000000000     15.321515534534                 2
   142   143   144   163     1      0.000000000000      0.198220506977                 3
   186   183   185   195     1      0.000000000000      0.466735938990                 3
   186   183   185   195     1      0.000000000000      1.436153909162                 1
   149   150   153   170     1      0.000000000000     -0.082172065280                 1
   149   150   153   170     1    180.000000000000     -0.550103644652                 2
   149   150   153   170     1      0.000000000000     -0.213402877106                 3
   149   150   153   170     1    180.000000000000      0.322489718796                 4
   170   153   154   171     1      0.000000000000     -1.499013950726                 1
   170   153   154   171     1    180.000000000000      0.857681829886                 2
   170   153   154   171     1      0.000000000000     -0.094063392305                 3
   170   153   154   171     1    180.000000000000     -0.092501889139                 4
   142   141   140   147     1    180.000000000000     15.321515534534                 2
    17    18    19    20     1    180.000000000000     15.321515534534                 2
    96   103   104   105     1    180.000000000000     15.321515534534                 2
   147   148   149   167     1    180.000000000000     15.321515534534                 2
   126   109   111   128     1      0.000000000000      0.799950138473                 3
   140   147   148   166     1    180.000000000000     15.321515534534                 2
    18    21    22    45     1      0.000000000000     -3.700671443308                 1
    18    21    22    45     1    180.000000000000      1.339465961357                 2
    18    21    22    45     1      0.000000000000     -0.422938302828                 3
    18    21    22    45     1    180.000000000000     -0.892207972499                 4
    59    52    53    72     1    180.000000000000     15.321515534534                 2
   140   147   152   151     1    180.000000000000     15.321515534534                 2
     6     7    14    33     1    180.000000000000     15.321515534534                 2
     3     4     5    27     1    180.000000000000     15.321515534534                 2
    16    15    20    19     1    180.000000000000     15.321515534534                 2
     6     5     4    26     1    180.000000000000     15.321515534534                 2
     2     1     3    25     1      0.000000000000      0.094275808482                 1
     2     1     3    25     1    180.000000000000      2.200891108601                 2
     2     1     3    25     1      0.000000000000      0.097018969438                 3
     2     1     3    25     1    180.000000000000      0.190364219644                 4
    51    50    68    69     1    180.000000000000     15.321515534534                 2
    55    54    57    58     1    180.000000000000     15.321515534534                 2
    45    47    48    70     1    180.000000000000     15.321515534534                 2
    52    53    54    55     1    180.000000000000     15.321515534534                 2
    26     4     5    27     1    180.000000000000     15.321515534534                 2
    49    50    68    69     1    180.000000000000     15.321515534534                 2
   137   138   139   140     1      0.000000000000     -0.241835411655                 1
   137   138   139   140     1    180.000000000000      5.427644958583                 2
   137   138   139   140     1      0.000000000000     -0.208585007099                 3
   137   138   139   140     1    180.000000000000      0.303989336866                 4
    95    96   103   104     1    180.000000000000      4.866977563957                 2
    39    22    45    46     1      0.000000000000      4.222981482677                 1
    39    22    45    46     1    180.000000000000      9.776877442699                 2
    39    22    45    46     1      0.000000000000     -0.063801604437                 3
    39    22    45    46     1    180.000000000000     -0.338533248540                 4
    53    52    59    64     1    180.000000000000      4.866977563957                 2
    22    21    23    42     1      0.000000000000      0.483407861024                 3
   138   139   146   165     1    180.000000000000     15.321515534534                 2
    52    59    64    81     1    180.000000000000     15.321515534534                 2
    82    65    67    84     1      0.000000000000      0.799950138473                 3
   138   139   146   145     1    180.000000000000     15.321515534534                 2
     1   178   177   180     1      0.000000000000      0.198220506977                 3
    96    97    98    99     1    180.000000000000     15.321515534534                 2
     7     6     5    27     1    180.000000000000     15.321515534534                 2
   139   140   141   160     1    180.000000000000     15.321515534534                 2
     1     3     4    26     1    180.000000000000     15.321515534534                 2
    54    55    56    75     1      0.000000000000      0.198220506977                 3
    47    48    49    50     1    180.000000000000     15.321515534534                 2
     8     7    14    13     1    180.000000000000     15.321515534534                 2
    20    19    18    21     1    180.000000000000     15.321515534534                 2
   110   133   135   136     1      0.000000000000      0.259702831036                 1
   110   133   135   136     1    180.000000000000      3.026074469520                 2
   110   133   135   136     1      0.000000000000      0.000256535572                 3
   110   133   135   136     1    180.000000000000     -0.513315731905                 4
   185   183   182   190     1      0.000000000000      0.435413753811                 3
    10    13    14    33     1    180.000000000000     15.321515534534                 2
   146   139   140   147     1    180.000000000000     15.321515534534                 2
   151   150   153   170     1      0.000000000000     -0.082172065280                 1
   151   150   153   170     1    180.000000000000     -0.550103644652                 2
   151   150   153   170     1      0.000000000000     -0.213402877106                 3
   151   150   153   170     1    180.000000000000      0.322489718796                 4
    59    64    63    62     1    180.000000000000     15.321515534534                 2
    63    62    65    82     1      0.000000000000     -0.116758018889                 1
    63    62    65    82     1    180.000000000000     -0.832578844106                 2
    63    62    65    82     1      0.000000000000     -0.273754590650                 3
    63    62    65    82     1    180.000000000000      0.162294396255                 4
    92    91   113   132     1    180.000000000000     15.321515534534                 2
    66    65    67    84     1      0.000000000000      0.483407861024                 3
    61    62    65    82     1      0.000000000000     -0.116758018889                 1
    61    62    65    82     1    180.000000000000     -0.832578844106                 2
    61    62    65    82     1      0.000000000000     -0.273754590650                 3
    61    62    65    82     1    180.000000000000      0.162294396255                 4
    17    18    21    22     1      0.000000000000      0.310203004974                 1
    17    18    21    22     1    180.000000000000      1.464546931435                 2
    17    18    21    22     1      0.000000000000     -0.251143550136                 3
    17    18    21    22     1    180.000000000000     -0.043678926009                 4
    21    22    45    46     1      0.000000000000     -1.660241084081                 1
    21    22    45    46     1    180.000000000000     12.148156365471                 2
    21    22    45    46     1      0.000000000000      0.909174854031                 3
    21    22    45    46     1    180.000000000000     -0.661123847686                 4
     8    15    20    37     1    180.000000000000     15.321515534534                 2
   126   109   110   127     1      0.000000000000     -3.442291340877                 1
   126   109   110   127     1    180.000000000000      0.582055468855                 2
   126   109   110   127     1      0.000000000000      0.770456430405                 3
   126   109   110   127     1    180.000000000000     -0.497615529661                 4
     8     7    14    33     1    180.000000000000     15.321515534534                 2
    53    52    51    58     1    180.000000000000     15.321515534534                 2
    95   102   101   120     1    180.000000000000     15.321515534534                 2
    15    16    17    18     1    180.000000000000     15.321515534534                 2
    62    65    67    86     1      0.000000000000      0.483407861024                 3
   185   183   184   192     1      0.000000000000      0.435413753811                 3
   106   109   111   128     1      0.000000000000      0.483407861024                 3
   142   143   144   162     1      0.000000000000      0.198220506977                 3
   133   135   157   176     1    180.000000000000     15.321515534534                 2
    96   103   104   122     1    180.000000000000     15.321515534534                 2
    90    89    91   113     1      0.000000000000     -0.270863823998                 1
    90    89    91   113     1    180.000000000000      0.947926434169                 2
    90    89    91   113     1      0.000000000000      0.002274365033                 3
    90    89    91   113     1    180.000000000000      0.619957801127                 4
    45    47    48    49     1    180.000000000000     15.321515534534                 2
     2     1     3     4     1      0.000000000000      0.094275808482                 1
     2     1     3     4     1    180.000000000000      2.200891108601                 2
     2     1     3     4     1      0.000000000000      0.097018969438                 3
     2     1     3     4     1    180.000000000000      0.190364219644                 4
   182   183   184   194     1      0.000000000000      0.435413753811                 3
     5     6    24    25     1    180.000000000000     15.321515534534                 2
     7     8     9    28     1    180.000000000000     15.321515534534                 2
    57    54    53    72     1    180.000000000000     15.321515534534                 2
    25     3     4    26     1    180.000000000000     15.321515534534                 2
    18    21    23    42     1      0.000000000000      0.483407861024                 3
    91    92    93   115     1    180.000000000000     15.321515534534                 2
    51    52    53    54     1    180.000000000000     15.321515534534                 2
   153   150   149   167     1    180.000000000000     15.321515534534                 2
   140   141   142   143     1    180.000000000000     15.321515534534                 2
   138   139   140   141     1    180.000000000000     15.321515534534                 2
    60    61    62    63     1    180.000000000000     15.321515534534                 2
    82    65    66    83     1      0.000000000000     -3.442291340877                 1
    82    65    66    83     1    180.000000000000      0.582055468855                 2
    82    65    66    83     1      0.000000000000      0.770456430405                 3
    82    65    66    83     1    180.000000000000     -0.497615529661                 4
   147   148   149   150     1    180.000000000000     15.321515534534                 2
    22    45    47    69     1      0.000000000000      0.259702831036                 1
    22    45    47    69     1    180.000000000000      3.026074469520                 2
    22    45    47    69     1      0.000000000000      0.000256535572                 3
    22    45    47    69     1    180.000000000000     -0.513315731905                 4
     3     4     5     6     1    180.000000000000     15.321515534534                 2
    78    60    61    79     1    180.000000000000     15.321515534534                 2
   139   138   156   175     1    180.000000000000     15.321515534534                 2
   135   136   137   138     1    180.000000000000     15.321515534534                 2
    48    47    69    88     1    180.000000000000     15.321515534534                 2
     6     7     8     9     1    180.000000000000     15.321515534534                 2
    60    59    64    63     1    180.000000000000     15.321515534534                 2
    48    47    69    68     1    180.000000000000     15.321515534534                 2
     8     9    10    11     1    180.000000000000     15.321515534534                 2
   103   108   107   106     1    180.000000000000     15.321515534534                 2
   153   154   187   188     1      0.000000000000     -0.116505675121                 1
   153   154   187   188     1    180.000000000000      8.372427377979                 2
   153   154   187   188     1      0.000000000000      1.960448492143                 3
   153   154   187   188     1    180.000000000000     -0.708373337521                 4
   139   138   156   157     1    180.000000000000     15.321515534534                 2
    70    48    49    71     1    180.000000000000     15.321515534534                 2
   124   107   108   125     1    180.000000000000     15.321515534534                 2
     1     3     4     5     1    180.000000000000     15.321515534534                 2
    53    54    57    58     1    180.000000000000     15.321515534534                 2
     7    14    13    10     1    180.000000000000     15.321515534534                 2
    61    60    59    64     1    180.000000000000     15.321515534534                 2
    52    51    58    57     1    180.000000000000     15.321515534534                 2
   149   150   153   155     1      0.000000000000     -0.114009859927                 1
   149   150   153   155     1    180.000000000000      0.167485696155                 2
   149   150   153   155     1      0.000000000000     -0.185851308297                 3
   149   150   153   155     1    180.000000000000     -0.075431094769                 4
   126   109   110   133     1      0.000000000000      3.366985936763                 1
   126   109   110   133     1    180.000000000000     -1.219328235672                 2
   126   109   110   133     1      0.000000000000     -0.349614822743                 3
   126   109   110   133     1    180.000000000000      0.050705563864                 4
   107   106   109   126     1      0.000000000000     -0.116758018889                 1
   107   106   109   126     1    180.000000000000     -0.832578844106                 2
   107   106   109   126     1      0.000000000000     -0.273754590650                 3
   107   106   109   126     1    180.000000000000      0.162294396255                 4
    10    11    12    31     1      0.000000000000      0.198220506977                 3
    50    51    58    57     1    180.000000000000     15.321515534534                 2
   140   147   148   149     1    180.000000000000     15.321515534534                 2
   108   103   104   122     1    180.000000000000     15.321515534534                 2
    38    21    22    39     1      0.000000000000     -3.442291340877                 1
    38    21    22    39     1    180.000000000000      0.582055468855                 2
    38    21    22    39     1      0.000000000000      0.770456430405                 3
    38    21    22    39     1    180.000000000000     -0.497615529661                 4
   104   105   106   109     1    180.000000000000     15.321515534534                 2
   175   156   157   176     1    180.000000000000     15.321515534534                 2
    54    55    56    74     1      0.000000000000      0.198220506977                 3
     7     6    24    43     1    180.000000000000     15.321515534534                 2
   170   153   154   187     1      0.000000000000      3.530349670945                 1
   170   153   154   187     1    180.000000000000     -0.957411903666                 2
   170   153   154   187     1      0.000000000000     -1.193709013056                 3
   170   153   154   187     1    180.000000000000     -0.175204947151                 4
   170   153   155   174     1      0.000000000000      0.799950138473                 3
   184   183   182   189     1      0.000000000000      0.435413753811                 3
   184   183   185   196     1      0.000000000000      0.435413753811                 3
   150   153   155   173     1      0.000000000000      0.483407861024                 3
    99    98    97   116     1    180.000000000000     15.321515534534                 2
   109   110   133   134     1      0.000000000000     -1.660241084081                 1
   109   110   133   134     1    180.000000000000     12.148156365471                 2
   109   110   133   134     1      0.000000000000      0.909174854031                 3
   109   110   133   134     1    180.000000000000     -0.661123847686                 4
   122   104   105   123     1    180.000000000000     15.321515534534                 2
   127   110   133   135     1      0.000000000000      0.871027764609                 1
   127   110   133   135     1    180.000000000000      7.706657846814                 2
   127   110   133   135     1      0.000000000000      0.423380926962                 3
   127   110   133   135     1    180.000000000000      0.388469639312                 4
    17    18    19    36     1    180.000000000000     15.321515534534                 2
    51    50    49    71     1    180.000000000000     15.321515534534                 2
    68    50    49    71     1    180.000000000000     15.321515534534                 2
   102    95    94   112     1      0.000000000000      0.255378194547                 1
   102    95    94   112     1    180.000000000000      6.115043598569                 2
   102    95    94   112     1      0.000000000000      0.147138087687                 3
   102    95    94   112     1    180.000000000000      1.309986077753                 4
    61    62    63    80     1    180.000000000000     15.321515534534                 2
   186   183   182   191     1      0.000000000000      0.466735938990                 3
   186   183   182   191     1      0.000000000000      1.436153909162                 1
   157   135   136   158     1    180.000000000000     15.321515534534                 2
     4     3    25    44     1    180.000000000000     15.321515534534                 2
    96    95    94   112     1      0.000000000000     -0.241835411655                 1
    96    95    94   112     1    180.000000000000      5.427644958583                 2
    96    95    94   112     1      0.000000000000     -0.208585007099                 3
    96    95    94   112     1    180.000000000000      0.303989336866                 4
   135   157   156   138     1    180.000000000000     15.321515534534                 2
   133   135   136   158     1    180.000000000000     15.321515534534                 2
     4     3    25    24     1    180.000000000000     15.321515534534                 2
   138   139   140   147     1    180.000000000000     15.321515534534                 2
    16    17    18    21     1    180.000000000000     15.321515534534                 2
    50    51    58    77     1    180.000000000000     15.321515534534                 2
    23    21    22    45     1      0.000000000000      0.418533166455                 1
    23    21    22    45     1    180.000000000000     -0.582466462028                 2
    23    21    22    45     1      0.000000000000     -1.217529047209                 3
    23    21    22    45     1    180.000000000000     -0.281456485487                 4
    82    65    66    89     1      0.000000000000      3.366985936763                 1
    82    65    66    89     1    180.000000000000     -1.219328235672                 2
    82    65    66    89     1      0.000000000000     -0.349614822743                 3
    82    65    66    89     1    180.000000000000      0.050705563864                 4
     8     7     6    24     1      0.000000000000     -0.241835411655                 1
     8     7     6    24     1    180.000000000000      5.427644958583                 2
     8     7     6    24     1      0.000000000000     -0.208585007099                 3
     8     7     6    24     1    180.000000000000      0.303989336866                 4
    62    65    67    85     1      0.000000000000      0.483407861024                 3
    11    10    13    32     1    180.000000000000     15.321515534534                 2
    10     9     8    15     1    180.000000000000     15.321515534534                 2
   105   106   107   108     1    180.000000000000     15.321515534534                 2
   142   143   144   161     1      0.000000000000      0.198220506977                 3
   185   183   186   187     1      0.000000000000      3.410525160408                 1
   185   183   186   187     1    180.000000000000      0.439702182047                 2
   185   183   186   187     1      0.000000000000     -0.724230170066                 3
   185   183   186   187     1    180.000000000000      0.854052563094                 4
   182   183   185   195     1      0.000000000000      0.435413753811                 3
   184   183   186   187     1      0.000000000000      3.410525160408                 1
   184   183   186   187     1    180.000000000000      0.439702182047                 2
   184   183   186   187     1      0.000000000000     -0.724230170066                 3
   184   183   186   187     1    180.000000000000      0.854052563094                 4
   102    95    96   103     1    180.000000000000     15.321515534534                 2
   186   183   184   193     1      0.000000000000      0.466735938990                 3
   186   183   184   193     1      0.000000000000      1.436153909162                 1
    58    51    50    68     1      0.000000000000      0.255378194547                 1
    58    51    50    68     1    180.000000000000      6.115043598569                 2
    58    51    50    68     1      0.000000000000      0.147138087687                 3
    58    51    50    68     1    180.000000000000      1.309986077753                 4
   141   142   145   164     1    180.000000000000     15.321515534534                 2
    94    95   102   101     1    180.000000000000     15.321515534534                 2
   103   104   105   106     1    180.000000000000     15.321515534534                 2
    21    18    19    36     1    180.000000000000     15.321515534534                 2
    53    52    59    60     1    180.000000000000      4.866977563957                 2
    91    92    93    94     1    180.000000000000     15.321515534534                 2
    64    63    62    65     1    180.000000000000     15.321515534534                 2
    65    66    89    91     1      0.000000000000     -0.373236204142                 1
    65    66    89    91     1    180.000000000000      7.452521681789                 2
    65    66    89    91     1      0.000000000000      1.515708111226                 3
    65    66    89    91     1    180.000000000000      2.543459871243                 4
   143   142   145   146     1    180.000000000000     15.321515534534                 2
    92    93    94   112     1    180.000000000000     15.321515534534                 2
   105   106   109   110     1      0.000000000000      0.310203004974                 1
   105   106   109   110     1    180.000000000000      1.464546931435                 2
   105   106   109   110     1      0.000000000000     -0.251143550136                 3
   105   106   109   110     1    180.000000000000     -0.043678926009                 4
    15     8     9    28     1    180.000000000000     15.321515534534                 2
   154   153   155   174     1      0.000000000000      0.483407861024                 3
    94    95   102   121     1    180.000000000000     15.321515534534                 2
   106   109   110   133     1      0.000000000000     -3.700671443308                 1
   106   109   110   133     1    180.000000000000      1.339465961357                 2
   106   109   110   133     1      0.000000000000     -0.422938302828                 3
   106   109   110   133     1    180.000000000000     -0.892207972499                 4
   186   183   185   197     1      0.000000000000      0.466735938990                 3
   186   183   185   197     1      0.000000000000      1.436153909162                 1
    34    16    17    35     1    180.000000000000     15.321515534534                 2
    98   101   102   121     1    180.000000000000     15.321515534534                 2
    96    95   102   101     1    180.000000000000     15.321515534534                 2
     1     3    25    44     1    180.000000000000     15.321515534534                 2
    51    52    59    60     1    180.000000000000      4.866977563957                 2
     1     3    25    24     1    180.000000000000     15.321515534534                 2
     3     1   178   177     1      0.000000000000     -1.365835540975                 1
     3     1   178   177     1    180.000000000000     13.667779248224                 2
     3     1   178   177     1      0.000000000000      1.936070631158                 3
     3     1   178   177     1    180.000000000000      1.501824239293                 4
    17    18    21    38     1      0.000000000000     -0.116758018889                 1
    17    18    21    38     1    180.000000000000     -0.832578844106                 2
    17    18    21    38     1      0.000000000000     -0.273754590650                 3
    17    18    21    38     1    180.000000000000      0.162294396255                 4
   112    94    93   115     1    180.000000000000     15.321515534534                 2
    97    96   103   108     1    180.000000000000      4.866977563957                 2
   126   109   111   130     1      0.000000000000      0.799950138473                 3
    52    59    64    63     1    180.000000000000     15.321515534534                 2
    10    11    12    30     1      0.000000000000      0.198220506977                 3
   152   151   150   153     1    180.000000000000     15.321515534534                 2
    96   103   108   125     1    180.000000000000     15.321515534534                 2
   100    99    98   101     1      0.000000000000      0.099416038382                 1
   100    99    98   101     1    180.000000000000      9.050931121674                 2
   100    99    98   101     1      0.000000000000      0.473974975878                 3
   100    99    98   101     1    180.000000000000      0.628851037202                 4
    50    51    52    53     1    180.000000000000     15.321515534534                 2
   139   140   147   152     1    180.000000000000      4.866977563957                 2
    96    95   102   121     1    180.000000000000     15.321515534534                 2
    14     7     8    15     1    180.000000000000     15.321515534534                 2
    51    58    57    76     1    180.000000000000     15.321515534534                 2
    89    91    92   114     1    180.000000000000     15.321515534534                 2
   135   157   156   175     1    180.000000000000     15.321515534534                 2
    24     6     5    27     1    180.000000000000     15.321515534534                 2
    98    99   100   118     1      0.000000000000      0.198220506977                 3
   184   183   185   195     1      0.000000000000      0.435413753811                 3
   150   153   155   172     1      0.000000000000      0.483407861024                 3
    51    52    59    64     1    180.000000000000      4.866977563957                 2
    52    53    54    57     1    180.000000000000     15.321515534534                 2
    18    17    16    34     1    180.000000000000     15.321515534534                 2
   186   183   182   190     1      0.000000000000      0.466735938990                 3
   186   183   182   190     1      0.000000000000      1.436153909162                 1
    20    15    16    34     1    180.000000000000     15.321515534534                 2
    49    50    51    52     1      0.000000000000     -0.241835411655                 1
    49    50    51    52     1    180.000000000000      5.427644958583                 2
    49    50    51    52     1      0.000000000000     -0.208585007099                 3
    49    50    51    52     1    180.000000000000      0.303989336866                 4
    47    69    68    87     1    180.000000000000     15.321515534534                 2
   106   105   104   122     1    180.000000000000     15.321515534534                 2
   109   106   105   123     1    180.000000000000     15.321515534534                 2
   139   138   137   159     1    180.000000000000     15.321515534534                 2
   137   136   135   157     1    180.000000000000     15.321515534534                 2
    83    66    89    91     1      0.000000000000      0.871027764609                 1
    83    66    89    91     1    180.000000000000      7.706657846814                 2
    83    66    89    91     1      0.000000000000      0.423380926962                 3
    83    66    89    91     1    180.000000000000      0.388469639312                 4
    94    95    96    97     1    180.000000000000     15.321515534534                 2
    52    51    50    68     1      0.000000000000     -0.241835411655                 1
    52    51    50    68     1    180.000000000000      5.427644958583                 2
    52    51    50    68     1      0.000000000000     -0.208585007099                 3
    52    51    50    68     1    180.000000000000      0.303989336866                 4
    52    59    60    78     1    180.000000000000     15.321515534534                 2
     7     8     9    10     1    180.000000000000     15.321515534534                 2
    38    21    23    40     1      0.000000000000      0.799950138473                 3
   110   109   111   128     1      0.000000000000      0.483407861024                 3
   133   135   136   137     1    180.000000000000     15.321515534534                 2
   134   133   135   136     1      0.000000000000     -0.270863823998                 1
   134   133   135   136     1    180.000000000000      0.947926434169                 2
   134   133   135   136     1      0.000000000000      0.002274365033                 3
   134   133   135   136     1    180.000000000000      0.619957801127                 4
   153   150   151   168     1    180.000000000000     15.321515534534                 2
    96    97    98   101     1    180.000000000000     15.321515534534                 2
   107   106   109   111     1      0.000000000000     -0.202901273497                 1
   107   106   109   111     1    180.000000000000     -0.086329199834                 2
   107   106   109   111     1      0.000000000000     -0.247566839267                 3
   107   106   109   111     1    180.000000000000     -0.035914832101                 4
   149   148   147   152     1    180.000000000000     15.321515534534                 2
   158   136   137   159     1    180.000000000000     15.321515534534                 2
   147   140   141   160     1    180.000000000000     15.321515534534                 2
    94    93    92   114     1    180.000000000000     15.321515534534                 2
   139   140   141   142     1    180.000000000000     15.321515534534                 2
     9     8    15    20     1    180.000000000000      4.866977563957                 2
    12    11    10    13     1      0.000000000000      0.099416038382                 1
    12    11    10    13     1    180.000000000000      9.050931121674                 2
    12    11    10    13     1      0.000000000000      0.473974975878                 3
    12    11    10    13     1    180.000000000000      0.628851037202                 4
    15    20    19    36     1    180.000000000000     15.321515534534                 2
   150   149   148   166     1    180.000000000000     15.321515534534                 2
   103   104   105   123     1    180.000000000000     15.321515534534                 2
    99    98   101   120     1    180.000000000000     15.321515534534                 2
   186   183   184   192     1      0.000000000000      0.466735938990                 3
   186   183   184   192     1      0.000000000000      1.436153909162                 1
   111   109   110   127     1      0.000000000000     -2.257154783161                 1
   111   109   110   127     1    180.000000000000     -0.555120436529                 2
   111   109   110   127     1      0.000000000000      1.400481817851                 3
   111   109   110   127     1    180.000000000000     -0.663469007095                 4
   137   138   139   146     1      0.000000000000      0.255378194547                 1
   137   138   139   146     1    180.000000000000      6.115043598569                 2
   137   138   139   146     1      0.000000000000      0.147138087687                 3
   137   138   139   146     1    180.000000000000      1.309986077753                 4
    66    65    67    86     1      0.000000000000      0.483407861024                 3
    99    98   101   102     1    180.000000000000     15.321515534534                 2
    53    54    55    56     1      0.000000000000      0.099416038382                 1
    53    54    55    56     1    180.000000000000      9.050931121674                 2
    53    54    55    56     1      0.000000000000      0.473974975878                 3
    53    54    55    56     1    180.000000000000      0.628851037202                 4
   139   146   145   142     1    180.000000000000     15.321515534534                 2
    67    65    66    83     1      0.000000000000     -2.257154783161                 1
    67    65    66    83     1    180.000000000000     -0.555120436529                 2
    67    65    66    83     1      0.000000000000      1.400481817851                 3
    67    65    66    83     1    180.000000000000     -0.663469007095                 4
    65    62    61    79     1    180.000000000000     15.321515534534                 2
     8    15    20    19     1    180.000000000000     15.321515534534                 2
   140   139   138   156     1      0.000000000000     -0.241835411655                 1
   140   139   138   156     1    180.000000000000      5.427644958583                 2
   140   139   138   156     1      0.000000000000     -0.208585007099                 3
   140   139   138   156     1    180.000000000000      0.303989336866                 4
    65    66    89    90     1      0.000000000000     -1.660241084081                 1
    65    66    89    90     1    180.000000000000     12.148156365471                 2
    65    66    89    90     1      0.000000000000      0.909174854031                 3
    65    66    89    90     1    180.000000000000     -0.661123847686                 4
    62    63    64    81     1    180.000000000000     15.321515534534                 2
   185   183   184   194     1      0.000000000000      0.435413753811                 3
    97    96    95   102     1    180.000000000000     15.321515534534                 2
    54    57    58    77     1    180.000000000000     15.321515534534                 2
   106   109   111   130     1      0.000000000000      0.483407861024                 3
     9    10    13    32     1    180.000000000000     15.321515534534                 2
     9     8     7    14     1    180.000000000000     15.321515534534                 2
    93    94    95    96     1      0.000000000000     -0.241835411655                 1
    93    94    95    96     1    180.000000000000      5.427644958583                 2
    93    94    95    96     1      0.000000000000     -0.208585007099                 3
    93    94    95    96     1    180.000000000000      0.303989336866                 4
   150   153   154   171     1      0.000000000000      2.924437679798                 1
   150   153   154   171     1    180.000000000000      0.492295168524                 2
   150   153   154   171     1      0.000000000000     -0.005211217749                 3
   150   153   154   171     1    180.000000000000      0.288663922968                 4
   171   154   187   186     1      0.000000000000      0.773261195537                 1
   171   154   187   186     1    180.000000000000      7.759285330695                 2
   171   154   187   186     1      0.000000000000      0.300116997962                 3
   171   154   187   186     1    180.000000000000      0.600205582108                 4
    95    96    97   116     1    180.000000000000     15.321515534534                 2
    19    18    21    23     1      0.000000000000     -0.202901273497                 1
    19    18    21    23     1    180.000000000000     -0.086329199834                 2
    19    18    21    23     1      0.000000000000     -0.247566839267                 3
    19    18    21    23     1    180.000000000000     -0.035914832101                 4
    49    50    51    58     1      0.000000000000      0.255378194547                 1
    49    50    51    58     1    180.000000000000      6.115043598569                 2
    49    50    51    58     1      0.000000000000      0.147138087687                 3
    49    50    51    58     1    180.000000000000      1.309986077753                 4
    94    95    96   103     1    180.000000000000     15.321515534534                 2
     7     8    15    20     1    180.000000000000      4.866977563957                 2
   137   138   156   175     1    180.000000000000     15.321515534534                 2
   140   141   142   145     1    180.000000000000     15.321515534534                 2
    22    21    23    41     1      0.000000000000      0.483407861024                 3
     1   178   177   179     1      0.000000000000      0.198220506977                 3
     5     4     3    25     1    180.000000000000     15.321515534534                 2
   147   152   151   168     1    180.000000000000     15.321515534534                 2
   131   112   113   132     1    180.000000000000     15.321515534534                 2
   137   138   156   157     1    180.000000000000     15.321515534534                 2
   104   103   108   125     1    180.000000000000     15.321515534534                 2
    92    93    94    95     1    180.000000000000     15.321515534534                 2
    98    97    96   103     1    180.000000000000     15.321515534534                 2
     8     9    10    13     1    180.000000000000     15.321515534534                 2
    89    91    92    93     1    180.000000000000     15.321515534534                 2
   185   183   182   189     1      0.000000000000      0.435413753811                 3
    98    99   100   117     1      0.000000000000      0.198220506977                 3
   106   107   108   125     1    180.000000000000     15.321515534534                 2
    97    98   101   120     1    180.000000000000     15.321515534534                 2
   105   104   103   108     1    180.000000000000     15.321515534534                 2
   104   103   108   107     1    180.000000000000     15.321515534534                 2
   149   150   151   152     1    180.000000000000     15.321515534534                 2
   111   109   110   133     1      0.000000000000      0.418533166455                 1
   111   109   110   133     1    180.000000000000     -0.582466462028                 2
   111   109   110   133     1      0.000000000000     -1.217529047209                 3
   111   109   110   133     1    180.000000000000     -0.281456485487                 4
    76    57    58    77     1    180.000000000000     15.321515534534                 2
    55    54    53    72     1    180.000000000000     15.321515534534                 2
    91   113   112    94     1    180.000000000000     15.321515534534                 2
    52    51    58    77     1    180.000000000000     15.321515534534                 2
    47    69    68    50     1    180.000000000000     15.321515534534                 2
    52    59    60    61     1    180.000000000000     15.321515534534                 2
    67    65    66    89     1      0.000000000000      0.418533166455                 1
    67    65    66    89     1    180.000000000000     -0.582466462028                 2
    67    65    66    89     1      0.000000000000     -1.217529047209                 3
    67    65    66    89     1    180.000000000000     -0.281456485487                 4
     5     6     7     8     1      0.000000000000     -0.241835411655                 1
     5     6     7     8     1    180.000000000000      5.427644958583                 2
     5     6     7     8     1      0.000000000000     -0.208585007099                 3
     5     6     7     8     1    180.000000000000      0.303989336866                 4
    11    10     9    28     1    180.000000000000     15.321515534534                 2
    95    94   112   131     1    180.000000000000     15.321515534534                 2
    22    45    47    48     1      0.000000000000      0.259702831036                 1
    22    45    47    48     1    180.000000000000      3.026074469520                 2
    22    45    47    48     1      0.000000000000      0.000256535572                 3
    22    45    47    48     1    180.000000000000     -0.513315731905                 4
     2     1   178   177     1      0.000000000000      1.860005131780                 1
     2     1   178   177     1    180.000000000000      7.244369538477                 2
     2     1   178   177     1      0.000000000000     -1.830937958660                 3
     2     1   178   177     1    180.000000000000      0.487643423611                 4
     4     5     6    24     1    180.000000000000     15.321515534534                 2
   105   106   107   124     1    180.000000000000     15.321515534534                 2
   155   153   154   171     1      0.000000000000     -1.677438002947                 1
   155   153   154   171     1    180.000000000000      1.035848293721                 2
   155   153   154   171     1      0.000000000000      0.276971755359                 3
   155   153   154   171     1    180.000000000000      0.001603526869                 4
   164   145   146   165     1    180.000000000000     15.321515534534                 2
   142   145   146   165     1    180.000000000000     15.321515534534                 2
    60    61    62    65     1    180.000000000000     15.321515534534                 2
    95    94   112   113     1    180.000000000000     15.321515534534                 2
    62    65    66    83     1      0.000000000000      5.466943011662                 1
    62    65    66    83     1    180.000000000000      2.568759264304                 2
    62    65    66    83     1      0.000000000000      0.367734069005                 3
    62    65    66    83     1    180.000000000000      0.741368484416                 4
     6     7     8    15     1    180.000000000000     15.321515534534                 2
   148   149   150   151     1    180.000000000000     15.321515534534                 2
   183   186   187   188     1      0.000000000000      1.565631333043                 1
   183   186   187   188     1    180.000000000000      7.214981712572                 2
   183   186   187   188     1      0.000000000000      0.489036102910                 3
   183   186   187   188     1    180.000000000000      0.461654437403                 4
    45    47    69    88     1    180.000000000000     15.321515534534                 2
     3    25    24    43     1    180.000000000000     15.321515534534                 2
   184   183   182   191     1      0.000000000000      0.435413753811                 3
   120   101   102   121     1    180.000000000000     15.321515534534                 2
    45    47    69    68     1    180.000000000000     15.321515534534                 2
     7     6    24    25     1    180.000000000000     15.321515534534                 2
    93    94    95   102     1      0.000000000000      0.255378194547                 1
    93    94    95   102     1    180.000000000000      6.115043598569                 2
    93    94    95   102     1      0.000000000000      0.147138087687                 3
    93    94    95   102     1    180.000000000000      1.309986077753                 4
   182   183   184   193     1      0.000000000000      0.435413753811                 3
    93    94   112   131     1    180.000000000000     15.321515534534                 2
    90    89    91    92     1      0.000000000000     -0.270863823998                 1
    90    89    91    92     1    180.000000000000      0.947926434169                 2
    90    89    91    92     1      0.000000000000      0.002274365033                 3
    90    89    91    92     1    180.000000000000      0.619957801127                 4
    19    18    17    35     1    180.000000000000     15.321515534534                 2
    25     3     1   178     1      0.000000000000     -0.089574429121                 1
    25     3     1   178     1    180.000000000000      2.123822922472                 2
    25     3     1   178     1      0.000000000000     -0.147550597350                 3
    25     3     1   178     1    180.000000000000      0.018584518419                 4
    97    96   103   104     1    180.000000000000      4.866977563957                 2
    66    65    67    85     1      0.000000000000      0.483407861024                 3
    18    21    23    41     1      0.000000000000      0.483407861024                 3
   151   150   153   155     1      0.000000000000     -0.114009859927                 1
   151   150   153   155     1    180.000000000000      0.167485696155                 2
   151   150   153   155     1      0.000000000000     -0.185851308297                 3
   151   150   153   155     1    180.000000000000     -0.075431094769                 4
    16    15    20    37     1    180.000000000000     15.321515534534                 2
    21    22    45    47     1      0.000000000000     -0.373236204142                 1
    21    22    45    47     1    180.000000000000      7.452521681789                 2
    21    22    45    47     1      0.000000000000      1.515708111226                 3
    21    22    45    47     1    180.000000000000      2.543459871243                 4
   105   106   109   126     1      0.000000000000     -0.116758018889                 1
   105   106   109   126     1    180.000000000000     -0.832578844106                 2
   105   106   109   126     1      0.000000000000     -0.273754590650                 3
   105   106   109   126     1    180.000000000000      0.162294396255                 4
   140   139   146   165     1    180.000000000000     15.321515534534                 2
   148   147   152   169     1    180.000000000000     15.321515534534                 2
   141   142   143   144     1      0.000000000000      0.099416038382                 1
   141   142   143   144     1    180.000000000000      9.050931121674                 2
   141   142   143   144     1      0.000000000000      0.473974975878                 3
   141   142   143   144     1    180.000000000000      0.628851037202                 4
   140   139   146   145     1    180.000000000000     15.321515534534                 2
    38    21    22    45     1      0.000000000000      3.366985936763                 1
    38    21    22    45     1    180.000000000000     -1.219328235672                 2
    38    21    22    45     1      0.000000000000     -0.349614822743                 3
    38    21    22    45     1    180.000000000000      0.050705563864                 4
    51    50    68    87     1    180.000000000000     15.321515534534                 2
   139   140   147   148     1    180.000000000000      4.866977563957                 2
   148   147   152   151     1    180.000000000000     15.321515534534                 2
     7    14    13    32     1    180.000000000000     15.321515534534                 2
   106   109   111   129     1      0.000000000000      0.483407861024                 3
    11    10    13    14     1    180.000000000000     15.321515534534                 2
    63    62    61    79     1    180.000000000000     15.321515534534                 2
   182   183   185   197     1      0.000000000000      0.435413753811                 3
    64    59    60    78     1    180.000000000000     15.321515534534                 2
     6    24    25    44     1    180.000000000000     15.321515534534                 2
    66    89    91   113     1      0.000000000000      0.259702831036                 1
    66    89    91   113     1    180.000000000000      3.026074469520                 2
    66    89    91   113     1      0.000000000000      0.000256535572                 3
    66    89    91   113     1    180.000000000000     -0.513315731905                 4
   140   147   152   169     1    180.000000000000     15.321515534534                 2
    58    51    52    59     1    180.000000000000     15.321515534534                 2
    49    50    68    87     1    180.000000000000     15.321515534534                 2
   136   137   138   139     1    180.000000000000     15.321515534534                 2
   103    96    97   116     1    180.000000000000     15.321515534534                 2
   109   106   107   124     1    180.000000000000     15.321515534534                 2
    54    53    52    59     1    180.000000000000     15.321515534534                 2
    65    62    63    80     1    180.000000000000     15.321515534534                 2
   141   142   145   146     1    180.000000000000     15.321515534534                 2
    19    18    21    22     1      0.000000000000      0.310203004974                 1
    19    18    21    22     1    180.000000000000      1.464546931435                 2
    19    18    21    22     1      0.000000000000     -0.251143550136                 3
    19    18    21    22     1    180.000000000000     -0.043678926009                 4
   149   150   153   154     1      0.000000000000      0.188214480925                 1
   149   150   153   154     1    180.000000000000      0.992043741944                 2
   149   150   153   154     1      0.000000000000     -0.199108385469                 3
   149   150   153   154     1    180.000000000000      0.155712617426                 4
    63    62    65    67     1      0.000000000000     -0.202901273497                 1
    63    62    65    67     1    180.000000000000     -0.086329199834                 2
    63    62    65    67     1      0.000000000000     -0.247566839267                 3
    63    62    65    67     1    180.000000000000     -0.035914832101                 4
     5     6     7    14     1      0.000000000000      0.255378194547                 1
     5     6     7    14     1    180.000000000000      6.115043598569                 2
     5     6     7    14     1      0.000000000000      0.147138087687                 3
     5     6     7    14     1    180.000000000000      1.309986077753                 4
    49    48    47    69     1    180.000000000000     15.321515534534                 2
    13    10     9    28     1    180.000000000000     15.321515534534                 2
    22    21    23    40     1      0.000000000000      0.483407861024                 3
    61    62    65    67     1      0.000000000000     -0.202901273497                 1
    61    62    65    67     1    180.000000000000     -0.086329199834                 2
    61    62    65    67     1      0.000000000000     -0.247566839267                 3
    61    62    65    67     1    180.000000000000     -0.035914832101                 4
   108   107   106   109     1    180.000000000000     15.321515534534                 2
    50    68    69    88     1    180.000000000000     15.321515534534                 2
   135   136   137   159     1    180.000000000000     15.321515534534                 2
    48    49    50    68     1    180.000000000000     15.321515534534                 2
    62    65    66    89     1      0.000000000000     -3.700671443308                 1
    62    65    66    89     1    180.000000000000      1.339465961357                 2
    62    65    66    89     1      0.000000000000     -0.422938302828                 3
    62    65    66    89     1    180.000000000000     -0.892207972499                 4
    54    55    56    73     1      0.000000000000      0.198220506977                 3
    91   113   112   131     1    180.000000000000     15.321515534534                 2
    96   103   108   107     1    180.000000000000     15.321515534534                 2
   170   153   155   173     1      0.000000000000      0.799950138473                 3
     9     8    15    16     1    180.000000000000      4.866977563957                 2
    95   102   101    98     1    180.000000000000     15.321515534534                 2
   113    91    92   114     1    180.000000000000     15.321515534534                 2
   152   147   148   166     1    180.000000000000     15.321515534534                 2
   127   110   133   134     1      0.000000000000      4.222981482677                 1
   127   110   133   134     1    180.000000000000      9.776877442699                 2
   127   110   133   134     1      0.000000000000     -0.063801604437                 3
   127   110   133   134     1    180.000000000000     -0.338533248540                 4
   146   139   138   156     1      0.000000000000      0.255378194547                 1
   146   139   138   156     1    180.000000000000      6.115043598569                 2
   146   139   138   156     1      0.000000000000      0.147138087687                 3
   146   139   138   156     1    180.000000000000      1.309986077753                 4
    55    54    57    76     1    180.000000000000     15.321515534534                 2
    21    18    17    35     1    180.000000000000     15.321515534534                 2
    87    68    69    88     1    180.000000000000     15.321515534534                 2
     8    15    16    34     1    180.000000000000     15.321515534534                 2
    82    65    67    86     1      0.000000000000      0.799950138473                 3
    92    91   113   112     1    180.000000000000     15.321515534534                 2
   136   135   157   156     1    180.000000000000     15.321515534534                 2
    62    65    67    84     1      0.000000000000      0.483407861024                 3
   141   140   147   148     1    180.000000000000      4.866977563957                 2
   184   183   182   190     1      0.000000000000      0.435413753811                 3
   184   183   185   197     1      0.000000000000      0.435413753811                 3
   150   153   154   187     1      0.000000000000     -3.459043091808                 1
   150   153   154   187     1    180.000000000000      1.684019377424                 2
   150   153   154   187     1      0.000000000000     -1.204088871579                 3
   150   153   154   187     1    180.000000000000      0.069746643077                 4
   150   153   155   174     1      0.000000000000      0.483407861024                 3
   109   110   133   135     1      0.000000000000     -0.373236204142                 1
   109   110   133   135     1    180.000000000000      7.452521681789                 2
   109   110   133   135     1      0.000000000000      1.515708111226                 3
   109   110   133   135     1    180.000000000000      2.543459871243                 4
     5     6    24    43     1    180.000000000000     15.321515534534                 2
   136   137   138   156     1    180.000000000000     15.321515534534                 2
   151   150   149   167     1    180.000000000000     15.321515534534                 2
   150   151   152   169     1    180.000000000000     15.321515534534                 2
   182   183   184   192     1      0.000000000000      0.435413753811                 3
    59    60    61    79     1    180.000000000000     15.321515534534                 2
   133   135   157   156     1    180.000000000000     15.321515534534                 2
    59    64    63    80     1    180.000000000000     15.321515534534                 2
   136   135   157   176     1    180.000000000000     15.321515534534                 2
    95    96   103   108     1    180.000000000000      4.866977563957                 2
   151   150   153   154     1      0.000000000000      0.188214480925                 1
   151   150   153   154     1    180.000000000000      0.992043741944                 2
   151   150   153   154     1      0.000000000000     -0.199108385469                 3
   151   150   153   154     1    180.000000000000      0.155712617426                 4
    18    21    23    40     1      0.000000000000      0.483407861024                 3
    43    24    25    44     1    180.000000000000     15.321515534534                 2
     7     8    15    16     1    180.000000000000      4.866977563957                 2
   168   151   152   169     1    180.000000000000     15.321515534534                 2
     9    10    11    12     1      0.000000000000      0.099416038382                 1
     9    10    11    12     1    180.000000000000      9.050931121674                 2
     9    10    11    12     1      0.000000000000      0.473974975878                 3
     9    10    11    12     1    180.000000000000      0.628851037202                 4
   143   142   141   160     1    180.000000000000     15.321515534534                 2
    38    21    23    42     1      0.000000000000      0.799950138473                 3
   110   109   111   130     1      0.000000000000      0.483407861024                 3
    50    51    52    59     1    180.000000000000     15.321515534534                 2
   141   140   147   152     1    180.000000000000      4.866977563957                 2
     4     5     6     7     1    180.000000000000     15.321515534534                 2
    80    63    64    81     1    180.000000000000     15.321515534534                 2
   154   153   155   173     1      0.000000000000      0.483407861024                 3
    18    19    20    37     1    180.000000000000     15.321515534534                 2
   138   156   157   176     1    180.000000000000     15.321515534534                 2
    56    55    54    57     1      0.000000000000      0.099416038382                 1
    56    55    54    57     1    180.000000000000      9.050931121674                 2
    56    55    54    57     1      0.000000000000      0.473974975878                 3
    56    55    54    57     1    180.000000000000      0.628851037202                 4
    50    49    48    70     1    180.000000000000     15.321515534534                 2
   186   183   185   196     1      0.000000000000      0.466735938990                 3
   186   183   185   196     1      0.000000000000      1.436153909162                 1
   182   183   185   196     1      0.000000000000      0.435413753811                 3
   101    98    97   116     1    180.000000000000     15.321515534534                 2
    46    45    47    69     1      0.000000000000     -0.270863823998                 1
    46    45    47    69     1    180.000000000000      0.947926434169                 2
    46    45    47    69     1      0.000000000000      0.002274365033                 3
    46    45    47    69     1    180.000000000000      0.619957801127                 4
    15    20    19    18     1    180.000000000000     15.321515534534                 2
   153   154   187   186     1      0.000000000000     -0.324046238281                 1
   153   154   187   186     1    180.000000000000      8.876419529459                 2
   153   154   187   186     1      0.000000000000      0.220802023016                 3
   153   154   187   186     1    180.000000000000      0.681092351397                 4
   186   183   184   194     1      0.000000000000      0.466735938990                 3
   186   183   184   194     1      0.000000000000      1.436153909162                 1
     3    25    24     6     1    180.000000000000     15.321515534534                 2
    66    89    91    92     1      0.000000000000      0.259702831036                 1
    66    89    91    92     1    180.000000000000      3.026074469520                 2
    66    89    91    92     1      0.000000000000      0.000256535572                 3
    66    89    91    92     1    180.000000000000     -0.513315731905                 4
   139   146   145   164     1    180.000000000000     15.321515534534                 2
    89    91   113   112     1    180.000000000000     15.321515534534                 2
   126   109   111   129     1      0.000000000000      0.799950138473                 3
    63    62    65    66     1      0.000000000000      0.310203004974                 1
    63    62    65    66     1    180.000000000000      1.464546931435                 2
    63    62    65    66     1      0.000000000000     -0.251143550136                 3
    63    62    65    66     1    180.000000000000     -0.043678926009                 4
     4     3     1   178     1      0.000000000000     -0.089574429121                 1
     4     3     1   178     1    180.000000000000      2.123822922472                 2
     4     3     1   178     1      0.000000000000     -0.147550597350                 3
     4     3     1   178     1    180.000000000000      0.018584518419                 4
    10    11    12    29     1      0.000000000000      0.198220506977                 3
    61    62    65    66     1      0.000000000000      0.310203004974                 1
    61    62    65    66     1    180.000000000000      1.464546931435                 2
    61    62    65    66     1      0.000000000000     -0.251143550136                 3
    61    62    65    66     1    180.000000000000     -0.043678926009                 4
    51    52    53    72     1    180.000000000000     15.321515534534                 2
   155   153   154   187     1      0.000000000000      0.156985137442                 1
   155   153   154   187     1    180.000000000000     -1.125268943954                 2
   155   153   154   187     1      0.000000000000     -1.764819783920                 3
   155   153   154   187     1    180.000000000000     -0.503053466930                 4
    23    21    22    39     1      0.000000000000     -2.257154783161                 1
    23    21    22    39     1    180.000000000000     -0.555120436529                 2
    23    21    22    39     1      0.000000000000      1.400481817851                 3
    23    21    22    39     1    180.000000000000     -0.663469007095                 4
    97    98    99   100     1      0.000000000000      0.099416038382                 1
    97    98    99   100     1    180.000000000000      9.050931121674                 2
    97    98    99   100     1      0.000000000000      0.473974975878                 3
    97    98    99   100     1    180.000000000000      0.628851037202                 4
    48    49    50    51     1    180.000000000000     15.321515534534                 2
    95    96    97    98     1    180.000000000000     15.321515534534                 2
   103   108   107   124     1    180.000000000000     15.321515534534                 2
   105   106   109   111     1      0.000000000000     -0.202901273497                 1
   105   106   109   111     1    180.000000000000     -0.086329199834                 2
   105   106   109   111     1      0.000000000000     -0.247566839267                 3
   105   106   109   111     1    180.000000000000     -0.035914832101                 4
   104   105   106   107     1    180.000000000000     15.321515534534                 2
    62    61    60    78     1    180.000000000000     15.321515534534                 2
   149   150   151   168     1    180.000000000000     15.321515534534                 2
   182   183   186   187     1      0.000000000000      3.410525160408                 1
   182   183   186   187     1    180.000000000000      0.439702182047                 2
   182   183   186   187     1      0.000000000000     -0.724230170066                 3
   182   183   186   187     1    180.000000000000      0.854052563094                 4
   170   153   155   172     1      0.000000000000      0.799950138473                 3
    89    91   113   132     1    180.000000000000     15.321515534534                 2
   138   137   136   158     1    180.000000000000     15.321515534534                 2
    60    59    64    81     1    180.000000000000     15.321515534534                 2
   114    92    93   115     1    180.000000000000     15.321515534534                 2
   147   152   151   150     1    180.000000000000     15.321515534534                 2
    95    94    93   115     1    180.000000000000     15.321515534534                 2
     9    10    13    14     1    180.000000000000     15.321515534534                 2
    36    19    20    37     1    180.000000000000     15.321515534534                 2
    93    92    91   113     1    180.000000000000     15.321515534534                 2
   171   154   187   188     1      0.000000000000      2.806392069887                 1
   171   154   187   188     1    180.000000000000      1.904849100127                 2
   171   154   187   188     1      0.000000000000     -0.055645060301                 3
   171   154   187   188     1    180.000000000000     -0.549296037357                 4
    53    54    57    76     1    180.000000000000     15.321515534534                 2
   186   183   182   189     1      0.000000000000      0.466735938990                 3
   186   183   182   189     1      0.000000000000      1.436153909162                 1
   104   105   122   103     4    180.000000000000      1.534133333333                 2
   112   131    94   113     4    180.000000000000      1.534133333333                 2
   149   148   150   167     4    180.000000000000      1.534133333333                 2
    22    45    21    39     4    180.000000000000      1.394666666667                 2
   138   156   137   139     4    180.000000000000      1.534133333333                 2
    49    48    50    71     4    180.000000000000      1.534133333333                 2
    47    48    69    45     4    180.000000000000      1.534133333333                 2
     5    27     4     6     4    180.000000000000      1.534133333333                 2
    24    43     6    25     4    180.000000000000      1.534133333333                 2
   157   135   156   176     4    180.000000000000      1.534133333333                 2
    17    18    35    16     4    180.000000000000      1.534133333333                 2
   154   153   171   187     4    180.000000000000      1.394666666667                 2
    57    76    54    58     4    180.000000000000      1.534133333333                 2
    89    66    90    91     4    180.000000000000      1.534133333333                 2
    13    14    32    10     4    180.000000000000      1.534133333333                 2
    48    49    70    47     4    180.000000000000      1.534133333333                 2
   141   140   142   160     4    180.000000000000      1.534133333333                 2
   107   108   124   106     4    180.000000000000      1.534133333333                 2
    51    50    52    58     4    180.000000000000      1.534133333333                 2
   102    95   101   121     4    180.000000000000      1.534133333333                 2
    19    20    36    18     4    180.000000000000      1.534133333333                 2
    25    24    44     3     4    180.000000000000      1.534133333333                 2
    63    62    64    80     4    180.000000000000      1.534133333333                 2
    50    51    68    49     4    180.000000000000      1.534133333333                 2
     3    25     1     4     4    180.000000000000      1.534133333333                 2
   147   148   152   140     4    180.000000000000      1.534133333333                 2
   156   138   157   175     4    180.000000000000      1.534133333333                 2
   103   108    96   104     4    180.000000000000      1.534133333333                 2
   133   134   135   110     4    180.000000000000      1.534133333333                 2
    51    58    50    52     4    180.000000000000      1.534133333333                 2
    54    57    53    55     4    180.000000000000      1.534133333333                 2
    95   102    94    96     4    180.000000000000      1.534133333333                 2
   101   120    98   102     4    180.000000000000      1.534133333333                 2
    54    53    55    57     4    180.000000000000      1.534133333333                 2
    89    91    66    90     4    180.000000000000      1.534133333333                 2
    95    94    96   102     4    180.000000000000      1.534133333333                 2
    52    53    59    51     4    180.000000000000      1.534133333333                 2
   152   151   169   147     4    180.000000000000      1.534133333333                 2
   145   164   142   146     4    180.000000000000      1.534133333333                 2
    48    70    47    49     4    180.000000000000      1.534133333333                 2
    93   115    92    94     4    180.000000000000      1.534133333333                 2
   140   139   141   147     4    180.000000000000      1.534133333333                 2
     9    28     8    10     4    180.000000000000      1.534133333333                 2
   145   146   164   142     4    180.000000000000      1.534133333333                 2
    16    34    15    17     4    180.000000000000      1.534133333333                 2
    52    59    51    53     4    180.000000000000      1.534133333333                 2
   145   142   146   164     4    180.000000000000      1.534133333333                 2
    14    33     7    13     4    180.000000000000      1.534133333333                 2
   157   176   135   156     4    180.000000000000      1.534133333333                 2
    10    11    13     9     4    180.000000000000      1.534133333333                 2
   150   149   151   153     4    180.000000000000      1.534133333333                 2
   106   109   105   107     4    180.000000000000      1.534133333333                 2
   142   145   141   143     4    180.000000000000      1.534133333333                 2
   154   171   187   153     4    180.000000000000      1.394666666667                 2
    60    78    59    61     4    180.000000000000      1.534133333333                 2
   108   125   103   107     4    180.000000000000      1.534133333333                 2
     8    15     7     9     4    180.000000000000      1.534133333333                 2
    68    87    50    69     4    180.000000000000      1.534133333333                 2
    59    64    52    60     4    180.000000000000      1.534133333333                 2
    48    47    49    70     4    180.000000000000      1.534133333333                 2
   113   112   132    91     4    180.000000000000      1.534133333333                 2
     4     5    26     3     4    180.000000000000      1.534133333333                 2
    62    65    61    63     4    180.000000000000      1.534133333333                 2
    17    16    18    35     4    180.000000000000      1.534133333333                 2
   105   104   106   123     4    180.000000000000      1.534133333333                 2
     4     3     5    26     4    180.000000000000      1.534133333333                 2
   142   141   143   145     4    180.000000000000      1.534133333333                 2
   154   187   153   171     4    180.000000000000      1.394666666667                 2
   136   135   137   158     4    180.000000000000      1.534133333333                 2
     7     8    14     6     4    180.000000000000      1.534133333333                 2
   140   147   139   141     4    180.000000000000      1.534133333333                 2
    14     7    13    33     4    180.000000000000      1.534133333333                 2
   187   154   186   188     4    180.000000000000     14.644000000000                 2
   133   110   134   135     4    180.000000000000      1.534133333333                 2
    50    68    49    51     4    180.000000000000      1.534133333333                 2
    62    63    65    61     4    180.000000000000      1.534133333333                 2
    47    45    48    69     4    180.000000000000      1.534133333333                 2
   138   139   156   137     4    180.000000000000      1.534133333333                 2
   103    96   104   108     4    180.000000000000      1.534133333333                 2
    89    90    91    66     4    180.000000000000      1.534133333333                 2
    97    96    98   116     4    180.000000000000      1.534133333333                 2
   150   151   153   149     4    180.000000000000      1.534133333333                 2
    98    99   101    97     4    180.000000000000      1.534133333333                 2
    57    58    76    54     4    180.000000000000      1.534133333333                 2
    15    20     8    16     4    180.000000000000      1.534133333333                 2
    61    79    60    62     4    180.000000000000      1.534133333333                 2
   146   165   139   145     4    180.000000000000      1.534133333333                 2
    25    44     3    24     4    180.000000000000      1.534133333333                 2
   148   166   147   149     4    180.000000000000      1.534133333333                 2
    58    51    57    77     4    180.000000000000      1.534133333333                 2
   113    91   112   132     4    180.000000000000      1.534133333333                 2
   110   109   127   133     4    180.000000000000      1.394666666667                 2
    13    10    14    32     4    180.000000000000      1.534133333333                 2
    91   113    89    92     4    180.000000000000      1.534133333333                 2
   151   150   152   168     4    180.000000000000      1.534133333333                 2
   187   186   188   154     4    180.000000000000     14.644000000000                 2
    69    88    47    68     4    180.000000000000      1.534133333333                 2
    60    59    61    78     4    180.000000000000      1.534133333333                 2
    69    47    68    88     4    180.000000000000      1.534133333333                 2
     6     7    24     5     4    180.000000000000      1.534133333333                 2
    64    81    59    63     4    180.000000000000      1.534133333333                 2
   105   123   104   106     4    180.000000000000      1.534133333333                 2
    63    80    62    64     4    180.000000000000      1.534133333333                 2
    19    18    20    36     4    180.000000000000      1.534133333333                 2
   146   145   165   139     4    180.000000000000      1.534133333333                 2
     1   178     2     3     4    180.000000000000     14.644000000000                 2
    20    15    19    37     4    180.000000000000      1.534133333333                 2
   151   168   150   152     4    180.000000000000      1.534133333333                 2
   133   135   110   134     4    180.000000000000      1.534133333333                 2
    53    54    72    52     4    180.000000000000      1.534133333333                 2
   138   137   139   156     4    180.000000000000      1.534133333333                 2
    92    91    93   114     4    180.000000000000      1.534133333333                 2
    96    97   103    95     4    180.000000000000      1.534133333333                 2
   148   149   166   147     4    180.000000000000      1.534133333333                 2
    10     9    11    13     4    180.000000000000      1.534133333333                 2
    24    25    43     6     4    180.000000000000      1.534133333333                 2
    15    16    20     8     4    180.000000000000      1.534133333333                 2
    66    83    89    65     4    180.000000000000      1.394666666667                 2
     9     8    10    28     4    180.000000000000      1.534133333333                 2
   106   107   109   105     4    180.000000000000      1.534133333333                 2
   136   158   135   137     4    180.000000000000      1.534133333333                 2
   110   133   109   127     4    180.000000000000      1.394666666667                 2
    19    36    18    20     4    180.000000000000      1.534133333333                 2
    94   112    93    95     4    180.000000000000      1.534133333333                 2
    16    15    17    34     4    180.000000000000      1.534133333333                 2
    45    22    46    47     4    180.000000000000      1.534133333333                 2
   152   147   151   169     4    180.000000000000      1.534133333333                 2
   137   138   159   136     4    180.000000000000      1.534133333333                 2
     8     9    15     7     4    180.000000000000      1.534133333333                 2
    95    96   102    94     4    180.000000000000      1.534133333333                 2
     6    24     5     7     4    180.000000000000      1.534133333333                 2
   101   102   120    98     4    180.000000000000      1.534133333333                 2
    47    69    45    48     4    180.000000000000      1.534133333333                 2
    18    19    21    17     4    180.000000000000      1.534133333333                 2
   135   133   136   157     4    180.000000000000      1.534133333333                 2
   147   140   148   152     4    180.000000000000      1.534133333333                 2
   148   147   149   166     4    180.000000000000      1.534133333333                 2
    22    21    39    45     4    180.000000000000      1.394666666667                 2
    96    95    97   103     4    180.000000000000      1.534133333333                 2
   112    94   113   131     4    180.000000000000      1.534133333333                 2
    61    62    79    60     4    180.000000000000      1.534133333333                 2
   140   141   147   139     4    180.000000000000      1.534133333333                 2
   102   121    95   101     4    180.000000000000      1.534133333333                 2
    25     3    24    44     4    180.000000000000      1.534133333333                 2
    68    69    87    50     4    180.000000000000      1.534133333333                 2
    54    55    57    53     4    180.000000000000      1.534133333333                 2
   139   146   138   140     4    180.000000000000      1.534133333333                 2
    18    21    17    19     4    180.000000000000      1.534133333333                 2
    17    35    16    18     4    180.000000000000      1.534133333333                 2
     1     2     3   178     4    180.000000000000     14.644000000000                 2
    22    39    45    21     4    180.000000000000      1.394666666667                 2
    61    60    62    79     4    180.000000000000      1.534133333333                 2
    96   103    95    97     4    180.000000000000      1.534133333333                 2
    53    72    52    54     4    180.000000000000      1.534133333333                 2
    13    32    10    14     4    180.000000000000      1.534133333333                 2
    59    60    64    52     4    180.000000000000      1.534133333333                 2
    62    61    63    65     4    180.000000000000      1.534133333333                 2
   113   132    91   112     4    180.000000000000      1.534133333333                 2
    93    92    94   115     4    180.000000000000      1.534133333333                 2
   108   107   125   103     4    180.000000000000      1.534133333333                 2
    91    92   113    89     4    180.000000000000      1.534133333333                 2
    91    89    92   113     4    180.000000000000      1.534133333333                 2
     3     1     4    25     4    180.000000000000      1.534133333333                 2
   135   136   157   133     4    180.000000000000      1.534133333333                 2
    64    63    81    59     4    180.000000000000      1.534133333333                 2
    97   116    96    98     4    180.000000000000      1.534133333333                 2
   157   156   176   135     4    180.000000000000      1.534133333333                 2
   112   113   131    94     4    180.000000000000      1.534133333333                 2
   137   159   136   138     4    180.000000000000      1.534133333333                 2
   147   152   140   148     4    180.000000000000      1.534133333333                 2
    51    52    58    50     4    180.000000000000      1.534133333333                 2
    93    94   115    92     4    180.000000000000      1.534133333333                 2
    58    77    51    57     4    180.000000000000      1.534133333333                 2
     3     4    25     1     4    180.000000000000      1.534133333333                 2
    66    89    65    83     4    180.000000000000      1.394666666667                 2
    58    57    77    51     4    180.000000000000      1.534133333333                 2
    94    95   112    93     4    180.000000000000      1.534133333333                 2
   105   106   123   104     4    180.000000000000      1.534133333333                 2
   104   103   105   122     4    180.000000000000      1.534133333333                 2
   136   137   158   135     4    180.000000000000      1.534133333333                 2
     5     6    27     4     4    180.000000000000      1.534133333333                 2
    64    59    63    81     4    180.000000000000      1.534133333333                 2
   156   175   138   157     4    180.000000000000      1.534133333333                 2
     4    26     3     5     4    180.000000000000      1.534133333333                 2
    57    54    58    76     4    180.000000000000      1.534133333333                 2
    45    47    22    46     4    180.000000000000      1.534133333333                 2
    49    71    48    50     4    180.000000000000      1.534133333333                 2
   137   136   138   159     4    180.000000000000      1.534133333333                 2
   102   101   121    95     4    180.000000000000      1.534133333333                 2
   146   139   145   165     4    180.000000000000      1.534133333333                 2
    98   101    97    99     4    180.000000000000      1.534133333333                 2
   187   188   154   186     4    180.000000000000     14.644000000000                 2
    69    68    88    47     4    180.000000000000      1.534133333333                 2
    49    50    71    48     4    180.000000000000      1.534133333333                 2
   156   157   175   138     4    180.000000000000      1.534133333333                 2
     7    14     6     8     4    180.000000000000      1.534133333333                 2
    92    93   114    91     4    180.000000000000      1.534133333333                 2
    98    97    99   101     4    180.000000000000      1.534133333333                 2
   139   140   146   138     4    180.000000000000      1.534133333333                 2
   107   124   106   108     4    180.000000000000      1.534133333333                 2
   108   103   107   125     4    180.000000000000      1.534133333333                 2
   107   106   108   124     4    180.000000000000      1.534133333333                 2
   152   169   147   151     4    180.000000000000      1.534133333333                 2
   149   150   167   148     4    180.000000000000      1.534133333333                 2
    52    51    53    59     4    180.000000000000      1.534133333333                 2
   139   138   140   146     4    180.000000000000      1.534133333333                 2
    16    17    34    15     4    180.000000000000      1.534133333333                 2
    50    49    51    68     4    180.000000000000      1.534133333333                 2
   142   143   145   141     4    180.000000000000      1.534133333333                 2
     7     6     8    14     4    180.000000000000      1.534133333333                 2
   151   152   168   150     4    180.000000000000      1.534133333333                 2
    94    93    95   112     4    180.000000000000      1.534133333333                 2
    20    19    37    15     4    180.000000000000      1.534133333333                 2
     8     7     9    15     4    180.000000000000      1.534133333333                 2
    59    52    60    64     4    180.000000000000      1.534133333333                 2
   110   127   133   109     4    180.000000000000      1.394666666667                 2
    20    37    15    19     4    180.000000000000      1.534133333333                 2
     5     4     6    27     4    180.000000000000      1.534133333333                 2
    66    65    83    89     4    180.000000000000      1.394666666667                 2
   106   105   107   109     4    180.000000000000      1.534133333333                 2
    14    13    33     7     4    180.000000000000      1.534133333333                 2
   101    98   102   120     4    180.000000000000      1.534133333333                 2
    24     6    25    43     4    180.000000000000      1.534133333333                 2
    97    98   116    96     4    180.000000000000      1.534133333333                 2
    45    46    47    22     4    180.000000000000      1.534133333333                 2
    18    17    19    21     4    180.000000000000      1.534133333333                 2
    60    61    78    59     4    180.000000000000      1.534133333333                 2
     6     5     7    24     4    180.000000000000      1.534133333333                 2
   135   157   133   136     4    180.000000000000      1.534133333333                 2
    92   114    91    93     4    180.000000000000      1.534133333333                 2
    15     8    16    20     4    180.000000000000      1.534133333333                 2
   104   122   103   105     4    180.000000000000      1.534133333333                 2
     9    10    28     8     4    180.000000000000      1.534133333333                 2
    68    50    69    87     4    180.000000000000      1.534133333333                 2
   150   153   149   151     4    180.000000000000      1.534133333333                 2
    10    13     9    11     4    180.000000000000      1.534133333333                 2
   141   160   140   142     4    180.000000000000      1.534133333333                 2
     1     3   178     2     4    180.000000000000     14.644000000000                 2
    63    64    80    62     4    180.000000000000      1.534133333333                 2
   149   167   148   150     4    180.000000000000      1.534133333333                 2
   141   142   160   140     4    180.000000000000      1.534133333333                 2
   103   104   108    96     4    180.000000000000      1.534133333333                 2
    53    52    54    72     4    180.000000000000      1.534133333333                 2

[ settles ]
;i  funct   dOH  dHH


[ exclusions ]
;ai    aj


[ system ]
;name
FOO

[ molecules ]
;name	number
pop_tetramer.pdb	1

