Generated by Interchange
197
    1POP     C1    1  -0.241  -0.493   0.072
    1POP     O2    2  -0.205  -0.564  -0.020
    1POP     C3    3  -0.241  -0.344   0.066
    1POP     C4    4  -0.283  -0.263   0.172
    1POP     C5    5  -0.270  -0.124   0.163
    1POP     C6    6  -0.214  -0.063   0.049
    1POP     C7    7  -0.196   0.084   0.042
    1POP     C8    8  -0.070   0.145   0.018
    1POP     C9    9  -0.065   0.286   0.007
    1POP    C10   10  -0.178   0.366   0.022
    1POP    O11   11  -0.156   0.500   0.008
    1POP    C12   12  -0.268   0.586   0.022
    1POP    C13   13  -0.300   0.306   0.049
    1POP    C14   14  -0.309   0.166   0.059
    1POP    C15   15   0.056   0.068   0.004
    1POP    C16   16   0.136   0.077  -0.111
    1POP    C17   17   0.253   0.002  -0.124
    1POP    C18   18   0.294  -0.086  -0.023
    1POP    C19   19   0.216  -0.094   0.093
    1POP    C20   20   0.099  -0.018   0.107
    1POP    C21   21   0.423  -0.165  -0.030
    1POP    N22   22   0.430  -0.249  -0.149
    1POP    C23   23   0.545  -0.070  -0.029
    1POP    C24   24  -0.176  -0.146  -0.058
    1POP    C25   25  -0.188  -0.285  -0.050
    1POP    H26   26  -0.324  -0.307   0.262
    1POP    H27   27  -0.300  -0.063   0.248
    1POP    H28   28   0.031   0.335  -0.012
    1POP    H29   29  -0.233   0.689   0.006
    1POP    H30   30  -0.310   0.581   0.123
    1POP    H31   31  -0.344   0.565  -0.054
    1POP    H32   32  -0.391   0.363   0.062
    1POP    H33   33  -0.406   0.122   0.078
    1POP    H34   34   0.106   0.144  -0.192
    1POP    H35   35   0.312   0.014  -0.215
    1POP    H36   36   0.245  -0.161   0.174
    1POP    H37   37   0.042  -0.027   0.198
    1POP    H38   38   0.431  -0.231   0.057
    1POP    H39   39   0.407  -0.202  -0.235
    1POP    H40   40   0.638  -0.127  -0.028
    1POP    H41   41   0.543  -0.005   0.059
    1POP    H42   42   0.547  -0.007  -0.119
    1POP    H43   43  -0.133  -0.102  -0.148
    1POP    H44   44  -0.153  -0.346  -0.132
    2POP    C45   45   0.528  -0.347  -0.151
    2POP    O46   46   0.546  -0.422  -0.056
    2POP    C47   47   0.622  -0.347  -0.267
    2POP    C48   48   0.615  -0.254  -0.372
    2POP    C49   49   0.714  -0.251  -0.470
    2POP    C50   50   0.823  -0.340  -0.468
    2POP    C51   51   0.927  -0.334  -0.573
    2POP    C52   52   1.065  -0.316  -0.546
    2POP    C53   53   1.155  -0.317  -0.654
    2POP    C54   54   1.112  -0.333  -0.787
    2POP    O55   55   1.212  -0.332  -0.880
    2POP    C56   56   1.174  -0.351  -1.016
    2POP    C57   57   0.977  -0.348  -0.813
    2POP    C58   58   0.885  -0.349  -0.707
    2POP    C59   59   1.117  -0.294  -0.409
    2POP    C60   60   1.215  -0.379  -0.353
    2POP    C61   61   1.262  -0.359  -0.223
    2POP    C62   62   1.212  -0.254  -0.144
    2POP    C63   63   1.116  -0.169  -0.200
    2POP    C64   64   1.070  -0.188  -0.330
    2POP    C65   65   1.264  -0.224  -0.004
    2POP    N66   66   1.251  -0.339   0.084
    2POP    C67   67   1.411  -0.181  -0.010
    2POP    C68   68   0.829  -0.433  -0.363
    2POP    C69   69   0.730  -0.436  -0.263
    2POP    H70   70   0.536  -0.180  -0.379
    2POP    H71   71   0.707  -0.176  -0.549
    2POP    H72   72   1.262  -0.304  -0.636
    2POP    H73   73   1.265  -0.351  -1.076
    2POP    H74   74   1.111  -0.268  -1.051
    2POP    H75   75   1.124  -0.447  -1.030
    2POP    H76   76   0.938  -0.359  -0.913
    2POP    H77   77   0.780  -0.362  -0.730
    2POP    H78   78   1.254  -0.461  -0.412
    2POP    H79   79   1.338  -0.426  -0.184
    2POP    H80   80   1.076  -0.086  -0.142
    2POP    H81   81   0.996  -0.119  -0.370
    2POP    H82   82   1.206  -0.142   0.039
    2POP    H83   83   1.284  -0.426   0.047
    2POP    H84   84   1.448  -0.153   0.089
    2POP    H85   85   1.425  -0.095  -0.077
    2POP    H86   86   1.476  -0.262  -0.046
    2POP    H87   87   0.912  -0.502  -0.356
    2POP    H88   88   0.741  -0.506  -0.181
    3POP    C89   89   1.268  -0.314   0.220
    3POP    O90   90   1.213  -0.220   0.276
    3POP    C91   91   1.369  -0.397   0.293
    3POP    C92   92   1.447  -0.495   0.230
    3POP    C93   93   1.550  -0.558   0.299
    3POP    C94   94   1.578  -0.527   0.433
    3POP    C95   95   1.689  -0.594   0.504
    3POP    C96   96   1.796  -0.525   0.566
    3POP    C97   97   1.893  -0.599   0.635
    3POP    C98   98   1.889  -0.739   0.643
    3POP    O99   99   1.990  -0.796   0.715
    3POP   C100  100   1.991  -0.938   0.725
    3POP   C101  101   1.786  -0.807   0.580
    3POP   C102  102   1.687  -0.735   0.512
    3POP   C103  103   1.811  -0.377   0.557
    3POP   C104  104   1.818  -0.298   0.673
    3POP   C105  105   1.830  -0.159   0.665
    3POP   C106  106   1.835  -0.094   0.540
    3POP   C107  107   1.828  -0.173   0.425
    3POP   C108  108   1.818  -0.312   0.433
    3POP   C109  109   1.855   0.055   0.526
    3POP   N110  110   1.754   0.132   0.597
    3POP   C111  111   1.994   0.095   0.578
    3POP   C112  112   1.498  -0.430   0.496
    3POP   C113  113   1.396  -0.365   0.426
    3POP   H114  114   1.434  -0.521   0.126
    3POP   H115  115   1.612  -0.631   0.247
    3POP   H116  116   1.976  -0.548   0.684
    3POP   H117  117   2.076  -0.967   0.788
    3POP   H118  118   2.004  -0.984   0.627
    3POP   H119  119   1.900  -0.975   0.774
    3POP   H120  120   1.778  -0.915   0.581
    3POP   H121  121   1.606  -0.791   0.464
    3POP   H122  122   1.814  -0.345   0.771
    3POP   H123  123   1.837  -0.102   0.757
    3POP   H124  124   1.832  -0.127   0.326
    3POP   H125  125   1.814  -0.370   0.341
    3POP   H126  126   1.850   0.083   0.420
    3POP   H127  127   1.734   0.102   0.691
    3POP   H128  128   2.012   0.202   0.563
    3POP   H129  129   2.073   0.040   0.526
    3POP   H130  130   2.004   0.076   0.686
    3POP   H131  131   1.518  -0.401   0.599
    3POP   H132  132   1.340  -0.286   0.476
    4POP   C133  133   1.746   0.267   0.567
    4POP   O134  134   1.749   0.309   0.451
    4POP   C135  135   1.752   0.363   0.681
    4POP   C136  136   1.770   0.323   0.814
    4POP   C137  137   1.790   0.417   0.915
    4POP   C138  138   1.793   0.555   0.886
    4POP   C139  139   1.816   0.653   0.994
    4POP   C140  140   1.922   0.748   0.990
    4POP   C141  141   1.931   0.841   1.097
    4POP   C142  142   1.842   0.840   1.205
    4POP   O143  143   1.864   0.937   1.298
    4POP   C144  144   1.776   0.941   1.410
    4POP   C145  145   1.741   0.744   1.209
    4POP   C146  146   1.729   0.653   1.105
    4POP   C147  147   2.023   0.753   0.882
    4POP   C148  148   2.043   0.869   0.806
    4POP   C149  149   2.138   0.873   0.703
    4POP   C150  150   2.216   0.761   0.672
    4POP   C151  151   2.196   0.644   0.748
    4POP   C152  152   2.102   0.641   0.852
    4POP   C153  153   2.328   0.764   0.570
    4POP   N154  154   2.283   0.796   0.435
    4POP   C155  155   2.439   0.861   0.614
    4POP   C156  156   1.773   0.594   0.753
    4POP   C157  157   1.754   0.500   0.652
    4POP   H158  158   1.774   0.218   0.843
    4POP   H159  159   1.807   0.383   1.017
    4POP   H160  160   2.011   0.915   1.097
    4POP   H161  161   1.807   1.025   1.474
    4POP   H162  162   1.784   0.850   1.470
    4POP   H163  163   1.673   0.959   1.379
    4POP   H164  164   1.670   0.739   1.291
    4POP   H165  165   1.648   0.580   1.109
    4POP   H166  166   1.984   0.959   0.826
    4POP   H167  167   2.152   0.966   0.648
    4POP   H168  168   2.254   0.555   0.728
    4POP   H169  169   2.090   0.549   0.909
    4POP   H170  170   2.372   0.664   0.565
    4POP   H171  171   2.203   0.855   0.421
    4POP   H172  172   2.522   0.863   0.543
    4POP   H173  173   2.480   0.831   0.711
    4POP   H174  174   2.402   0.964   0.622
    4POP   H175  175   1.776   0.700   0.726
    4POP   H176  176   1.745   0.534   0.549
    5CAP   C177  177  -0.237  -0.669   0.225
    5CAP   O178  178  -0.274  -0.534   0.197
    5CAP   H179  179  -0.260  -0.737   0.142
    5CAP   H180  180  -0.291  -0.703   0.313
    5CAP   H181  181  -0.130  -0.672   0.246
    6CAP   C182  182   2.697   0.632   0.343
    6CAP   C183  183   2.582   0.688   0.259
    6CAP   C184  184   2.630   0.819   0.195
    6CAP   C185  185   2.540   0.585   0.155
    6CAP   O186  186   2.476   0.710   0.355
    6CAP   C187  187   2.360   0.774   0.324
    6CAP   O188  188   2.327   0.814   0.213
    6CAP   H189  189   2.784   0.606   0.282
    6CAP   H190  190   2.729   0.704   0.420
    6CAP   H191  191   2.666   0.542   0.398
    6CAP   H192  192   2.652   0.894   0.272
    6CAP   H193  193   2.554   0.863   0.130
    6CAP   H194  194   2.720   0.803   0.134
    6CAP   H195  195   2.503   0.494   0.204
    6CAP   H196  196   2.459   0.622   0.092
    6CAP   H197  197   2.624   0.557   0.090
  5.0000000  5.0000000  5.0000000
