Generated by Interchange
197
    1POM     C1    1  -0.295  -0.558  -0.086
    1POM     O2    2  -0.194  -0.466  -0.129
    1POM     C3    3  -0.205  -0.337  -0.085
    1POM     C4    4  -0.319  -0.282  -0.027
    1POM     C5    5  -0.314  -0.153   0.028
    1POM     C6    6  -0.196  -0.077   0.027
    1POM     C7    7  -0.194   0.057   0.089
    1POM     C8    8  -0.098   0.090   0.188
    1POM     C9    9  -0.078   0.221   0.228
    1POM    C10   10  -0.158   0.322   0.176
    1POM    C11   11  -0.264   0.290   0.089
    1POM    C12   12  -0.358   0.394   0.038
    1POM    O13   13  -0.440   0.372  -0.053
    1POM    C14   14  -0.280   0.158   0.045
    1POM    C15   15  -0.081  -0.131  -0.038
    1POM    C16   16   0.046  -0.056  -0.045
    1POM    C17   17   0.154  -0.089   0.038
    1POM    C18   18   0.271  -0.013   0.037
    1POM    C19   19   0.288   0.091  -0.055
    1POM    C20   20   0.421   0.162  -0.074
    1POM    C21   21   0.473   0.227   0.054
    1POM    N22   22   0.524   0.081  -0.143
    1POM    C23   23   0.179   0.127  -0.135
    1POM    C24   24   0.059   0.055  -0.129
    1POM    C25   25  -0.088  -0.261  -0.093
    1POM    H26   26  -0.262  -0.659  -0.112
    1POM    H27   27  -0.310  -0.555   0.022
    1POM    H28   28  -0.389  -0.538  -0.139
    1POM    H29   29  -0.412  -0.337  -0.018
    1POM    H30   30  -0.403  -0.114   0.078
    1POM    H31   31  -0.032   0.013   0.227
    1POM    H32   32   0.002   0.245   0.297
    1POM    H33   33  -0.136   0.425   0.203
    1POM    H34   34  -0.357   0.136  -0.029
    1POM    H35   35   0.147  -0.175   0.104
    1POM    H36   36   0.351  -0.041   0.104
    1POM    H37   37   0.404   0.244  -0.144
    1POM    H38   38   0.563   0.286   0.033
    1POM    H39   39   0.499   0.154   0.131
    1POM    H40   40   0.398   0.295   0.097
    1POM    H41   41   0.595   0.145  -0.176
    1POM    H42   42   0.185   0.211  -0.204
    1POM    H43   43  -0.026   0.087  -0.190
    1POM    H44   44   0.001  -0.305  -0.137
    2POM    C45   45   0.842  -0.792   0.424
    2POM    O46   46   0.720  -0.724   0.451
    2POM    C47   47   0.682  -0.628   0.361
    2POM    C48   48   0.763  -0.573   0.262
    2POM    C49   49   0.709  -0.487   0.166
    2POM    C50   50   0.572  -0.452   0.166
    2POM    C51   51   0.522  -0.365   0.057
    2POM    C52   52   0.416  -0.405  -0.027
    2POM    C53   53   0.372  -0.322  -0.131
    2POM    C54   54   0.432  -0.198  -0.153
    2POM    C55   55   0.534  -0.155  -0.067
    2POM    C56   56   0.594  -0.019  -0.078
    2POM    O57   57   0.706   0.003  -0.035
    2POM    C58   58   0.580  -0.239   0.035
    2POM    C59   59   0.491  -0.502   0.270
    2POM    C60   60   0.348  -0.469   0.282
    2POM    C61   61   0.250  -0.563   0.250
    2POM    C62   62   0.114  -0.532   0.265
    2POM    C63   63   0.074  -0.411   0.324
    2POM    C64   64  -0.071  -0.380   0.355
    2POM    C65   65  -0.156  -0.393   0.231
    2POM    N66   66  -0.132  -0.451   0.468
    2POM    C67   67   0.173  -0.315   0.350
    2POM    C68   68   0.308  -0.343   0.328
    2POM    C69   69   0.548  -0.590   0.366
    2POM    H70   70   0.849  -0.877   0.492
    2POM    H71   71   0.845  -0.832   0.322
    2POM    H72   72   0.927  -0.726   0.442
    2POM    H73   73   0.868  -0.600   0.252
    2POM    H74   74   0.774  -0.451   0.086
    2POM    H75   75   0.367  -0.501  -0.013
    2POM    H76   76   0.288  -0.353  -0.194
    2POM    H77   77   0.395  -0.134  -0.232
    2POM    H78   78   0.660  -0.205   0.100
    2POM    H79   79   0.277  -0.662   0.215
    2POM    H80   80   0.041  -0.607   0.236
    2POM    H81   81  -0.076  -0.275   0.385
    2POM    H82   82  -0.259  -0.359   0.249
    2POM    H83   83  -0.162  -0.495   0.193
    2POM    H84   84  -0.111  -0.331   0.155
    2POM    H85   85  -0.216  -0.401   0.493
    2POM    H86   86   0.146  -0.217   0.387
    2POM    H87   87   0.382  -0.266   0.348
    2POM    H88   88   0.484  -0.633   0.443
    3POM    C89   89  -0.187  -1.527   0.330
    3POM    O90   90  -0.099  -1.447   0.252
    3POM    C91   91  -0.088  -1.316   0.289
    3POM    C92   92  -0.172  -1.249   0.377
    3POM    C93   93  -0.141  -1.119   0.418
    3POM    C94   94  -0.027  -1.051   0.371
    3POM    C95   95   0.003  -0.917   0.426
    3POM    C96   96   0.126  -0.887   0.489
    3POM    C97   97   0.151  -0.761   0.544
    3POM    C98   98   0.053  -0.663   0.539
    3POM    C99   99  -0.068  -0.689   0.473
    3POM   C100  100  -0.170  -0.583   0.455
    3POM   O101  101  -0.288  -0.611   0.431
    3POM   C102  102  -0.093  -0.815   0.419
    3POM   C103  103   0.055  -1.116   0.276
    3POM   C104  104   0.174  -1.053   0.218
    3POM   C105  105   0.303  -1.092   0.257
    3POM   C106  106   0.416  -1.034   0.199
    3POM   C107  107   0.404  -0.944   0.092
    3POM   C108  108   0.524  -0.891   0.016
    3POM   C109  109   0.621  -0.822   0.109
    3POM   N110  110   0.594  -0.985  -0.073
    3POM   C111  111   0.275  -0.900   0.057
    3POM   C112  112   0.162  -0.952   0.121
    3POM   C113  113   0.023  -1.248   0.236
    3POM   H114  114  -0.173  -1.632   0.301
    3POM   H115  115  -0.166  -1.520   0.437
    3POM   H116  116  -0.292  -1.501   0.310
    3POM   H117  117  -0.259  -1.297   0.421
    3POM   H118  118  -0.206  -1.071   0.492
    3POM   H119  119   0.204  -0.963   0.495
    3POM   H120  120   0.247  -0.739   0.588
    3POM   H121  121   0.074  -0.564   0.580
    3POM   H122  122  -0.188  -0.834   0.369
    3POM   H123  123   0.316  -1.169   0.332
    3POM   H124  124   0.514  -1.065   0.235
    3POM   H125  125   0.488  -0.814  -0.053
    3POM   H126  126   0.702  -0.774   0.054
    3POM   H127  127   0.665  -0.890   0.182
    3POM   H128  128   0.564  -0.747   0.163
    3POM   H129  129   0.653  -0.930  -0.134
    3POM   H130  130   0.261  -0.824  -0.019
    3POM   H131  131   0.064  -0.916   0.093
    3POM   H132  132   0.088  -1.301   0.167
    4POM   C133  133   1.033  -1.850   0.424
    4POM   O134  134   0.916  -1.788   0.475
    4POM   C135  135   0.858  -1.692   0.397
    4POM   C136  136   0.901  -1.652   0.271
    4POM   C137  137   0.828  -1.557   0.199
    4POM   C138  138   0.712  -1.498   0.251
    4POM   C139  139   0.633  -1.408   0.164
    4POM   C140  140   0.501  -1.440   0.127
    4POM   C141  141   0.429  -1.359   0.040
    4POM   C142  142   0.488  -1.246  -0.014
    4POM   C143  143   0.617  -1.209   0.026
    4POM   C144  144   0.677  -1.082  -0.020
    4POM   O145  145   0.799  -1.063  -0.014
    4POM   C146  146   0.690  -1.291   0.113
    4POM   C147  147   0.671  -1.533   0.382
    4POM   C148  148   0.550  -1.480   0.445
    4POM   C149  149   0.438  -1.562   0.452
    4POM   C150  150   0.321  -1.516   0.511
    4POM   C151  151   0.316  -1.395   0.580
    4POM   C152  152   0.192  -1.355   0.659
    4POM   C153  153   0.070  -1.355   0.570
    4POM   N154  154   0.163  -1.428   0.783
    4POM   C155  155   0.425  -1.309   0.566
    4POM   C156  156   0.540  -1.350   0.496
    4POM   C157  157   0.745  -1.631   0.452
    4POM   H158  158   1.066  -1.925   0.497
    4POM   H159  159   1.012  -1.903   0.330
    4POM   H160  160   1.114  -1.778   0.412
    4POM   H161  161   0.988  -1.696   0.223
    4POM   H162  162   0.861  -1.531   0.098
    4POM   H163  163   0.453  -1.529   0.167
    4POM   H164  164   0.326  -1.384   0.015
    4POM   H165  165   0.430  -1.183  -0.081
    4POM   H166  166   0.791  -1.262   0.142
    4POM   H167  167   0.440  -1.662   0.410
    4POM   H168  168   0.233  -1.578   0.504
    4POM   H169  169   0.207  -1.251   0.692
    4POM   H170  170  -0.016  -1.311   0.622
    4POM   H171  171   0.041  -1.455   0.537
    4POM   H172  172   0.093  -1.296   0.482
    4POM   H173  173   0.109  -1.373   0.847
    4POM   H174  174   0.422  -1.208   0.606
    4POM   H175  175   0.623  -1.280   0.484
    4POM   H176  176   0.712  -1.663   0.551
    5CAP   C177  177  -0.392   0.533   0.224
    5CAP   O178  178  -0.339   0.516   0.092
    5CAP   H179  179  -0.482   0.472   0.240
    5CAP   H180  180  -0.418   0.639   0.237
    5CAP   H181  181  -0.317   0.508   0.299
    6CAP   C182  182   0.253  -1.842   0.599
    6CAP   C183  183   0.141  -1.779   0.685
    6CAP   C184  184   0.012  -1.780   0.602
    6CAP   C185  185   0.129  -1.859   0.814
    6CAP   O186  186   0.183  -1.643   0.711
    6CAP   C187  187   0.113  -1.556   0.786
    6CAP   O188  188   0.013  -1.583   0.851
    6CAP   H189  189   0.241  -1.950   0.589
    6CAP   H190  190   0.254  -1.800   0.498
    6CAP   H191  191   0.352  -1.821   0.643
    6CAP   H192  192   0.022  -1.715   0.514
    6CAP   H193  193  -0.073  -1.742   0.660
    6CAP   H194  194  -0.013  -1.880   0.568
    6CAP   H195  195   0.219  -1.847   0.875
    6CAP   H196  196   0.045  -1.826   0.875
    6CAP   H197  197   0.115  -1.966   0.793
  5.0000000  5.0000000  5.0000000
