FOO
 3367
    1POP     C1    1   4.491   2.767   0.872
    1POP     O2    2   4.407   2.724   0.951
    1POP     C3    3   4.505   2.915   0.856
    1POP     C4    4   4.598   2.967   0.763
    1POP     C5    5   4.613   3.106   0.747
    1POP     C6    6   4.534   3.197   0.822
    1POP     C7    7   4.555   3.344   0.805
    1POP     C8    8   4.447   3.437   0.797
    1POP     C9    9   4.476   3.575   0.786
    1POP    C10   10   4.609   3.622   0.777
    1POP    O11   11   4.628   3.759   0.763
    1POP    C12   12   4.762   3.805   0.730
    1POP    C13   13   4.715   3.528   0.781
    1POP    C14   14   4.688   3.391   0.795
    1POP    C15   15   4.304   3.396   0.787
    1POP    C16   16   4.206   3.456   0.868
    1POP    C17   17   4.070   3.424   0.852
    1POP    C18   18   4.029   3.331   0.752
    1POP    C19   19   4.128   3.272   0.671
    1POP    C20   20   4.264   3.304   0.688
    1POP    C21   21   3.882   3.296   0.726
    1POP    N22   22   3.850   3.164   0.783
    1POP    C23   23   3.781   3.398   0.782
    1POP    C24   24   4.441   3.145   0.914
    1POP    C25   25   4.426   3.006   0.932
    1POP    H26   26   4.659   2.900   0.703
    1POP    H27   27   4.685   3.143   0.675
    1POP    H28   28   4.396   3.647   0.776
    1POP    H29   29   4.759   3.913   0.716
    1POP    H30   30   4.795   3.758   0.637
    1POP    H31   31   4.830   3.782   0.812
    1POP    H32   32   4.819   3.559   0.774
    1POP    H33   33   4.771   3.322   0.801
    1POP    H34   34   4.235   3.528   0.945
    1POP    H35   35   3.997   3.472   0.917
    1POP    H36   36   4.099   3.202   0.593
    1POP    H37   37   4.339   3.260   0.622
    1POP    H38   38   3.868   3.295   0.617
    1POP    H39   39   3.834   3.158   0.883
    1POP    H40   40   3.681   3.370   0.748
    1POP    H41   41   3.806   3.497   0.743
    1POP    H42   42   3.784   3.397   0.891
    1POP    H43   43   4.380   3.213   0.974
    1POP    H44   44   4.354   2.968   1.003
    2POP    C45   45   3.839   3.048   0.710
    2POP    O46   46   3.864   3.049   0.590
    2POP    C47   47   3.799   2.920   0.775
    2POP    C48   48   3.800   2.905   0.916
    2POP    C49   49   3.760   2.784   0.976
    2POP    C50   50   3.714   2.677   0.896
    2POP    C51   51   3.682   2.546   0.956
    2POP    C52   52   3.551   2.510   0.998
    2POP    C53   53   3.528   2.377   1.044
    2POP    C54   54   3.631   2.281   1.046
    2POP    O55   55   3.598   2.153   1.090
    2POP    C56   56   3.703   2.053   1.090
    2POP    C57   57   3.761   2.319   1.005
    2POP    C58   58   3.786   2.450   0.961
    2POP    C59   59   3.434   2.603   0.995
    2POP    C60   60   3.312   2.560   0.937
    2POP    C61   61   3.196   2.639   0.947
    2POP    C62   62   3.199   2.763   1.015
    2POP    C63   63   3.321   2.807   1.070
    2POP    C64   64   3.438   2.728   1.061
    2POP    C65   65   3.072   2.848   1.037
    2POP    N66   66   3.088   2.979   0.971
    2POP    C67   67   2.942   2.784   0.984
    2POP    C68   68   3.716   2.689   0.755
    2POP    C69   69   3.759   2.809   0.695
    2POP    H70   70   3.833   2.986   0.981
    2POP    H71   71   3.765   2.772   1.084
    2POP    H72   72   3.430   2.349   1.078
    2POP    H73   73   3.659   1.958   1.124
    2POP    H74   74   3.782   2.083   1.159
    2POP    H75   75   3.742   2.040   0.989
    2POP    H76   76   3.845   2.250   1.005
    2POP    H77   77   3.886   2.478   0.927
    2POP    H78   78   3.307   2.464   0.887
    2POP    H79   79   3.104   2.600   0.903
    2POP    H80   80   3.325   2.902   1.124
    2POP    H81   81   3.528   2.761   1.111
    2POP    H82   82   3.060   2.861   1.145
    2POP    H83   83   3.125   2.981   0.877
    2POP    H84   84   2.858   2.851   1.005
    2POP    H85   85   2.925   2.689   1.034
    2POP    H86   86   2.949   2.770   0.876
    2POP    H87   87   3.686   2.605   0.693
    2POP    H88   88   3.761   2.817   0.587
    3POP    C89   89   3.027   3.095   1.016
    3POP    O90   90   2.967   3.094   1.123
    3POP    C91   91   3.035   3.221   0.937
    3POP    C92   92   3.140   3.245   0.844
    3POP    C93   93   3.146   3.367   0.773
    3POP    C94   94   3.047   3.466   0.792
    3POP    C95   95   3.057   3.598   0.723
    3POP    C96   96   2.947   3.659   0.656
    3POP    C97   97   2.962   3.789   0.604
    3POP    C98   98   3.082   3.861   0.616
    3POP    O99   99   3.086   3.988   0.562
    3POP   C100  100   3.206   4.067   0.584
    3POP   C101  101   3.192   3.799   0.681
    3POP   C102  102   3.179   3.668   0.733
    3POP   C103  103   2.816   3.589   0.634
    3POP   C104  104   2.694   3.658   0.654
    3POP   C105  105   2.571   3.594   0.629
    3POP   C106  106   2.568   3.461   0.581
    3POP   C107  107   2.690   3.392   0.562
    3POP   C108  108   2.813   3.456   0.587
    3POP   C109  109   2.437   3.389   0.551
    3POP   N110  110   2.387   3.330   0.677
    3POP   C111  111   2.329   3.482   0.492
    3POP   C112  112   2.942   3.442   0.884
    3POP   C113  113   2.936   3.321   0.955
    3POP   H114  114   3.217   3.171   0.829
    3POP   H115  115   3.228   3.384   0.704
    3POP   H116  116   2.879   3.837   0.552
    3POP   H117  117   3.191   4.166   0.539
    3POP   H118  118   3.291   4.019   0.537
    3POP   H119  119   3.222   4.080   0.692
    3POP   H120  120   3.287   3.849   0.692
    3POP   H121  121   3.264   3.623   0.783
    3POP   H122  122   2.694   3.760   0.691
    3POP   H123  123   2.480   3.649   0.647
    3POP   H124  124   2.689   3.289   0.527
    3POP   H125  125   2.906   3.402   0.569
    3POP   H126  126   2.457   3.311   0.477
    3POP   H127  127   2.382   3.388   0.759
    3POP   H128  128   2.245   3.421   0.459
    3POP   H129  129   2.372   3.535   0.406
    3POP   H130  130   2.295   3.554   0.567
    3POP   H131  131   2.866   3.518   0.900
    3POP   H132  132   2.855   3.304   1.025
    4POP   C133  133   2.331   3.204   0.687
    4POP   O134  134   2.330   3.130   0.589
    4POP   C135  135   2.291   3.150   0.818
    4POP   C136  136   2.384   3.140   0.923
    4POP   C137  137   2.348   3.078   1.044
    4POP   C138  138   2.217   3.026   1.062
    4POP   C139  139   2.184   2.947   1.183
    4POP   C140  140   2.060   2.959   1.253
    4POP   C141  141   2.032   2.869   1.360
    4POP   C142  142   2.124   2.771   1.399
    4POP   O143  143   2.088   2.689   1.506
    4POP   C144  144   2.184   2.590   1.550
    4POP   C145  145   2.248   2.761   1.331
    4POP   C146  146   2.277   2.848   1.224
    4POP   C147  147   1.961   3.068   1.227
    4POP   C148  148   1.822   3.039   1.227
    4POP   C149  149   1.728   3.143   1.213
    4POP   C150  150   1.771   3.277   1.197
    4POP   C151  151   1.909   3.305   1.195
    4POP   C152  152   2.003   3.202   1.211
    4POP   C153  153   1.671   3.392   1.194
    4POP   N154  154   1.547   3.361   1.121
    4POP   C155  155   1.636   3.430   1.339
    4POP   C156  156   2.123   3.040   0.957
    4POP   C157  157   2.159   3.102   0.836
    4POP   H158  158   2.486   3.174   0.909
    4POP   H159  159   2.422   3.067   1.123
    4POP   H160  160   1.940   2.878   1.416
    4POP   H161  161   2.140   2.536   1.635
    4POP   H162  162   2.276   2.638   1.582
    4POP   H163  163   2.203   2.518   1.469
    4POP   H164  164   2.322   2.686   1.357
    4POP   H165  165   2.370   2.835   1.170
    4POP   H166  166   1.787   2.937   1.240
    4POP   H167  167   1.622   3.118   1.217
    4POP   H168  168   1.944   3.408   1.186
    4POP   H169  169   2.109   3.227   1.213
    4POP   H170  170   1.720   3.478   1.146
    4POP   H171  171   1.511   3.266   1.122
    4POP   H172  172   1.570   3.517   1.340
    4POP   H173  173   1.728   3.454   1.394
    4POP   H174  174   1.586   3.345   1.387
    4POP   H175  175   2.023   3.000   0.968
    4POP   H176  176   2.088   3.108   0.754
    5CAP   C177  177   4.551   2.543   0.815
    5CAP   O178  178   4.574   2.685   0.799
    5CAP   H179  179   4.567   2.513   0.919
    5CAP   H180  180   4.622   2.489   0.751
    5CAP   H181  181   4.449   2.518   0.784
    6CAP   C182  182   1.087   3.423   1.078
    6CAP   C183  183   1.216   3.509   1.066
    6CAP   C184  184   1.211   3.580   0.928
    6CAP   C185  185   1.213   3.612   1.183
    6CAP   O186  186   1.325   3.411   1.074
    6CAP   C187  187   1.452   3.456   1.091
    6CAP   O188  188   1.492   3.571   1.076
    6CAP   H189  189   0.999   3.488   1.074
    6CAP   H190  190   1.083   3.352   0.996
    6CAP   H191  191   1.089   3.370   1.173
    6CAP   H192  192   1.211   3.505   0.849
    6CAP   H193  193   1.298   3.645   0.917
    6CAP   H194  194   1.120   3.640   0.921
    6CAP   H195  195   1.227   3.559   1.277
    6CAP   H196  196   1.291   3.687   1.169
    6CAP   H197  197   1.116   3.663   1.183
    7TCM     c1  198   4.179   0.477   2.664
    7TCM    cl1  199   4.308   0.517   2.546
    7TCM    cl2  200   4.056   0.607   2.666
    7TCM     h1  201   4.132   0.382   2.636
    7TCM    cl3  202   4.252   0.461   2.827
    8TCM     c1  203   1.664   2.301   4.531
    8TCM    cl1  204   1.536   2.193   4.468
    8TCM    cl2  205   1.612   2.472   4.513
    8TCM     h1  206   1.683   2.279   4.637
    8TCM    cl3  207   1.815   2.276   4.437
    9TCM     c1  208   1.312   1.811   0.921
    9TCM    cl1  209   1.177   1.703   0.872
    9TCM    cl2  210   1.385   1.885   0.774
    9TCM     h1  211   1.273   1.890   0.986
    9TCM    cl3  212   1.437   1.717   1.009
   10TCM     c1  213   2.788   0.473   3.666
   10TCM    cl1  214   2.779   0.381   3.512
   10TCM    cl2  215   2.902   0.391   3.777
   10TCM     h1  216   2.823   0.574   3.646
   10TCM    cl3  217   2.625   0.480   3.741
   11TCM     c1  218   2.074   1.435   2.800
   11TCM    cl1  219   2.077   1.582   2.697
   11TCM    cl2  220   1.982   1.470   2.951
   11TCM     h1  221   2.026   1.353   2.746
   11TCM    cl3  222   2.242   1.388   2.842
   12TCM     c1  223   4.863   1.230   0.143
   12TCM    cl1  224   5.031   1.172   0.170
   12TCM    cl2  225   4.781   1.249   0.301
   12TCM     h1  226   4.865   1.326   0.092
   12TCM    cl3  227   4.774   1.110   0.043
   13TCM     c1  228   2.689   0.668   2.444
   13TCM    cl1  229   2.527   0.696   2.516
   13TCM    cl2  230   2.683   0.529   2.331
   13TCM     h1  231   2.721   0.758   2.389
   13TCM    cl3  232   2.807   0.634   2.575
   14TCM     c1  233   3.425   3.883   4.622
   14TCM    cl1  234   3.320   3.844   4.482
   14TCM    cl2  235   3.376   4.041   4.692
   14TCM     h1  236   3.415   3.805   4.698
   14TCM    cl3  237   3.596   3.892   4.568
   15TCM     c1  238   0.416   3.951   3.481
   15TCM    cl1  239   0.305   3.812   3.501
   15TCM    cl2  240   0.577   3.891   3.428
   15TCM     h1  241   0.376   4.020   3.407
   15TCM    cl3  242   0.433   4.035   3.639
   16TCM     c1  243   3.774   1.136   2.733
   16TCM    cl1  244   3.876   1.202   2.865
   16TCM    cl2  245   3.879   1.073   2.602
   16TCM     h1  246   3.711   1.056   2.772
   16TCM    cl3  247   3.671   1.268   2.667
   17TCM     c1  248   4.788   2.792   4.343
   17TCM    cl1  249   4.937   2.715   4.406
   17TCM    cl2  250   4.828   2.886   4.196
   17TCM     h1  251   4.715   2.714   4.319
   17TCM    cl3  252   4.720   2.902   4.468
   18TCM     c1  253   0.365   2.598   1.327
   18TCM    cl1  254   0.273   2.697   1.445
   18TCM    cl2  255   0.250   2.523   1.211
   18TCM     h1  256   0.435   2.661   1.273
   18TCM    cl3  257   0.454   2.469   1.414
   19TCM     c1  258   1.236   1.644   2.320
   19TCM    cl1  259   1.125   1.519   2.385
   19TCM    cl2  260   1.284   1.597   2.154
   19TCM     h1  261   1.186   1.741   2.318
   19TCM    cl3  262   1.382   1.653   2.424
   20TCM     c1  263   4.046   3.979   0.447
   20TCM    cl1  264   4.146   4.128   0.432
   20TCM    cl2  265   4.126   3.844   0.360
   20TCM     h1  266   4.035   3.953   0.552
   20TCM    cl3  267   3.884   4.010   0.375
   21TCM     c1  268   2.471   4.896   3.983
   21TCM    cl1  269   2.624   4.870   4.074
   21TCM    cl2  270   2.368   4.749   3.996
   21TCM     h1  271   2.418   4.982   4.025
   21TCM    cl3  272   2.508   4.928   3.811
   22TCM     c1  273   2.808   1.747   2.766
   22TCM    cl1  274   2.837   1.572   2.787
   22TCM    cl2  275   2.638   1.785   2.812
   22TCM     h1  276   2.876   1.804   2.831
   22TCM    cl3  277   2.837   1.792   2.595
   23TCM     c1  278   0.583   2.836   4.948
   23TCM    cl1  279   0.739   2.749   4.963
   23TCM    cl2  280   0.481   2.754   4.825
   23TCM     h1  281   0.531   2.836   5.044
   23TCM    cl3  282   0.614   3.005   4.896
   24TCM     c1  283   4.398   3.227   2.079
   24TCM    cl1  284   4.411   3.324   1.928
   24TCM    cl2  285   4.325   3.067   2.041
   24TCM     h1  286   4.497   3.212   2.121
   24TCM    cl3  287   4.294   3.313   2.197
   25TCM     c1  288   0.182   3.583   4.688
   25TCM    cl1  289   0.055   3.488   4.605
   25TCM    cl2  290   0.116   3.742   4.737
   25TCM     h1  291   0.216   3.528   4.777
   25TCM    cl3  292   0.321   3.607   4.577
   26TCM     c1  293   2.212   1.066   3.193
   26TCM    cl1  294   2.345   1.094   3.076
   26TCM    cl2  295   2.194   0.889   3.221
   26TCM     h1  296   2.236   1.115   3.288
   26TCM    cl3  297   2.058   1.132   3.128
   27TCM     c1  298   1.078   1.900   2.585
   27TCM    cl1  299   1.163   1.778   2.686
   27TCM    cl2  300   0.951   1.817   2.489
   27TCM     h1  301   1.033   1.976   2.649
   27TCM    cl3  302   1.195   1.977   2.473
   28TCM     c1  303   2.966   4.424   4.757
   28TCM    cl1  304   3.113   4.510   4.701
   28TCM    cl2  305   3.011   4.264   4.823
   28TCM     h1  306   2.916   4.483   4.834
   28TCM    cl3  307   2.855   4.400   4.618
   29TCM     c1  308   2.446   2.273   1.708
   29TCM    cl1  309   2.273   2.255   1.665
   29TCM    cl2  310   2.483   2.447   1.732
   29TCM     h1  311   2.467   2.218   1.801
   29TCM    cl3  312   2.548   2.208   1.575
   30TCM     c1  313   2.802   2.039   4.883
   30TCM    cl1  314   2.782   1.910   5.006
   30TCM    cl2  315   2.967   2.109   4.896
   30TCM     h1  316   2.788   1.996   4.783
   30TCM    cl3  317   2.680   2.166   4.912
   31TCM     c1  318   4.813   4.728   1.116
   31TCM    cl1  319   4.720   4.591   1.046
   31TCM    cl2  320   4.811   4.716   1.295
   31TCM     h1  321   4.916   4.723   1.081
   31TCM    cl3  322   4.739   4.883   1.065
   32TCM     c1  323   2.951   0.562   1.145
   32TCM    cl1  324   2.791   0.481   1.156
   32TCM    cl2  325   2.939   0.729   1.210
   32TCM     h1  326   3.024   0.506   1.203
   32TCM    cl3  327   3.003   0.569   0.973
   33TCM     c1  328   3.608   3.019   1.867
   33TCM    cl1  329   3.753   3.057   1.767
   33TCM    cl2  330   3.556   2.850   1.834
   33TCM     h1  331   3.633   3.029   1.973
   33TCM    cl3  332   3.476   3.132   1.825
   34TCM     c1  333   1.134   0.781   3.614
   34TCM    cl1  334   1.068   0.908   3.507
   34TCM    cl2  335   1.161   0.849   3.778
   34TCM     h1  336   1.064   0.698   3.620
   34TCM    cl3  337   1.290   0.723   3.547
   35TCM     c1  338   0.590   0.243   3.694
   35TCM    cl1  339   0.589   0.243   3.873
   35TCM    cl2  340   0.608   0.075   3.634
   35TCM     h1  341   0.496   0.285   3.657
   35TCM    cl3  342   0.727   0.343   3.635
   36TCM     c1  343   2.583   3.537   3.296
   36TCM    cl1  344   2.585   3.358   3.304
   36TCM    cl2  345   2.751   3.600   3.283
   36TCM     h1  346   2.525   3.569   3.209
   36TCM    cl3  347   2.509   3.602   3.446
   37TCM     c1  348   0.248   0.888   2.527
   37TCM    cl1  349   0.197   0.833   2.690
   37TCM    cl2  350   0.344   0.760   2.447
   37TCM     h1  351   0.159   0.911   2.467
   37TCM    cl3  352   0.348   1.036   2.545
   38TCM     c1  353   4.875   1.839   2.109
   38TCM    cl1  354   5.025   1.830   2.208
   38TCM    cl2  355   4.877   1.989   2.011
   38TCM     h1  356   4.870   1.752   2.043
   38TCM    cl3  357   4.732   1.840   2.217
   39TCM     c1  358   1.179   3.348   1.974
   39TCM    cl1  359   1.237   3.200   2.058
   39TCM    cl2  360   1.146   3.308   1.802
   39TCM     h1  361   1.087   3.383   2.022
   39TCM    cl3  362   1.304   3.476   1.983
   40TCM     c1  363   3.370   1.381   2.110
   40TCM    cl1  364   3.311   1.248   2.005
   40TCM    cl2  365   3.273   1.382   2.260
   40TCM     h1  366   3.475   1.366   2.133
   40TCM    cl3  367   3.349   1.538   2.026
   41TCM     c1  368   0.752   1.869   1.837
   41TCM    cl1  369   0.810   2.039   1.844
   41TCM    cl2  370   0.591   1.864   1.757
   41TCM     h1  371   0.823   1.809   1.778
   41TCM    cl3  372   0.740   1.802   2.003
   42TCM     c1  373   2.217   3.625   1.484
   42TCM    cl1  374   2.337   3.751   1.442
   42TCM    cl2  375   2.128   3.578   1.335
   42TCM     h1  376   2.268   3.538   1.526
   42TCM    cl3  377   2.100   3.691   1.603
   43TCM     c1  378   0.785   4.317   0.963
   43TCM    cl1  379   0.670   4.219   0.866
   43TCM    cl2  380   0.935   4.223   0.988
   43TCM     h1  381   0.808   4.410   0.910
   43TCM    cl3  382   0.712   4.356   1.123
   44TCM     c1  383   0.235   1.107   4.732
   44TCM    cl1  384   0.072   1.142   4.799
   44TCM    cl2  385   0.354   1.220   4.804
   44TCM     h1  386   0.263   1.004   4.755
   44TCM    cl3  387   0.233   1.130   4.554
   45TCM     c1  388   1.199   3.484   4.695
   45TCM    cl1  389   1.262   3.652   4.695
   45TCM    cl2  390   1.255   3.399   4.843
   45TCM     h1  391   1.090   3.485   4.693
   45TCM    cl3  392   1.260   3.397   4.551
   46TCM     c1  393   0.099   0.426   4.524
   46TCM    cl1  394   0.240   0.326   4.474
   46TCM    cl2  395  -0.042   0.318   4.552
   46TCM     h1  396   0.124   0.480   4.616
   46TCM    cl3  397   0.060   0.543   4.393
   47TCM     c1  398   1.049   4.089   2.000
   47TCM    cl1  399   0.903   4.066   2.101
   47TCM    cl2  400   1.034   4.241   1.905
   47TCM     h1  401   1.138   4.094   2.063
   47TCM    cl3  402   1.064   3.951   1.886
   48TCM     c1  403   3.512   3.936   0.040
   48TCM    cl1  404   3.658   3.936  -0.065
   48TCM    cl2  405   3.560   3.892   0.207
   48TCM     h1  406   3.466   4.036   0.039
   48TCM    cl3  407   3.396   3.815  -0.022
   49TCM     c1  408   1.315   1.463   1.385
   49TCM    cl1  409   1.158   1.450   1.471
   49TCM    cl2  410   1.391   1.619   1.426
   49TCM     h1  411   1.380   1.381   1.415
   49TCM    cl3  412   1.286   1.453   1.208
   50TCM     c1  413   3.172   0.526   2.278
   50TCM    cl1  414   3.021   0.584   2.200
   50TCM    cl2  415   3.151   0.356   2.330
   50TCM     h1  416   3.254   0.532   2.206
   50TCM    cl3  417   3.209   0.629   2.420
   51TCM     c1  418   0.038   0.423   1.804
   51TCM    cl1  419  -0.072   0.440   1.944
   51TCM    cl2  420   0.204   0.467   1.856
   51TCM     h1  421   0.036   0.320   1.767
   51TCM    cl3  422  -0.015   0.534   1.673
   52TCM     c1  423   3.772   2.500   1.320
   52TCM    cl1  424   3.813   2.388   1.454
   52TCM    cl2  425   3.921   2.582   1.265
   52TCM     h1  426   3.727   2.444   1.238
   52TCM    cl3  427   3.655   2.623   1.378
   53TCM     c1  428   3.954   4.879   0.599
   53TCM    cl1  429   3.944   4.748   0.477
   53TCM    cl2  430   3.869   5.024   0.537
   53TCM     h1  431   3.906   4.845   0.692
   53TCM    cl3  432   4.126   4.917   0.631
   54TCM     c1  433   4.819   1.613   3.296
   54TCM    cl1  434   4.683   1.685   3.204
   54TCM    cl2  435   4.847   1.445   3.239
   54TCM     h1  436   4.909   1.673   3.280
   54TCM    cl3  437   4.779   1.611   3.471
   55TCM     c1  438   1.958   3.410   2.233
   55TCM    cl1  439   1.916   3.240   2.193
   55TCM    cl2  440   2.004   3.498   2.084
   55TCM     h1  441   1.871   3.459   2.279
   55TCM    cl3  442   2.095   3.411   2.350
   56TCM     c1  443   0.266   4.907   4.640
   56TCM    cl1  444   0.113   4.939   4.728
   56TCM    cl2  445   0.338   4.754   4.699
   56TCM     h1  446   0.246   4.899   4.532
   56TCM    cl3  447   0.382   5.041   4.670
   57TCM     c1  448   4.461   0.420   4.417
   57TCM    cl1  449   4.486   0.596   4.442
   57TCM    cl2  450   4.304   0.371   4.489
   57TCM     h1  451   4.461   0.399   4.310
   57TCM    cl3  452   4.593   0.329   4.497
   58TCM     c1  453   3.544   4.194   1.433
   58TCM    cl1  454   3.628   4.346   1.475
   58TCM    cl2  455   3.545   4.174   1.255
   58TCM     h1  456   3.595   4.110   1.479
   58TCM    cl3  457   3.375   4.201   1.493
   59TCM     c1  458   4.531   4.342   4.727
   59TCM    cl1  459   4.467   4.244   4.863
   59TCM    cl2  460   4.688   4.275   4.674
   59TCM     h1  461   4.460   4.339   4.644
   59TCM    cl3  462   4.554   4.512   4.780
   60TCM     c1  463   3.761   3.896   1.640
   60TCM    cl1  464   3.590   3.856   1.604
   60TCM    cl2  465   3.828   3.775   1.755
   60TCM     h1  466   3.819   3.895   1.548
   60TCM    cl3  467   3.768   4.058   1.715
   61TCM     c1  468   3.579   3.858   3.282
   61TCM    cl1  469   3.585   3.790   3.449
   61TCM    cl2  470   3.733   3.943   3.248
   61TCM     h1  471   3.564   3.777   3.210
   61TCM    cl3  472   3.442   3.974   3.270
   62TCM     c1  473   0.386   0.781   3.023
   62TCM    cl1  474   0.420   0.950   2.973
   62TCM    cl2  475   0.288   0.783   3.173
   62TCM     h1  476   0.332   0.729   2.944
   62TCM    cl3  477   0.541   0.696   3.056
   63TCM     c1  478   3.042   2.225   2.664
   63TCM    cl1  479   2.963   2.103   2.769
   63TCM    cl2  480   3.029   2.387   2.740
   63TCM     h1  481   3.148   2.199   2.651
   63TCM    cl3  482   2.961   2.228   2.503
   64TCM     c1  483   3.600   2.014   2.242
   64TCM    cl1  484   3.470   1.972   2.125
   64TCM    cl2  485   3.534   2.009   2.408
   64TCM     h1  486   3.681   1.942   2.233
   64TCM    cl3  487   3.661   2.179   2.206
   65TCM     c1  488   4.991   0.476   2.369
   65TCM    cl1  489   5.027   0.558   2.525
   65TCM    cl2  490   5.133   0.493   2.260
   65TCM     h1  491   4.970   0.370   2.387
   65TCM    cl3  492   4.850   0.554   2.291
   66TCM     c1  493   0.160   0.207   2.923
   66TCM    cl1  494   0.101   0.039   2.946
   66TCM    cl2  495   0.085   0.279   2.777
   66TCM     h1  496   0.134   0.267   3.011
   66TCM    cl3  497   0.339   0.204   2.904
   67TCM     c1  498   4.843   3.464   1.132
   67TCM    cl1  499   4.848   3.634   1.076
   67TCM    cl2  500   4.896   3.458   1.303
   67TCM     h1  501   4.741   3.425   1.123
   67TCM    cl3  502   4.954   3.364   1.032
   68TCM     c1  503   1.270   3.268   0.673
   68TCM    cl1  504   1.120   3.295   0.579
   68TCM    cl2  505   1.390   3.181   0.571
   68TCM     h1  506   1.312   3.364   0.704
   68TCM    cl3  507   1.232   3.170   0.818
   69TCM     c1  508   2.874   4.235   3.884
   69TCM    cl1  509   2.749   4.331   3.969
   69TCM    cl2  510   2.851   4.253   3.707
   69TCM     h1  511   2.973   4.272   3.912
   69TCM    cl3  512   2.861   4.062   3.930
   70TCM     c1  513   4.609   1.533   0.504
   70TCM    cl1  514   4.512   1.409   0.590
   70TCM    cl2  515   4.571   1.694   0.571
   70TCM     h1  516   4.715   1.511   0.516
   70TCM    cl3  517   4.565   1.530   0.330
   71TCM     c1  518   2.965   4.521   4.281
   71TCM    cl1  519   2.987   4.348   4.239
   71TCM    cl2  520   2.889   4.604   4.141
   71TCM     h1  521   2.900   4.529   4.369
   71TCM    cl3  522   3.124   4.595   4.315
   72TCM     c1  523   3.569   3.765   2.029
   72TCM    cl1  524   3.503   3.660   1.900
   72TCM    cl2  525   3.488   3.726   2.184
   72TCM     h1  526   3.677   3.749   2.038
   72TCM    cl3  527   3.537   3.937   1.987
   73TCM     c1  528   0.974   0.167   3.298
   73TCM    cl1  529   0.951   0.092   3.460
   73TCM    cl2  530   0.832   0.269   3.260
   73TCM     h1  531   1.064   0.229   3.299
   73TCM    cl3  532   0.992   0.037   3.175
   74TCM     c1  533   0.724   1.391   2.474
   74TCM    cl1  534   0.774   1.497   2.339
   74TCM    cl2  535   0.644   1.491   2.599
   74TCM     h1  536   0.654   1.315   2.438
   74TCM    cl3  537   0.868   1.311   2.545
   75TCM     c1  538   1.050   0.504   2.137
   75TCM    cl1  539   0.942   0.361   2.141
   75TCM    cl2  540   1.010   0.606   1.995
   75TCM     h1  541   1.036   0.562   2.228
   75TCM    cl3  542   1.221   0.450   2.124
   76TCM     c1  543   2.853   0.896   3.849
   76TCM    cl1  544   2.729   0.997   3.930
   76TCM    cl2  545   2.812   0.879   3.675
   76TCM     h1  546   2.951   0.943   3.859
   76TCM    cl3  547   2.855   0.734   3.926
   77TCM     c1  548   4.500   4.769   0.708
   77TCM    cl1  549   4.613   4.909   0.718
   77TCM    cl2  550   4.413   4.752   0.864
   77TCM     h1  551   4.429   4.786   0.627
   77TCM    cl3  552   4.594   4.619   0.677
   78TCM     c1  553   0.455   4.107   0.254
   78TCM    cl1  554   0.287   4.146   0.303
   78TCM    cl2  555   0.487   4.175   0.091
   78TCM     h1  556   0.525   4.150   0.326
   78TCM    cl3  557   0.476   3.929   0.247
   79TCM     c1  558   2.291   3.198   1.924
   79TCM    cl1  559   2.266   3.361   1.853
   79TCM    cl2  560   2.269   3.205   2.102
   79TCM     h1  561   2.219   3.128   1.881
   79TCM    cl3  562   2.458   3.143   1.888
   80TCM     c1  563   0.272   2.773   0.899
   80TCM    cl1  564   0.302   2.879   0.757
   80TCM    cl2  565   0.138   2.841   0.996
   80TCM     h1  566   0.245   2.673   0.865
   80TCM    cl3  567   0.420   2.764   1.000
   81TCM     c1  568   3.388   3.553   1.067
   81TCM    cl1  569   3.212   3.537   1.091
   81TCM    cl2  570   3.424   3.723   1.022
   81TCM     h1  571   3.441   3.528   1.160
   81TCM    cl3  572   3.444   3.443   0.937
   82TCM     c1  573   3.060   2.963   4.926
   82TCM    cl1  574   3.157   2.812   4.924
   82TCM    cl2  575   2.998   2.991   5.092
   82TCM     h1  576   3.123   3.047   4.896
   82TCM    cl3  577   2.922   2.949   4.813
   83TCM     c1  578   0.951   1.116   1.853
   83TCM    cl1  579   1.031   1.166   1.700
   83TCM    cl2  580   1.022   0.962   1.912
   83TCM     h1  581   0.965   1.194   1.928
   83TCM    cl3  582   0.776   1.093   1.823
   84TCM     c1  583   1.768   2.529   4.890
   84TCM    cl1  584   1.705   2.689   4.839
   84TCM    cl2  585   1.896   2.478   4.776
   84TCM     h1  586   1.808   2.535   4.992
   84TCM    cl3  587   1.633   2.411   4.885
   85TCM     c1  588   2.189   3.923   3.866
   85TCM    cl1  589   2.267   3.878   3.711
   85TCM    cl2  590   2.268   3.834   4.000
   85TCM     h1  591   2.199   4.030   3.883
   85TCM    cl3  592   2.015   3.878   3.863
   86TCM     c1  593   0.591   0.059   4.979
   86TCM    cl1  594   0.746   0.071   4.889
   86TCM    cl2  595   0.615   0.115   5.148
   86TCM     h1  596   0.516   0.121   4.930
   86TCM    cl3  597   0.535  -0.112   4.981
   87TCM     c1  598   0.837   0.409   2.845
   87TCM    cl1  599   0.885   0.579   2.879
   87TCM    cl2  600   0.677   0.376   2.920
   87TCM     h1  601   0.832   0.393   2.737
   87TCM    cl3  602   0.959   0.298   2.917
   88TCM     c1  603   4.486   2.956   3.088
   88TCM    cl1  604   4.455   2.791   3.024
   88TCM    cl2  605   4.648   3.012   3.036
   88TCM     h1  606   4.410   3.025   3.050
   88TCM    cl3  607   4.478   2.951   3.267
   89TCM     c1  608   3.070   4.454   0.208
   89TCM    cl1  609   3.019   4.540   0.357
   89TCM    cl2  610   3.050   4.563   0.067
   89TCM     h1  611   3.174   4.423   0.217
   89TCM    cl3  612   2.966   4.309   0.185
   90TCM     c1  613   1.825   0.010   3.584
   90TCM    cl1  614   1.717   0.113   3.485
   90TCM    cl2  615   1.730  -0.065   3.717
   90TCM     h1  616   1.870  -0.069   3.521
   90TCM    cl3  617   1.956   0.112   3.653
   91TCM     c1  618   0.746   0.716   3.900
   91TCM    cl1  619   0.764   0.551   3.969
   91TCM    cl2  620   0.578   0.773   3.925
   91TCM     h1  621   0.816   0.784   3.951
   91TCM    cl3  622   0.784   0.710   3.725
   92TCM     c1  623   2.009   0.102   2.367
   92TCM    cl1  624   1.860   0.185   2.311
   92TCM    cl2  625   2.066  -0.011   2.239
   92TCM     h1  626   2.086   0.176   2.388
   92TCM    cl3  627   1.971   0.008   2.515
   93TCM     c1  628   1.033   1.179   2.257
   93TCM    cl1  629   1.070   1.010   2.304
   93TCM    cl2  630   0.866   1.186   2.191
   93TCM     h1  631   1.042   1.244   2.344
   93TCM    cl3  632   1.149   1.234   2.131
   94TCM     c1  633   1.212   1.576   4.972
   94TCM    cl1  634   1.232   1.753   4.999
   94TCM    cl2  635   1.311   1.487   5.094
   94TCM     h1  636   1.107   1.549   4.984
   94TCM    cl3  637   1.268   1.534   4.807
   95TCM     c1  638   4.165   2.977   2.359
   95TCM    cl1  639   4.265   3.078   2.469
   95TCM    cl2  640   4.019   2.920   2.447
   95TCM     h1  641   4.135   3.036   2.272
   95TCM    cl3  642   4.260   2.835   2.305
   96TCM     c1  643   2.949   4.662   1.177
   96TCM    cl1  644   2.830   4.725   1.059
   96TCM    cl2  645   2.927   4.485   1.197
   96TCM     h1  646   3.051   4.682   1.141
   96TCM    cl3  647   2.923   4.742   1.335
   97TCM     c1  648   4.284   2.350   2.755
   97TCM    cl1  649   4.330   2.421   2.914
   97TCM    cl2  650   4.106   2.342   2.742
   97TCM     h1  651   4.325   2.411   2.675
   97TCM    cl3  652   4.351   2.183   2.743
   98TCM     c1  653   4.059   0.506   3.676
   98TCM    cl1  654   4.187   0.435   3.780
   98TCM    cl2  655   4.100   0.476   3.504
   98TCM     h1  656   3.963   0.461   3.700
   98TCM    cl3  657   4.051   0.683   3.704
   99TCM     c1  658   4.067   0.907   3.215
   99TCM    cl1  659   3.913   0.985   3.165
   99TCM    cl2  660   4.031   0.779   3.335
   99TCM     h1  661   4.115   0.862   3.128
   99TCM    cl3  662   4.176   1.028   3.289
  100TCM     c1  663   2.058   0.103   3.093
  100TCM    cl1  664   1.963   0.085   2.942
  100TCM    cl2  665   2.207   0.005   3.082
  100TCM     h1  666   2.084   0.208   3.108
  100TCM    cl3  667   1.959   0.046   3.232
  101TCM     c1  668   0.104   4.250   3.522
  101TCM    cl1  669   0.166   4.323   3.673
  101TCM    cl2  670   0.063   4.078   3.553
  101TCM     h1  671   0.014   4.303   3.489
  101TCM    cl3  672   0.229   4.258   3.395
  102TCM     c1  673   0.077   1.585   4.806
  102TCM    cl1  674   0.124   1.496   4.954
  102TCM    cl2  675   0.111   1.483   4.663
  102TCM     h1  676  -0.029   1.610   4.810
  102TCM    cl3  677   0.173   1.736   4.794
  103TCM     c1  678   0.880   4.767   0.189
  103TCM    cl1  679   0.946   4.933   0.176
  103TCM    cl2  680   0.842   4.706   0.025
  103TCM     h1  681   0.954   4.702   0.236
  103TCM    cl3  682   0.730   4.768   0.288
  104TCM     c1  683   0.556   2.272   1.019
  104TCM    cl1  684   0.441   2.217   1.144
  104TCM    cl2  685   0.692   2.156   1.009
  104TCM     h1  686   0.506   2.278   0.922
  104TCM    cl3  687   0.618   2.435   1.064
  105TCM     c1  688   4.740   1.462   2.338
  105TCM    cl1  689   4.830   1.570   2.450
  105TCM    cl2  690   4.754   1.292   2.395
  105TCM     h1  691   4.635   1.491   2.336
  105TCM    cl3  692   4.811   1.476   2.174
  106TCM     c1  693   2.902   1.060   2.436
  106TCM    cl1  694   2.723   1.056   2.420
  106TCM    cl2  695   2.968   1.189   2.329
  106TCM     h1  696   2.930   1.080   2.540
  106TCM    cl3  697   2.969   0.902   2.385
  107TCM     c1  698   2.938   0.290   2.701
  107TCM    cl1  699   2.815   0.348   2.818
  107TCM    cl2  700   3.076   0.405   2.698
  107TCM     h1  701   2.974   0.191   2.731
  107TCM    cl3  702   2.864   0.279   2.538
  108TCM     c1  703   2.148   4.550   0.948
  108TCM    cl1  704   2.214   4.692   1.034
  108TCM    cl2  705   2.282   4.454   0.879
  108TCM     h1  706   2.091   4.488   1.018
  108TCM    cl3  707   2.039   4.606   0.817
  109TCM     c1  708   0.041   3.023   3.898
  109TCM    cl1  709   0.112   3.178   3.953
  109TCM    cl2  710   0.154   2.943   3.784
  109TCM     h1  711   0.024   2.958   3.984
  109TCM    cl3  712  -0.115   3.056   3.816
  110TCM     c1  713   2.371   4.837   1.880
  110TCM    cl1  714   2.347   4.970   1.998
  110TCM    cl2  715   2.225   4.733   1.876
  110TCM     h1  716   2.388   4.879   1.780
  110TCM    cl3  717   2.513   4.739   1.929
  111TCM     c1  718   2.516   4.602   3.584
  111TCM    cl1  719   2.350   4.635   3.644
  111TCM    cl2  720   2.620   4.561   3.723
  111TCM     h1  721   2.513   4.518   3.513
  111TCM    cl3  722   2.579   4.748   3.502
  112TCM     c1  723   3.405   3.490   4.813
  112TCM    cl1  724   3.268   3.550   4.715
  112TCM    cl2  725   3.559   3.553   4.745
  112TCM     h1  726   3.395   3.524   4.916
  112TCM    cl3  727   3.408   3.310   4.810
  113TCM     c1  728   1.624   4.863   4.558
  113TCM    cl1  729   1.517   4.761   4.661
  113TCM    cl2  730   1.524   4.944   4.433
  113TCM     h1  731   1.673   4.938   4.620
  113TCM    cl3  732   1.747   4.760   4.478
  114TCM     c1  733   3.184   3.354   1.840
  114TCM    cl1  734   3.008   3.347   1.808
  114TCM    cl2  735   3.212   3.419   2.005
  114TCM     h1  736   3.227   3.254   1.832
  114TCM    cl3  737   3.263   3.462   1.720
  115TCM     c1  738   4.880   2.382   2.012
  115TCM    cl1  739   4.923   2.522   2.115
  115TCM    cl2  740   5.011   2.349   1.894
  115TCM     h1  741   4.865   2.294   2.075
  115TCM    cl3  742   4.728   2.418   1.924
  116TCM     c1  743   1.829   0.602   3.519
  116TCM    cl1  744   1.850   0.710   3.378
  116TCM    cl2  745   1.952   0.471   3.514
  116TCM     h1  746   1.841   0.660   3.611
  116TCM    cl3  747   1.665   0.530   3.516
  117TCM     c1  748   1.568   4.512   3.468
  117TCM    cl1  749   1.430   4.454   3.567
  117TCM    cl2  750   1.508   4.565   3.307
  117TCM     h1  751   1.616   4.596   3.519
  117TCM    cl3  752   1.686   4.378   3.446
  118TCM     c1  753   1.138   3.107   3.298
  118TCM    cl1  754   1.230   3.021   3.425
  118TCM    cl2  755   1.142   3.011   3.146
  118TCM     h1  756   1.035   3.120   3.330
  118TCM    cl3  757   1.212   3.268   3.269
  119TCM     c1  758   4.552   2.240   2.325
  119TCM    cl1  759   4.477   2.342   2.198
  119TCM    cl2  760   4.558   2.330   2.480
  119TCM     h1  761   4.493   2.149   2.338
  119TCM    cl3  762   4.718   2.198   2.274
  120TCM     c1  763   2.393   1.262   1.984
  120TCM    cl1  764   2.438   1.176   2.135
  120TCM    cl2  765   2.289   1.403   2.024
  120TCM     h1  766   2.484   1.297   1.933
  120TCM    cl3  767   2.302   1.151   1.876
  121TCM     c1  768   1.381   0.021   3.561
  121TCM    cl1  769   1.248   0.004   3.681
  121TCM    cl2  770   1.319   0.107   3.416
  121TCM     h1  771   1.463   0.077   3.606
  121TCM    cl3  772   1.438  -0.142   3.512
  122TCM     c1  773   4.160   3.598   2.518
  122TCM    cl1  774   4.324   3.590   2.590
  122TCM    cl2  775   4.085   3.434   2.522
  122TCM     h1  776   4.098   3.667   2.575
  122TCM    cl3  777   4.172   3.653   2.348
  123TCM     c1  778   3.968   1.043   3.951
  123TCM    cl1  779   4.122   0.987   3.877
  123TCM    cl2  780   3.982   1.032   4.129
  123TCM     h1  781   3.949   1.146   3.921
  123TCM    cl3  782   3.833   0.938   3.895
  124TCM     c1  783   3.687   1.610   2.504
  124TCM    cl1  784   3.589   1.703   2.622
  124TCM    cl2  785   3.773   1.723   2.395
  124TCM     h1  786   3.759   1.547   2.557
  124TCM    cl3  787   3.576   1.506   2.408
  125TCM     c1  788   4.657   4.095   3.391
  125TCM    cl1  789   4.733   3.948   3.460
  125TCM    cl2  790   4.563   4.051   3.245
  125TCM     h1  791   4.591   4.140   3.465
  125TCM    cl3  792   4.784   4.213   3.346
  126TCM     c1  793   0.302   1.794   0.487
  126TCM    cl1  794   0.308   1.741   0.658
  126TCM    cl2  795   0.175   1.920   0.469
  126TCM     h1  796   0.399   1.836   0.458
  126TCM    cl3  797   0.262   1.655   0.382
  127TCM     c1  798   3.379   1.598   3.431
  127TCM    cl1  799   3.223   1.654   3.500
  127TCM    cl2  800   3.365   1.581   3.253
  127TCM     h1  801   3.458   1.671   3.455
  127TCM    cl3  802   3.421   1.438   3.501
  128TCM     c1  803   1.337   2.330   2.661
  128TCM    cl1  804   1.273   2.343   2.494
  128TCM    cl2  805   1.232   2.219   2.755
  128TCM     h1  806   1.439   2.290   2.658
  128TCM    cl3  807   1.336   2.492   2.738
  129TCM     c1  808   0.246   2.731   0.217
  129TCM    cl1  809   0.232   2.844   0.079
  129TCM    cl2  810   0.412   2.737   0.283
  129TCM     h1  811   0.174   2.759   0.295
  129TCM    cl3  812   0.210   2.564   0.161
  130TCM     c1  813   0.531   4.516   4.908
  130TCM    cl1  814   0.521   4.531   5.087
  130TCM    cl2  815   0.387   4.428   4.846
  130TCM     h1  816   0.536   4.615   4.863
  130TCM    cl3  817   0.678   4.422   4.865
  131TCM     c1  818   4.761   4.327   0.183
  131TCM    cl1  819   4.785   4.357   0.008
  131TCM    cl2  820   4.889   4.216   0.241
  131TCM     h1  821   4.767   4.422   0.238
  131TCM    cl3  822   4.600   4.253   0.210
  132TCM     c1  823   0.623   1.383   0.406
  132TCM    cl1  824   0.699   1.249   0.498
  132TCM    cl2  825   0.745   1.460   0.301
  132TCM     h1  826   0.541   1.343   0.345
  132TCM    cl3  827   0.559   1.504   0.521
  133TCM     c1  828   2.282   0.178   3.528
  133TCM    cl1  829   2.228   0.250   3.373
  133TCM    cl2  830   2.452   0.223   3.559
  133TCM     h1  831   2.219   0.216   3.609
  133TCM    cl3  832   2.267  -0.001   3.520
  134TCM     c1  833   0.471   1.296   3.056
  134TCM    cl1  834   0.414   1.408   3.184
  134TCM    cl2  835   0.633   1.233   3.099
  134TCM     h1  836   0.400   1.213   3.047
  134TCM    cl3  837   0.480   1.385   2.901
  135TCM     c1  838   0.117   4.070   4.974
  135TCM    cl1  839   0.239   4.089   4.844
  135TCM    cl2  840   0.151   3.918   5.065
  135TCM     h1  841   0.122   4.155   5.042
  135TCM    cl3  842  -0.046   4.060   4.900
  136TCM     c1  843   3.947   1.238   2.205
  136TCM    cl1  844   4.021   1.336   2.074
  136TCM    cl2  845   3.885   1.348   2.333
  136TCM     h1  846   3.866   1.178   2.165
  136TCM    cl3  847   4.072   1.131   2.277
  137TCM     c1  848   1.327   0.637   1.816
  137TCM    cl1  849   1.332   0.471   1.750
  137TCM    cl2  850   1.233   0.742   1.704
  137TCM     h1  851   1.279   0.636   1.914
  137TCM    cl3  852   1.494   0.701   1.831
  138TCM     c1  853   2.189   1.561   3.232
  138TCM    cl1  854   2.271   1.649   3.099
  138TCM    cl2  855   2.195   1.661   3.380
  138TCM     h1  856   2.084   1.541   3.205
  138TCM    cl3  857   2.273   1.406   3.263
  139TCM     c1  858   2.535   3.610   3.796
  139TCM    cl1  859   2.596   3.711   3.931
  139TCM    cl2  860   2.375   3.540   3.838
  139TCM     h1  861   2.524   3.672   3.707
  139TCM    cl3  862   2.651   3.477   3.764
  140TCM     c1  863   0.588   1.339   3.580
  140TCM    cl1  864   0.687   1.369   3.433
  140TCM    cl2  865   0.426   1.412   3.559
  140TCM     h1  866   0.579   1.231   3.596
  140TCM    cl3  867   0.669   1.414   3.721
  141TCM     c1  868   0.758   4.265   1.672
  141TCM    cl1  869   0.688   4.246   1.507
  141TCM    cl2  870   0.667   4.164   1.788
  141TCM     h1  871   0.863   4.234   1.670
  141TCM    cl3  872   0.749   4.438   1.721
  142TCM     c1  873   3.478   4.063   2.430
  142TCM    cl1  874   3.633   4.041   2.342
  142TCM    cl2  875   3.438   3.912   2.517
  142TCM     h1  876   3.488   4.146   2.501
  142TCM    cl3  877   3.348   4.101   2.312
  143TCM     c1  878   0.552   2.480   3.317
  143TCM    cl1  879   0.556   2.523   3.142
  143TCM    cl2  880   0.534   2.303   3.335
  143TCM     h1  881   0.644   2.513   3.364
  143TCM    cl3  882   0.412   2.562   3.394
  144TCM     c1  883   1.699   3.796   1.224
  144TCM    cl1  884   1.837   3.727   1.131
  144TCM    cl2  885   1.686   3.972   1.190
  144TCM     h1  886   1.606   3.746   1.194
  144TCM    cl3  887   1.727   3.772   1.400
  145TCM     c1  888   1.395   1.329   2.601
  145TCM    cl1  889   1.261   1.400   2.697
  145TCM    cl2  890   1.327   1.229   2.468
  145TCM     h1  891   1.457   1.409   2.559
  145TCM    cl3  892   1.495   1.225   2.708
  146TCM     c1  893   3.937   4.976   3.908
  146TCM    cl1  894   4.025   4.849   3.818
  146TCM    cl2  895   3.915   4.924   4.078
  146TCM     h1  896   3.993   5.069   3.905
  146TCM    cl3  897   3.775   5.001   3.833
  147TCM     c1  898   4.966   4.530   4.629
  147TCM    cl1  899   5.118   4.528   4.533
  147TCM    cl2  900   4.858   4.658   4.565
  147TCM     h1  901   4.916   4.433   4.622
  147TCM    cl3  902   5.005   4.564   4.800
  148TCM     c1  903   0.877   1.505   0.805
  148TCM    cl1  904   0.717   1.568   0.857
  148TCM    cl2  905   0.907   1.553   0.635
  148TCM     h1  906   0.955   1.547   0.869
  148TCM    cl3  907   0.879   1.326   0.818
  149TCM     c1  908   2.359   2.606   0.117
  149TCM    cl1  909   2.245   2.713   0.029
  149TCM    cl2  910   2.309   2.436   0.094
  149TCM     h1  911   2.460   2.621   0.077
  149TCM    cl3  912   2.358   2.646   0.292
  150TCM     c1  913   3.531   1.253   3.183
  150TCM    cl1  914   3.471   1.309   3.023
  150TCM    cl2  915   3.696   1.316   3.211
  150TCM     h1  916   3.464   1.290   3.262
  150TCM    cl3  917   3.534   1.074   3.187
  151TCM     c1  918   3.253   0.232   2.000
  151TCM    cl1  919   3.395   0.326   2.055
  151TCM    cl2  920   3.303   0.117   1.871
  151TCM     h1  921   3.210   0.176   2.084
  151TCM    cl3  922   3.131   0.345   1.934
  152TCM     c1  923   3.933   2.681   1.657
  152TCM    cl1  924   3.914   2.729   1.829
  152TCM    cl2  925   4.090   2.595   1.637
  152TCM     h1  926   3.852   2.615   1.628
  152TCM    cl3  927   3.932   2.827   1.553
  153TCM     c1  928   2.924   4.028   2.532
  153TCM    cl1  929   2.833   4.081   2.677
  153TCM    cl2  930   3.068   3.935   2.585
  153TCM     h1  931   2.861   3.965   2.469
  153TCM    cl3  932   2.978   4.172   2.439
  154TCM     c1  933   4.277   0.934   2.748
  154TCM    cl1  934   4.133   0.915   2.853
  154TCM    cl2  935   4.226   0.934   2.576
  154TCM     h1  936   4.327   1.029   2.771
  154TCM    cl3  937   4.390   0.798   2.776
  155TCM     c1  938   0.861   1.871   4.912
  155TCM    cl1  939   0.925   1.959   5.054
  155TCM    cl2  940   0.867   1.694   4.946
  155TCM     h1  941   0.758   1.902   4.893
  155TCM    cl3  942   0.963   1.907   4.769
  156TCM     c1  943   2.457   4.428   4.316
  156TCM    cl1  944   2.631   4.456   4.346
  156TCM    cl2  945   2.408   4.277   4.399
  156TCM     h1  946   2.398   4.512   4.354
  156TCM    cl3  947   2.430   4.412   4.139
  157TCM     c1  948   2.287   4.895   0.020
  157TCM    cl1  949   2.214   5.058   0.000
  157TCM    cl2  950   2.423   4.877  -0.095
  157TCM     h1  951   2.324   4.884   0.123
  157TCM    cl3  952   2.164   4.770  -0.015
  158TCM     c1  953   1.928   1.021   2.717
  158TCM    cl1  954   1.839   1.159   2.790
  158TCM    cl2  955   1.854   0.867   2.772
  158TCM     h1  956   1.922   1.027   2.608
  158TCM    cl3  957   2.100   1.027   2.769
  159TCM     c1  958   1.817   2.224   0.216
  159TCM    cl1  959   1.702   2.360   0.234
  159TCM    cl2  960   1.917   2.250   0.069
  159TCM     h1  961   1.881   2.218   0.304
  159TCM    cl3  962   1.724   2.071   0.198
  160TCM     c1  963   1.943   1.551   1.782
  160TCM    cl1  964   1.934   1.590   1.957
  160TCM    cl2  965   2.004   1.383   1.762
  160TCM     h1  966   1.844   1.559   1.738
  160TCM    cl3  967   2.055   1.665   1.700
  161TCM     c1  968   2.658   2.436   0.685
  161TCM    cl1  969   2.732   2.275   0.657
  161TCM    cl2  970   2.664   2.530   0.533
  161TCM     h1  971   2.554   2.423   0.716
  161TCM    cl3  972   2.748   2.524   0.813
  162TCM     c1  973   2.657   1.815   1.946
  162TCM    cl1  974   2.574   1.969   1.903
  162TCM    cl2  975   2.534   1.690   1.985
  162TCM     h1  976   2.717   1.782   1.861
  162TCM    cl3  977   2.763   1.842   2.089
  163TCM     c1  978   4.493   4.451   2.475
  163TCM    cl1  979   4.415   4.372   2.615
  163TCM    cl2  980   4.658   4.384   2.452
  163TCM     h1  981   4.434   4.433   2.385
  163TCM    cl3  982   4.504   4.628   2.504
  164TCM     c1  983   3.149   0.094   4.554
  164TCM    cl1  984   3.221   0.186   4.690
  164TCM    cl2  985   3.139   0.201   4.410
  164TCM     h1  986   3.211   0.007   4.531
  164TCM    cl3  987   2.984   0.041   4.601
  165TCM     c1  988   3.488   3.910   3.779
  165TCM    cl1  989   3.633   3.829   3.848
  165TCM    cl2  990   3.450   4.055   3.878
  165TCM     h1  991   3.508   3.940   3.676
  165TCM    cl3  992   3.350   3.796   3.783
  166TCM     c1  993   1.738   1.353   2.369
  166TCM    cl1  994   1.732   1.177   2.407
  166TCM    cl2  995   1.748   1.446   2.522
  166TCM     h1  996   1.826   1.374   2.308
  166TCM    cl3  997   1.590   1.400   2.280
  167TCM     c1  998   2.582   0.269   4.904
  167TCM    cl1  999   2.690   0.125   4.899
  167TCM    cl2 1000   2.520   0.289   5.071
  167TCM     h1 1001   2.638   0.358   4.875
  167TCM    cl3 1002   2.445   0.245   4.792
  168TCM     c1 1003   2.361   2.708   1.989
  168TCM    cl1 1004   2.329   2.814   2.130
  168TCM    cl2 1005   2.328   2.798   1.838
  168TCM     h1 1006   2.466   2.676   1.991
  168TCM    cl3 1007   2.255   2.563   1.998
  169TCM     c1 1008   0.814   4.734   1.506
  169TCM    cl1 1009   0.755   4.903   1.493
  169TCM    cl2 1010   0.993   4.732   1.508
  169TCM     h1 1011   0.776   4.689   1.598
  169TCM    cl3 1012   0.755   4.639   1.365
  170TCM     c1 1013   4.041   2.255   4.453
  170TCM    cl1 1014   3.916   2.319   4.565
  170TCM    cl2 1015   3.998   2.088   4.404
  170TCM     h1 1016   4.046   2.319   4.364
  170TCM    cl3 1017   4.200   2.255   4.536
  171TCM     c1 1018   1.819   4.640   4.955
  171TCM    cl1 1019   1.668   4.550   4.920
  171TCM    cl2 1020   1.804   4.715   5.117
  171TCM     h1 1021   1.904   4.571   4.954
  171TCM    cl3 1022   1.844   4.768   4.832
  172TCM     c1 1023   3.404   3.522   0.420
  172TCM    cl1 1024   3.484   3.393   0.516
  172TCM    cl2 1025   3.456   3.682   0.485
  172TCM     h1 1026   3.433   3.514   0.315
  172TCM    cl3 1027   3.227   3.505   0.434
  173TCM     c1 1028   4.739   0.921   0.505
  173TCM    cl1 1029   4.910   0.976   0.503
  173TCM    cl2 1030   4.682   0.895   0.337
  173TCM     h1 1031   4.732   0.827   0.560
  173TCM    cl3 1032   4.637   1.044   0.585
  174TCM     c1 1033   3.713   1.668   1.937
  174TCM    cl1 1034   3.821   1.598   1.811
  174TCM    cl2 1035   3.779   1.827   1.988
  174TCM     h1 1036   3.613   1.681   1.896
  174TCM    cl3 1037   3.708   1.557   2.078
  175TCM     c1 1038   3.882   1.602   0.069
  175TCM    cl1 1039   3.785   1.567  -0.078
  175TCM    cl2 1040   3.782   1.570   0.214
  175TCM     h1 1041   3.971   1.539   0.070
  175TCM    cl3 1042   3.931   1.775   0.067
  176TCM     c1 1043   3.749   3.154   4.780
  176TCM    cl1 1044   3.784   3.292   4.890
  176TCM    cl2 1045   3.864   3.022   4.815
  176TCM     h1 1046   3.646   3.119   4.797
  176TCM    cl3 1047   3.766   3.208   4.610
  177TCM     c1 1048   1.144   0.367   3.669
  177TCM    cl1 1049   1.084   0.472   3.801
  177TCM    cl2 1050   1.323   0.370   3.669
  177TCM     h1 1051   1.109   0.264   3.684
  177TCM    cl3 1052   1.084   0.429   3.512
  178TCM     c1 1053   3.083   0.090   1.200
  178TCM    cl1 1054   2.907   0.083   1.237
  178TCM    cl2 1055   3.121   0.248   1.125
  178TCM     h1 1056   3.140   0.077   1.292
  178TCM    cl3 1057   3.124  -0.042   1.085
  179TCM     c1 1058   0.954   0.185   3.982
  179TCM    cl1 1059   1.130   0.176   4.014
  179TCM    cl2 1060   0.865   0.107   4.117
  179TCM     h1 1061   0.923   0.289   3.973
  179TCM    cl3 1062   0.920   0.098   3.829
  180TCM     c1 1063   3.130   0.125   3.194
  180TCM    cl1 1064   3.092   0.240   3.061
  180TCM    cl2 1065   3.064   0.186   3.349
  180TCM     h1 1066   3.085   0.028   3.171
  180TCM    cl3 1067   3.308   0.106   3.208
  181TCM     c1 1068   2.043   0.684   4.109
  181TCM    cl1 1069   2.184   0.746   4.017
  181TCM    cl2 1070   1.913   0.807   4.106
  181TCM     h1 1071   2.008   0.591   4.063
  181TCM    cl3 1072   2.092   0.652   4.279
  182TCM     c1 1073   3.176   0.362   0.195
  182TCM    cl1 1074   3.301   0.443   0.295
  182TCM    cl2 1075   3.117   0.215   0.279
  182TCM     h1 1076   3.092   0.431   0.179
  182TCM    cl3 1077   3.246   0.317   0.036
  183TCM     c1 1078   1.580   1.957   2.540
  183TCM    cl1 1079   1.493   1.957   2.697
  183TCM    cl2 1080   1.747   1.896   2.566
  183TCM     h1 1081   1.528   1.892   2.469
  183TCM    cl3 1082   1.586   2.124   2.476
  184TCM     c1 1083   4.765   3.823   4.702
  184TCM    cl1 1084   4.812   3.886   4.540
  184TCM    cl2 1085   4.721   3.650   4.688
  184TCM     h1 1086   4.848   3.834   4.771
  184TCM    cl3 1087   4.624   3.916   4.763
  185TCM     c1 1088   0.736   0.957   2.746
  185TCM    cl1 1089   0.642   1.109   2.733
  185TCM    cl2 1090   0.631   0.816   2.711
  185TCM     h1 1091   0.819   0.960   2.675
  185TCM    cl3 1092   0.801   0.943   2.913
  186TCM     c1 1093   4.353   0.853   3.632
  186TCM    cl1 1094   4.399   0.753   3.773
  186TCM    cl2 1095   4.370   0.755   3.483
  186TCM     h1 1096   4.250   0.888   3.642
  186TCM    cl3 1097   4.463   0.995   3.623
  187TCM     c1 1098   0.004   4.381   0.551
  187TCM    cl1 1099  -0.008   4.357   0.728
  187TCM    cl2 1100   0.156   4.467   0.511
  187TCM     h1 1101   0.002   4.284   0.500
  187TCM    cl3 1102  -0.135   4.480   0.494
  188TCM     c1 1103   0.532   3.166   0.282
  188TCM    cl1 1104   0.466   3.165   0.449
  188TCM    cl2 1105   0.397   3.147   0.165
  188TCM     h1 1106   0.582   3.261   0.264
  188TCM    cl3 1107   0.648   3.031   0.263
  189TCM     c1 1108   1.137   2.324   4.707
  189TCM    cl1 1109   1.092   2.242   4.859
  189TCM    cl2 1110   1.097   2.218   4.568
  189TCM     h1 1111   1.082   2.418   4.698
  189TCM    cl3 1112   1.313   2.358   4.708
  190TCM     c1 1113   0.666   2.980   0.675
  190TCM    cl1 1114   0.704   2.925   0.841
  190TCM    cl2 1115   0.611   2.841   0.576
  190TCM     h1 1116   0.586   3.055   0.679
  190TCM    cl3 1117   0.813   3.050   0.601
  191TCM     c1 1118   4.133   1.351   2.587
  191TCM    cl1 1119   4.250   1.418   2.468
  191TCM    cl2 1120   4.020   1.480   2.640
  191TCM     h1 1121   4.076   1.270   2.540
  191TCM    cl3 1122   4.222   1.287   2.729
  192TCM     c1 1123   1.752   0.357   4.340
  192TCM    cl1 1124   1.665   0.225   4.255
  192TCM    cl2 1125   1.741   0.507   4.242
  192TCM     h1 1126   1.707   0.373   4.438
  192TCM    cl3 1127   1.925   0.311   4.360
  193TCM     c1 1128   0.397   4.924   2.626
  193TCM    cl1 1129   0.378   4.845   2.786
  193TCM    cl2 1130   0.534   5.040   2.634
  193TCM     h1 1131   0.417   4.848   2.550
  193TCM    cl3 1132   0.247   5.012   2.585
  194TCM     c1 1133   1.792   4.382   4.523
  194TCM    cl1 1134   1.818   4.206   4.500
  194TCM    cl2 1135   1.899   4.442   4.654
  194TCM     h1 1136   1.815   4.435   4.430
  194TCM    cl3 1137   1.621   4.411   4.567
  195TCM     c1 1138   4.008   4.174   1.247
  195TCM    cl1 1139   3.914   4.166   1.094
  195TCM    cl2 1140   4.152   4.068   1.233
  195TCM     h1 1141   4.039   4.277   1.266
  195TCM    cl3 1142   3.906   4.116   1.383
  196TCM     c1 1143   0.919   2.568   0.399
  196TCM    cl1 1144   1.056   2.585   0.285
  196TCM    cl2 1145   0.893   2.394   0.435
  196TCM     h1 1146   0.942   2.622   0.492
  196TCM    cl3 1147   0.770   2.636   0.325
  197TCM     c1 1148   1.033   0.657   4.250
  197TCM    cl1 1149   0.866   0.670   4.313
  197TCM    cl2 1150   1.051   0.767   4.108
  197TCM     h1 1151   1.104   0.686   4.328
  197TCM    cl3 1152   1.064   0.489   4.197
  198TCM     c1 1153   1.427   1.355   0.774
  198TCM    cl1 1154   1.486   1.510   0.706
  198TCM    cl2 1155   1.250   1.364   0.801
  198TCM     h1 1156   1.450   1.274   0.704
  198TCM    cl3 1157   1.510   1.324   0.931
  199TCM     c1 1158   1.072   4.340   1.309
  199TCM    cl1 1159   1.232   4.264   1.281
  199TCM    cl2 1160   1.066   4.499   1.225
  199TCM     h1 1161   0.993   4.275   1.270
  199TCM    cl3 1162   1.048   4.364   1.485
  200TCM     c1 1163   4.974   2.323   2.616
  200TCM    cl1 1164   4.926   2.158   2.565
  200TCM    cl2 1165   4.925   2.441   2.490
  200TCM     h1 1166   4.926   2.348   2.711
  200TCM    cl3 1167   5.153   2.329   2.636
  201TCM     c1 1168   0.580   2.210   0.327
  201TCM    cl1 1169   0.606   2.131   0.168
  201TCM    cl2 1170   0.465   2.111   0.423
  201TCM     h1 1171   0.676   2.216   0.380
  201TCM    cl3 1172   0.513   2.375   0.306
  202TCM     c1 1173   3.605   4.457   3.334
  202TCM    cl1 1174   3.714   4.577   3.258
  202TCM    cl2 1175   3.682   4.295   3.327
  202TCM     h1 1176   3.586   4.485   3.438
  202TCM    cl3 1177   3.450   4.452   3.244
  203TCM     c1 1178   2.138   0.817   2.384
  203TCM    cl1 1179   2.252   0.955   2.379
  203TCM    cl2 1180   1.970   0.879   2.370
  203TCM     h1 1181   2.159   0.749   2.301
  203TCM    cl3 1182   2.155   0.730   2.540
  204TCM     c1 1183   0.504   4.348   4.429
  204TCM    cl1 1184   0.547   4.501   4.513
  204TCM    cl2 1185   0.441   4.386   4.266
  204TCM     h1 1186   0.592   4.285   4.420
  204TCM    cl3 1187   0.378   4.262   4.525
  205TCM     c1 1188   2.025   4.612   3.796
  205TCM    cl1 1189   1.986   4.576   3.967
  205TCM    cl2 1190   2.059   4.787   3.779
  205TCM     h1 1191   2.113   4.554   3.766
  205TCM    cl3 1192   1.885   4.568   3.692
  206TCM     c1 1193   1.013   4.819   1.030
  206TCM    cl1 1194   0.891   4.698   0.976
  206TCM    cl2 1195   0.952   4.903   1.177
  206TCM     h1 1196   1.107   4.769   1.053
  206TCM    cl3 1197   1.038   4.940   0.900
  207TCM     c1 1198   2.573   2.845   0.696
  207TCM    cl1 1199   2.546   2.824   0.872
  207TCM    cl2 1200   2.626   3.014   0.666
  207TCM     h1 1201   2.651   2.776   0.663
  207TCM    cl3 1202   2.420   2.811   0.608
  208TCM     c1 1203   0.685   3.402   0.893
  208TCM    cl1 1204   0.833   3.470   0.816
  208TCM    cl2 1205   0.592   3.311   0.770
  208TCM     h1 1206   0.713   3.334   0.974
  208TCM    cl3 1207   0.583   3.534   0.958
  209TCM     c1 1208   3.643   2.372   1.861
  209TCM    cl1 1209   3.822   2.370   1.852
  209TCM    cl2 1210   3.581   2.204   1.846
  209TCM     h1 1211   3.611   2.414   1.957
  209TCM    cl3 1212   3.578   2.472   1.727
  210TCM     c1 1213   2.924   2.268   1.072
  210TCM    cl1 1214   2.745   2.257   1.070
  210TCM    cl2 1215   2.973   2.421   1.153
  210TCM     h1 1216   2.966   2.183   1.127
  210TCM    cl3 1217   2.987   2.267   0.904
  211TCM     c1 1218   2.639   3.258   4.109
  211TCM    cl1 1219   2.717   3.418   4.134
  211TCM    cl2 1220   2.720   3.173   3.973
  211TCM     h1 1221   2.648   3.199   4.200
  211TCM    cl3 1222   2.466   3.280   4.069
  212TCM     c1 1223   1.308   2.695   4.499
  212TCM    cl1 1224   1.389   2.718   4.658
  212TCM    cl2 1225   1.304   2.852   4.412
  212TCM     h1 1226   1.363   2.622   4.440
  212TCM    cl3 1227   1.141   2.636   4.526
  213TCM     c1 1228   1.388   2.748   3.216
  213TCM    cl1 1229   1.287   2.652   3.329
  213TCM    cl2 1230   1.347   2.704   3.047
  213TCM     h1 1231   1.369   2.855   3.231
  213TCM    cl3 1232   1.562   2.714   3.248
  214TCM     c1 1233   3.751   4.545   3.766
  214TCM    cl1 1234   3.622   4.425   3.735
  214TCM    cl2 1235   3.707   4.647   3.907
  214TCM     h1 1236   3.845   4.494   3.786
  214TCM    cl3 1237   3.770   4.649   3.620
  215TCM     c1 1238   0.068   3.162   0.479
  215TCM    cl1 1239   0.118   3.204   0.646
  215TCM    cl2 1240   0.146   3.008   0.429
  215TCM     h1 1241  -0.041   3.150   0.476
  215TCM    cl3 1242   0.117   3.293   0.367
  216TCM     c1 1243   1.255   2.112   0.144
  216TCM    cl1 1244   1.334   1.991   0.250
  216TCM    cl2 1245   1.379   2.225   0.081
  216TCM     h1 1246   1.205   2.061   0.061
  216TCM    cl3 1247   1.133   2.204   0.239
  217TCM     c1 1248   0.215   1.809   2.762
  217TCM    cl1 1249   0.149   1.696   2.639
  217TCM    cl2 1250   0.269   1.960   2.680
  217TCM     h1 1251   0.137   1.833   2.834
  217TCM    cl3 1252   0.354   1.733   2.846
  218TCM     c1 1253   3.612   4.980   4.724
  218TCM    cl1 1254   3.511   4.991   4.575
  218TCM    cl2 1255   3.629   4.808   4.770
  218TCM     h1 1256   3.710   5.024   4.705
  218TCM    cl3 1257   3.531   5.069   4.857
  219TCM     c1 1258   1.574   2.442   1.974
  219TCM    cl1 1259   1.597   2.619   1.992
  219TCM    cl2 1260   1.720   2.372   1.898
  219TCM     h1 1261   1.559   2.397   2.073
  219TCM    cl3 1262   1.430   2.410   1.871
  220TCM     c1 1263   3.729   0.424   3.955
  220TCM    cl1 1264   3.881   0.330   3.942
  220TCM    cl2 1265   3.595   0.336   3.874
  220TCM     h1 1266   3.704   0.440   4.060
  220TCM    cl3 1267   3.750   0.582   3.873
  221TCM     c1 1268   0.209   3.658   1.206
  221TCM    cl1 1269   0.207   3.628   1.029
  221TCM    cl2 1270   0.119   3.809   1.242
  221TCM     h1 1271   0.162   3.574   1.258
  221TCM    cl3 1272   0.379   3.675   1.262
  222TCM     c1 1273   0.044   1.304   0.667
  222TCM    cl1 1274  -0.132   1.327   0.690
  222TCM    cl2 1275   0.134   1.414   0.777
  222TCM     h1 1276   0.071   1.200   0.690
  222TCM    cl3 1277   0.088   1.342   0.497
  223TCM     c1 1278   3.584   2.340   2.551
  223TCM    cl1 1279   3.573   2.463   2.421
  223TCM    cl2 1280   3.422   2.318   2.625
  223TCM     h1 1281   3.619   2.245   2.509
  223TCM    cl3 1282   3.700   2.395   2.676
  224TCM     c1 1283   0.105   4.646   2.935
  224TCM    cl1 1284   0.215   4.509   2.897
  224TCM    cl2 1285  -0.021   4.590   3.050
  224TCM     h1 1286   0.162   4.728   2.980
  224TCM    cl3 1287   0.028   4.703   2.784
  225TCM     c1 1288   0.165   4.455   2.525
  225TCM    cl1 1289   0.011   4.518   2.457
  225TCM    cl2 1290   0.284   4.589   2.539
  225TCM     h1 1291   0.146   4.412   2.624
  225TCM    cl3 1292   0.231   4.328   2.416
  226TCM     c1 1293   0.230   2.293   2.282
  226TCM    cl1 1294   0.085   2.198   2.238
  226TCM    cl2 1295   0.300   2.366   2.134
  226TCM     h1 1296   0.202   2.372   2.353
  226TCM    cl3 1297   0.350   2.183   2.358
  227TCM     c1 1298   0.283   3.780   3.052
  227TCM    cl1 1299   0.267   3.652   3.176
  227TCM    cl2 1300   0.404   3.729   2.930
  227TCM     h1 1301   0.187   3.796   3.003
  227TCM    cl3 1302   0.337   3.932   3.129
  228TCM     c1 1303   2.293   0.346   3.911
  228TCM    cl1 1304   2.258   0.386   4.083
  228TCM    cl2 1305   2.192   0.447   3.803
  228TCM     h1 1306   2.399   0.363   3.890
  228TCM    cl3 1307   2.253   0.173   3.884
  229TCM     c1 1308   1.705   1.852   2.156
  229TCM    cl1 1309   1.530   1.874   2.187
  229TCM    cl2 1310   1.765   1.715   2.254
  229TCM     h1 1311   1.722   1.832   2.050
  229TCM    cl3 1312   1.793   2.002   2.202
  230TCM     c1 1313   0.910   3.154   2.199
  230TCM    cl1 1314   0.935   3.322   2.257
  230TCM    cl2 1315   0.871   3.157   2.024
  230TCM     h1 1316   1.001   3.096   2.216
  230TCM    cl3 1317   0.773   3.080   2.289
  231TCM     c1 1318   4.593   3.644   2.967
  231TCM    cl1 1319   4.671   3.797   3.018
  231TCM    cl2 1320   4.632   3.613   2.794
  231TCM     h1 1321   4.629   3.561   3.028
  231TCM    cl3 1322   4.415   3.660   2.985
  232TCM     c1 1323   4.062   0.831   4.432
  232TCM    cl1 1324   4.070   0.654   4.465
  232TCM    cl2 1325   4.209   0.911   4.497
  232TCM     h1 1326   4.056   0.848   4.324
  232TCM    cl3 1327   3.916   0.900   4.511
  233TCM     c1 1328   0.129   2.945   4.610
  233TCM    cl1 1329   0.289   3.022   4.636
  233TCM    cl2 1330  -0.001   3.067   4.632
  233TCM     h1 1331   0.124   2.904   4.509
  233TCM    cl3 1332   0.106   2.812   4.729
  234TCM     c1 1333   0.755   1.834   0.442
  234TCM    cl1 1334   0.664   1.853   0.595
  234TCM    cl2 1335   0.845   1.986   0.409
  234TCM     h1 1336   0.825   1.751   0.451
  234TCM    cl3 1337   0.640   1.802   0.307
  235TCM     c1 1338   1.733   1.979   1.756
  235TCM    cl1 1339   1.599   2.029   1.863
  235TCM    cl2 1340   1.697   1.818   1.685
  235TCM     h1 1341   1.745   2.053   1.675
  235TCM    cl3 1342   1.886   1.969   1.850
  236TCM     c1 1343   2.431   4.269   3.815
  236TCM    cl1 1344   2.258   4.310   3.840
  236TCM    cl2 1345   2.459   4.241   3.640
  236TCM     h1 1346   2.493   4.352   3.850
  236TCM    cl3 1347   2.472   4.121   3.907
  237TCM     c1 1348   3.138   0.314   1.559
  237TCM    cl1 1349   3.043   0.163   1.581
  237TCM    cl2 1350   3.036   0.437   1.477
  237TCM     h1 1351   3.171   0.352   1.656
  237TCM    cl3 1352   3.280   0.277   1.456
  238TCM     c1 1353   2.345   4.557   4.738
  238TCM    cl1 1354   2.247   4.518   4.594
  238TCM    cl2 1355   2.519   4.543   4.699
  238TCM     h1 1356   2.323   4.660   4.770
  238TCM    cl3 1357   2.304   4.444   4.871
  239TCM     c1 1358   2.623   1.604   3.145
  239TCM    cl1 1359   2.585   1.579   3.319
  239TCM    cl2 1360   2.585   1.455   3.053
  239TCM     h1 1361   2.564   1.687   3.106
  239TCM    cl3 1362   2.798   1.642   3.129
  240TCM     c1 1363   0.486   1.558   4.880
  240TCM    cl1 1364   0.491   1.493   5.047
  240TCM    cl2 1365   0.607   1.474   4.779
  240TCM     h1 1366   0.386   1.543   4.838
  240TCM    cl3 1367   0.524   1.733   4.883
  241TCM     c1 1368   2.851   0.812   2.894
  241TCM    cl1 1369   3.016   0.739   2.898
  241TCM    cl2 1370   2.845   0.939   2.768
  241TCM     h1 1371   2.778   0.734   2.872
  241TCM    cl3 1372   2.815   0.886   3.054
  242TCM     c1 1373   3.469   0.577   1.588
  242TCM    cl1 1374   3.596   0.696   1.633
  242TCM    cl2 1375   3.310   0.660   1.579
  242TCM     h1 1376   3.493   0.533   1.491
  242TCM    cl3 1377   3.460   0.449   1.713
  243TCM     c1 1378   0.356   0.137   0.396
  243TCM    cl1 1379   0.457   0.251   0.491
  243TCM    cl2 1380   0.184   0.160   0.441
  243TCM     h1 1381   0.369   0.158   0.289
  243TCM    cl3 1382   0.405  -0.032   0.430
  244TCM     c1 1383   0.477   3.712   3.816
  244TCM    cl1 1384   0.559   3.809   3.943
  244TCM    cl2 1385   0.389   3.575   3.892
  244TCM     h1 1386   0.406   3.775   3.762
  244TCM    cl3 1387   0.600   3.647   3.702
  245TCM     c1 1388   4.970   4.196   4.375
  245TCM    cl1 1389   5.014   4.188   4.549
  245TCM    cl2 1390   5.112   4.248   4.279
  245TCM     h1 1391   4.936   4.098   4.341
  245TCM    cl3 1392   4.839   4.317   4.352
  246TCM     c1 1393   3.457   1.673   0.971
  246TCM    cl1 1394   3.565   1.775   0.871
  246TCM    cl2 1395   3.434   1.752   1.131
  246TCM     h1 1396   3.360   1.661   0.921
  246TCM    cl3 1397   3.532   1.512   0.996
  247TCM     c1 1398   3.226   4.234   3.578
  247TCM    cl1 1399   3.156   4.081   3.639
  247TCM    cl2 1400   3.143   4.282   3.425
  247TCM     h1 1401   3.213   4.313   3.652
  247TCM    cl3 1402   3.401   4.210   3.545
  248TCM     c1 1403   1.850   4.621   3.185
  248TCM    cl1 1404   1.954   4.476   3.202
  248TCM    cl2 1405   1.917   4.727   3.056
  248TCM     h1 1406   1.749   4.591   3.158
  248TCM    cl3 1407   1.846   4.711   3.341
  249TCM     c1 1408   2.454   0.263   2.430
  249TCM    cl1 1409   2.494   0.298   2.601
  249TCM    cl2 1410   2.339   0.387   2.369
  249TCM     h1 1411   2.545   0.264   2.370
  249TCM    cl3 1412   2.376   0.101   2.418
  250TCM     c1 1413   3.231   1.926   3.965
  250TCM    cl1 1414   3.357   1.977   4.082
  250TCM    cl2 1415   3.304   1.909   3.802
  250TCM     h1 1416   3.188   1.830   3.996
  250TCM    cl3 1417   3.101   2.050   3.960
  251TCM     c1 1418   2.815   2.295   0.291
  251TCM    cl1 1419   2.689   2.379   0.196
  251TCM    cl2 1420   2.972   2.302   0.203
  251TCM     h1 1421   2.826   2.343   0.388
  251TCM    cl3 1422   2.770   2.123   0.314
  252TCM     c1 1423   1.256   0.122   4.894
  252TCM    cl1 1424   1.292   0.060   4.729
  252TCM    cl2 1425   1.091   0.190   4.898
  252TCM     h1 1426   1.265   0.041   4.966
  252TCM    cl3 1427   1.374   0.252   4.934
  253TCM     c1 1428   0.729   1.450   1.781
  253TCM    cl1 1429   0.569   1.517   1.827
  253TCM    cl2 1430   0.835   1.445   1.926
  253TCM     h1 1431   0.716   1.349   1.742
  253TCM    cl3 1432   0.804   1.554   1.656
  254TCM     c1 1433   4.641   2.848   0.340
  254TCM    cl1 1434   4.568   2.747   0.469
  254TCM    cl2 1435   4.723   2.988   0.416
  254TCM     h1 1436   4.713   2.789   0.284
  254TCM    cl3 1437   4.514   2.907   0.229
  255TCM     c1 1438   0.250   1.607   3.866
  255TCM    cl1 1439   0.339   1.459   3.915
  255TCM    cl2 1440   0.187   1.689   4.013
  255TCM     h1 1441   0.317   1.675   3.812
  255TCM    cl3 1442   0.113   1.561   3.760
  256TCM     c1 1443   0.852   0.450   0.280
  256TCM    cl1 1444   0.723   0.453   0.156
  256TCM    cl2 1445   0.959   0.308   0.254
  256TCM     h1 1446   0.912   0.541   0.273
  256TCM    cl3 1447   0.778   0.440   0.443
  257TCM     c1 1448   3.422   4.465   4.904
  257TCM    cl1 1449   3.420   4.581   5.041
  257TCM    cl2 1450   3.340   4.314   4.954
  257TCM     h1 1451   3.370   4.509   4.818
  257TCM    cl3 1452   3.592   4.429   4.860
  258TCM     c1 1453   3.077   3.624   3.514
  258TCM    cl1 1454   2.942   3.686   3.615
  258TCM    cl2 1455   3.183   3.518   3.612
  258TCM     h1 1456   3.035   3.567   3.430
  258TCM    cl3 1457   3.172   3.762   3.449
  259TCM     c1 1458   2.691   4.255   2.991
  259TCM    cl1 1459   2.627   4.420   2.958
  259TCM    cl2 1460   2.585   4.174   3.112
  259TCM     h1 1461   2.692   4.197   2.899
  259TCM    cl3 1462   2.857   4.268   3.057
  260TCM     c1 1463   3.260   0.979   2.807
  260TCM    cl1 1464   3.206   0.939   2.641
  260TCM    cl2 1465   3.161   1.115   2.869
  260TCM     h1 1466   3.248   0.891   2.872
  260TCM    cl3 1467   3.432   1.028   2.803
  261TCM     c1 1468   4.459   1.859   0.079
  261TCM    cl1 1469   4.440   1.862   0.257
  261TCM    cl2 1470   4.304   1.810   0.004
  261TCM     h1 1471   4.488   1.959   0.043
  261TCM    cl3 1472   4.587   1.741   0.033
  262TCM     c1 1473   3.029   1.980   0.533
  262TCM    cl1 1474   3.181   1.886   0.548
  262TCM    cl2 1475   3.067   2.155   0.536
  262TCM     h1 1476   2.980   1.955   0.439
  262TCM    cl3 1477   2.919   1.940   0.670
  263TCM     c1 1478   4.417   4.382   1.063
  263TCM    cl1 1479   4.470   4.240   1.159
  263TCM    cl2 1480   4.240   4.405   1.083
  263TCM     h1 1481   4.471   4.471   1.097
  263TCM    cl3 1482   4.452   4.352   0.890
  264TCM     c1 1483   4.414   0.557   3.185
  264TCM    cl1 1484   4.272   0.448   3.202
  264TCM    cl2 1485   4.358   0.715   3.121
  264TCM     h1 1486   4.461   0.571   3.283
  264TCM    cl3 1487   4.531   0.483   3.071
  265TCM     c1 1488   3.333   2.285   0.332
  265TCM    cl1 1489   3.363   2.443   0.411
  265TCM    cl2 1490   3.425   2.157   0.418
  265TCM     h1 1491   3.226   2.262   0.336
  265TCM    cl3 1492   3.386   2.291   0.161
  266TCM     c1 1493   1.611   0.012   2.621
  266TCM    cl1 1494   1.649  -0.049   2.786
  266TCM    cl2 1495   1.631   0.190   2.616
  266TCM     h1 1496   1.677  -0.035   2.548
  266TCM    cl3 1497   1.440  -0.029   2.582
  267TCM     c1 1498   1.048   4.424   4.912
  267TCM    cl1 1499   1.199   4.492   4.843
  267TCM    cl2 1500   1.057   4.431   5.091
  267TCM     h1 1501   0.963   4.483   4.878
  267TCM    cl3 1502   1.029   4.254   4.859
  268TCM     c1 1503   4.848   0.039   4.351
  268TCM    cl1 1504   4.785  -0.016   4.191
  268TCM    cl2 1505   5.009  -0.034   4.381
  268TCM     h1 1506   4.857   0.148   4.351
  268TCM    cl3 1507   4.734  -0.013   4.479
  269TCM     c1 1508   4.296   4.454   0.244
  269TCM    cl1 1509   4.127   4.484   0.298
  269TCM    cl2 1510   4.409   4.558   0.337
  269TCM     h1 1511   4.322   4.349   0.258
  269TCM    cl3 1512   4.308   4.496   0.070
  270TCM     c1 1513   0.282   2.307   3.643
  270TCM    cl1 1514   0.450   2.315   3.704
  270TCM    cl2 1515   0.169   2.304   3.782
  270TCM     h1 1516   0.261   2.395   3.581
  270TCM    cl3 1517   0.261   2.159   3.544
  271TCM     c1 1518   3.609   1.220   1.783
  271TCM    cl1 1519   3.741   1.192   1.664
  271TCM    cl2 1520   3.533   1.379   1.751
  271TCM     h1 1521   3.534   1.141   1.773
  271TCM    cl3 1522   3.678   1.219   1.949
  272TCM     c1 1523   1.419   4.696   0.168
  272TCM    cl1 1524   1.428   4.766   0.333
  272TCM    cl2 1525   1.278   4.765   0.082
  272TCM     h1 1526   1.511   4.720   0.114
  272TCM    cl3 1527   1.403   4.518   0.181
  273TCM     c1 1528   3.353   0.796   3.641
  273TCM    cl1 1529   3.366   0.763   3.465
  273TCM    cl2 1530   3.424   0.660   3.733
  273TCM     h1 1531   3.407   0.888   3.665
  273TCM    cl3 1532   3.180   0.815   3.685
  274TCM     c1 1533   4.303   3.326   3.273
  274TCM    cl1 1534   4.464   3.329   3.195
  274TCM    cl2 1535   4.208   3.189   3.207
  274TCM     h1 1536   4.314   3.314   3.381
  274TCM    cl3 1537   4.217   3.479   3.238
  275TCM     c1 1538   1.256   0.643   0.487
  275TCM    cl1 1539   1.077   0.642   0.499
  275TCM    cl2 1540   1.318   0.478   0.518
  275TCM     h1 1541   1.285   0.676   0.387
  275TCM    cl3 1542   1.323   0.756   0.609
  276TCM     c1 1543   0.948   1.729   1.226
  276TCM    cl1 1544   0.940   1.560   1.169
  276TCM    cl2 1545   0.854   1.834   1.115
  276TCM     h1 1546   0.907   1.736   1.327
  276TCM    cl3 1547   1.119   1.784   1.228
  277TCM     c1 1548   3.196   2.881   2.156
  277TCM    cl1 1549   3.219   3.031   2.059
  277TCM    cl2 1550   3.262   2.908   2.321
  277TCM     h1 1551   3.090   2.858   2.163
  277TCM    cl3 1552   3.284   2.745   2.079
  278TCM     c1 1553   2.914   3.447   2.375
  278TCM    cl1 1554   2.899   3.609   2.451
  278TCM    cl2 1555   2.822   3.327   2.471
  278TCM     h1 1556   2.875   3.450   2.273
  278TCM    cl3 1557   3.087   3.400   2.370
  279TCM     c1 1558   1.048   0.936   0.157
  279TCM    cl1 1559   0.933   0.808   0.207
  279TCM    cl2 1560   1.063   0.936  -0.022
  279TCM     h1 1561   1.011   1.033   0.190
  279TCM    cl3 1562   1.208   0.904   0.231
  280TCM     c1 1563   3.021   0.057   0.646
  280TCM    cl1 1564   3.117   0.160   0.759
  280TCM    cl2 1565   2.884  -0.016   0.735
  280TCM     h1 1566   2.984   0.118   0.564
  280TCM    cl3 1567   3.125  -0.074   0.580
  281TCM     c1 1568   1.698   3.142   0.779
  281TCM    cl1 1569   1.786   3.279   0.852
  281TCM    cl2 1570   1.571   3.087   0.893
  281TCM     h1 1571   1.652   3.174   0.685
  281TCM    cl3 1572   1.811   3.007   0.747
  282TCM     c1 1573   2.694   3.549   1.552
  282TCM    cl1 1574   2.833   3.626   1.636
  282TCM    cl2 1575   2.549   3.554   1.658
  282TCM     h1 1576   2.673   3.602   1.459
  282TCM    cl3 1577   2.734   3.377   1.515
  283TCM     c1 1578   4.441   0.126   4.038
  283TCM    cl1 1579   4.437   0.134   4.217
  283TCM    cl2 1580   4.513   0.278   3.973
  283TCM     h1 1581   4.501   0.041   4.006
  283TCM    cl3 1582   4.274   0.109   3.976
  284TCM     c1 1583   4.587   2.733   4.758
  284TCM    cl1 1584   4.749   2.661   4.739
  284TCM    cl2 1585   4.531   2.711   4.927
  284TCM     h1 1586   4.591   2.840   4.735
  284TCM    cl3 1587   4.472   2.652   4.647
  285TCM     c1 1588   0.842   4.505   2.230
  285TCM    cl1 1589   0.741   4.428   2.103
  285TCM    cl2 1590   0.870   4.677   2.188
  285TCM     h1 1591   0.790   4.499   2.327
  285TCM    cl3 1592   0.999   4.419   2.241
  286TCM     c1 1593   4.909   4.926   0.389
  286TCM    cl1 1594   4.759   4.828   0.400
  286TCM    cl2 1595   4.932   4.980   0.220
  286TCM     h1 1596   4.901   5.013   0.455
  286TCM    cl3 1597   5.050   4.825   0.439
  287TCM     c1 1598   4.407   0.252   3.495
  287TCM    cl1 1599   4.506   0.189   3.359
  287TCM    cl2 1600   4.467   0.414   3.541
  287TCM     h1 1601   4.302   0.258   3.464
  287TCM    cl3 1602   4.422   0.141   3.635
  288TCM     c1 1603   3.520   4.983   4.086
  288TCM    cl1 1604   3.435   4.882   4.208
  288TCM    cl2 1605   3.614   5.110   4.170
  288TCM     h1 1606   3.586   4.920   4.027
  288TCM    cl3 1607   3.397   5.060   3.980
  289TCM     c1 1608   1.170   1.734   1.708
  289TCM    cl1 1609   1.064   1.816   1.589
  289TCM    cl2 1610   1.080   1.712   1.861
  289TCM     h1 1611   1.200   1.636   1.669
  289TCM    cl3 1612   1.316   1.834   1.738
  290TCM     c1 1613   0.149   0.019   1.420
  290TCM    cl1 1614   0.099   0.136   1.547
  290TCM    cl2 1615   0.042   0.036   1.277
  290TCM     h1 1616   0.252   0.039   1.391
  290TCM    cl3 1617   0.135  -0.148   1.485
  291TCM     c1 1618   3.166   1.461   2.663
  291TCM    cl1 1619   3.061   1.491   2.521
  291TCM    cl2 1620   3.244   1.616   2.712
  291TCM     h1 1621   3.105   1.423   2.746
  291TCM    cl3 1622   3.293   1.342   2.621
  292TCM     c1 1623   3.519   0.065   0.398
  292TCM    cl1 1624   3.474   0.106   0.229
  292TCM    cl2 1625   3.501  -0.112   0.424
  292TCM     h1 1626   3.623   0.094   0.416
  292TCM    cl3 1627   3.412   0.152   0.512
  293TCM     c1 1628   0.500   1.173   2.082
  293TCM    cl1 1629   0.430   1.180   1.917
  293TCM    cl2 1630   0.389   1.083   2.192
  293TCM     h1 1631   0.597   1.122   2.079
  293TCM    cl3 1632   0.522   1.339   2.145
  294TCM     c1 1633   2.611   3.421   1.137
  294TCM    cl1 1634   2.568   3.455   0.966
  294TCM    cl2 1635   2.468   3.453   1.240
  294TCM     h1 1636   2.642   3.316   1.148
  294TCM    cl3 1637   2.745   3.528   1.187
  295TCM     c1 1638   2.248   2.600   4.508
  295TCM    cl1 1639   2.373   2.593   4.379
  295TCM    cl2 1640   2.328   2.593   4.669
  295TCM     h1 1641   2.192   2.693   4.499
  295TCM    cl3 1642   2.136   2.461   4.491
  296TCM     c1 1643   0.196   2.205   0.770
  296TCM    cl1 1644   0.342   2.101   0.778
  296TCM    cl2 1645   0.178   2.269   0.603
  296TCM     h1 1646   0.108   2.146   0.797
  296TCM    cl3 1647   0.213   2.341   0.886
  297TCM     c1 1648   2.719   4.955   1.606
  297TCM    cl1 1649   2.765   4.791   1.663
  297TCM    cl2 1650   2.629   5.040   1.735
  297TCM     h1 1651   2.809   5.011   1.580
  297TCM    cl3 1652   2.615   4.939   1.461
  298TCM     c1 1653   2.310   3.605   0.068
  298TCM    cl1 1654   2.221   3.616  -0.088
  298TCM    cl2 1655   2.314   3.434   0.122
  298TCM     h1 1656   2.412   3.641   0.053
  298TCM    cl3 1657   2.228   3.705   0.191
  299TCM     c1 1658   0.037   3.361   0.011
  299TCM    cl1 1659   0.138   3.244  -0.080
  299TCM    cl2 1660  -0.112   3.396  -0.082
  299TCM     h1 1661   0.010   3.319   0.109
  299TCM    cl3 1662   0.130   3.513   0.036
  300TCM     c1 1663   3.729   1.883   1.583
  300TCM    cl1 1664   3.578   1.867   1.679
  300TCM    cl2 1665   3.806   2.040   1.619
  300TCM     h1 1666   3.797   1.801   1.608
  300TCM    cl3 1667   3.689   1.876   1.408
  301TCM     c1 1668   2.109   2.658   2.385
  301TCM    cl1 1669   1.996   2.695   2.251
  301TCM    cl2 1670   2.176   2.493   2.363
  301TCM     h1 1671   2.190   2.731   2.386
  301TCM    cl3 1672   2.020   2.665   2.541
  302TCM     c1 1673   4.164   2.903   0.581
  302TCM    cl1 1674   4.316   2.986   0.535
  302TCM    cl2 1675   4.151   2.897   0.760
  302TCM     h1 1676   4.079   2.956   0.540
  302TCM    cl3 1677   4.168   2.735   0.517
  303TCM     c1 1678   0.297   4.045   1.540
  303TCM    cl1 1679   0.166   3.933   1.588
  303TCM    cl2 1680   0.250   4.129   1.388
  303TCM     h1 1681   0.314   4.119   1.619
  303TCM    cl3 1682   0.448   3.952   1.512
  304TCM     c1 1683   3.042   1.360   3.670
  304TCM    cl1 1684   3.052   1.186   3.715
  304TCM    cl2 1685   3.116   1.458   3.801
  304TCM     h1 1686   3.096   1.378   3.577
  304TCM    cl3 1687   2.870   1.406   3.649
  305TCM     c1 1688   0.874   3.683   2.071
  305TCM    cl1 1689   0.869   3.548   1.953
  305TCM    cl2 1690   1.035   3.685   2.151
  305TCM     h1 1691   0.858   3.778   2.019
  305TCM    cl3 1692   0.746   3.660   2.195
  306TCM     c1 1693   2.806   3.767   2.024
  306TCM    cl1 1694   2.654   3.771   1.929
  306TCM    cl2 1695   2.861   3.597   2.039
  306TCM     h1 1696   2.883   3.826   1.974
  306TCM    cl3 1697   2.774   3.833   2.188
  307TCM     c1 1698   1.160   2.719   2.016
  307TCM    cl1 1699   1.288   2.815   1.934
  307TCM    cl2 1700   1.059   2.829   2.116
  307TCM     h1 1701   1.097   2.670   1.941
  307TCM    cl3 1702   1.235   2.595   2.121
  308TCM     c1 1703   4.614   4.840   4.972
  308TCM    cl1 1704   4.766   4.844   4.877
  308TCM    cl2 1705   4.598   4.994   5.063
  308TCM     h1 1706   4.529   4.829   4.904
  308TCM    cl3 1707   4.617   4.702   5.087
  309TCM     c1 1708   4.171   4.783   2.569
  309TCM    cl1 1709   4.106   4.899   2.449
  309TCM    cl2 1710   4.130   4.616   2.519
  309TCM     h1 1711   4.279   4.793   2.576
  309TCM    cl3 1712   4.098   4.816   2.730
  310TCM     c1 1713   1.409   4.912   3.118
  310TCM    cl1 1714   1.356   5.063   3.037
  310TCM    cl2 1715   1.580   4.929   3.171
  310TCM     h1 1716   1.345   4.893   3.205
  310TCM    cl3 1717   1.397   4.775   3.003
  311TCM     c1 1718   3.381   4.785   3.549
  311TCM    cl1 1719   3.469   4.837   3.696
  311TCM    cl2 1720   3.347   4.609   3.559
  311TCM     h1 1721   3.287   4.840   3.542
  311TCM    cl3 1722   3.481   4.817   3.404
  312TCM     c1 1723   3.548   1.955   0.004
  312TCM    cl1 1724   3.642   1.954  -0.148
  312TCM    cl2 1725   3.650   2.016   0.138
  312TCM     h1 1726   3.460   2.020  -0.008
  312TCM    cl3 1727   3.495   1.788   0.042
  313TCM     c1 1728   4.440   3.950   2.751
  313TCM    cl1 1729   4.598   4.021   2.704
  313TCM    cl2 1730   4.322   3.974   2.618
  313TCM     h1 1731   4.452   3.843   2.770
  313TCM    cl3 1732   4.380   4.031   2.899
  314TCM     c1 1733   4.708   2.802   2.319
  314TCM    cl1 1734   4.800   2.808   2.472
  314TCM    cl2 1735   4.607   2.950   2.303
  314TCM     h1 1736   4.777   2.796   2.234
  314TCM    cl3 1737   4.601   2.658   2.319
  315TCM     c1 1738   0.985   2.147   0.702
  315TCM    cl1 1739   0.967   1.991   0.787
  315TCM    cl2 1740   1.142   2.151   0.615
  315TCM     h1 1741   0.903   2.160   0.630
  315TCM    cl3 1742   0.981   2.282   0.821
  316TCM     c1 1743   0.646   1.654   4.007
  316TCM    cl1 1744   0.534   1.682   4.144
  316TCM    cl2 1745   0.808   1.717   4.050
  316TCM     h1 1746   0.652   1.547   3.986
  316TCM    cl3 1747   0.585   1.739   3.860
  317TCM     c1 1748   4.041   3.284   1.248
  317TCM    cl1 1749   4.081   3.458   1.228
  317TCM    cl2 1750   3.928   3.233   1.119
  317TCM     h1 1751   4.133   3.225   1.242
  317TCM    cl3 1752   3.963   3.259   1.407
  318TCM     c1 1753   0.186   4.788   2.154
  318TCM    cl1 1754   0.292   4.645   2.178
  318TCM    cl2 1755   0.110   4.833   2.310
  318TCM     h1 1756   0.246   4.871   2.117
  318TCM    cl3 1757   0.058   4.748   2.035
  319TCM     c1 1758   1.024   2.305   1.711
  319TCM    cl1 1759   1.086   2.414   1.582
  319TCM    cl2 1760   1.021   2.393   1.867
  319TCM     h1 1761   0.923   2.271   1.685
  319TCM    cl3 1762   1.133   2.163   1.726
  320TCM     c1 1763   0.500   2.100   4.060
  320TCM    cl1 1764   0.666   2.068   4.001
  320TCM    cl2 1765   0.482   2.031   4.225
  320TCM     h1 1766   0.483   2.208   4.063
  320TCM    cl3 1767   0.381   2.024   3.950
  321TCM     c1 1768   0.872   0.623   4.811
  321TCM    cl1 1769   0.761   0.743   4.885
  321TCM    cl2 1770   0.983   0.557   4.935
  321TCM     h1 1771   0.814   0.542   4.767
  321TCM    cl3 1772   0.969   0.703   4.682
  322TCM     c1 1773   3.449   2.939   0.731
  322TCM    cl1 1774   3.469   3.060   0.862
  322TCM    cl2 1775   3.511   3.009   0.577
  322TCM     h1 1776   3.505   2.849   0.756
  322TCM    cl3 1777   3.276   2.898   0.708
  323TCM     c1 1778   3.493   4.705   2.860
  323TCM    cl1 1779   3.520   4.784   3.019
  323TCM    cl2 1780   3.398   4.814   2.754
  323TCM     h1 1781   3.589   4.683   2.813
  323TCM    cl3 1782   3.403   4.551   2.885
  324TCM     c1 1783   4.500   3.256   0.319
  324TCM    cl1 1784   4.343   3.342   0.304
  324TCM    cl2 1785   4.597   3.331   0.450
  324TCM     h1 1786   4.481   3.151   0.343
  324TCM    cl3 1787   4.591   3.267   0.165
  325TCM     c1 1788   4.435   2.775   2.628
  325TCM    cl1 1789   4.517   2.924   2.687
  325TCM    cl2 1790   4.269   2.766   2.696
  325TCM     h1 1791   4.430   2.777   2.519
  325TCM    cl3 1792   4.528   2.632   2.682
  326TCM     c1 1793   2.067   4.230   3.463
  326TCM    cl1 1794   2.185   4.115   3.395
  326TCM    cl2 1795   2.147   4.387   3.495
  326TCM     h1 1796   1.985   4.245   3.393
  326TCM    cl3 1797   2.002   4.165   3.618
  327TCM     c1 1798   3.315   2.054   0.962
  327TCM    cl1 1799   3.248   2.135   1.108
  327TCM    cl2 1800   3.329   2.172   0.828
  327TCM     h1 1801   3.414   2.013   0.985
  327TCM    cl3 1802   3.204   1.922   0.913
  328TCM     c1 1803   2.250   1.808   2.461
  328TCM    cl1 1804   2.312   1.944   2.559
  328TCM    cl2 1805   2.362   1.775   2.324
  328TCM     h1 1806   2.242   1.718   2.523
  328TCM    cl3 1807   2.088   1.851   2.397
  329TCM     c1 1808   2.694   2.813   3.247
  329TCM    cl1 1809   2.664   2.990   3.252
  329TCM    cl2 1810   2.576   2.736   3.136
  329TCM     h1 1811   2.796   2.795   3.211
  329TCM    cl3 1812   2.675   2.746   3.412
  330TCM     c1 1813   4.932   1.711   1.547
  330TCM    cl1 1814   4.881   1.787   1.393
  330TCM    cl2 1815   4.881   1.540   1.552
  330TCM     h1 1816   5.041   1.716   1.555
  330TCM    cl3 1817   4.858   1.799   1.685
  331TCM     c1 1818   1.553   0.959   3.493
  331TCM    cl1 1819   1.434   1.082   3.544
  331TCM    cl2 1820   1.624   0.882   3.638
  331TCM     h1 1821   1.503   0.883   3.432
  331TCM    cl3 1822   1.683   1.036   3.396
  332TCM     c1 1823   3.176   3.888   2.086
  332TCM    cl1 1824   3.132   3.791   2.230
  332TCM    cl2 1825   3.066   4.029   2.073
  332TCM     h1 1826   3.280   3.923   2.096
  332TCM    cl3 1827   3.161   3.787   1.938
  333TCM     c1 1828   1.811   3.426   0.323
  333TCM    cl1 1829   1.984   3.470   0.339
  333TCM    cl2 1830   1.719   3.569   0.264
  333TCM     h1 1831   1.801   3.344   0.250
  333TCM    cl3 1832   1.745   3.373   0.481
  334TCM     c1 1833   4.549   1.998   3.036
  334TCM    cl1 1834   4.648   2.012   2.887
  334TCM    cl2 1835   4.395   1.914   2.999
  334TCM     h1 1836   4.605   1.941   3.111
  334TCM    cl3 1837   4.513   2.162   3.101
  335TCM     c1 1838   2.413   3.778   1.043
  335TCM    cl1 1839   2.543   3.822   1.159
  335TCM    cl2 1840   2.457   3.840   0.881
  335TCM     h1 1841   2.403   3.669   1.039
  335TCM    cl3 1842   2.259   3.851   1.096
  336TCM     c1 1843   0.882   4.741   4.620
  336TCM    cl1 1844   1.006   4.812   4.729
  336TCM    cl2 1845   0.718   4.771   4.686
  336TCM     h1 1846   0.890   4.786   4.521
  336TCM    cl3 1847   0.909   4.564   4.607
  337TCM     c1 1848   3.372   3.187   3.548
  337TCM    cl1 1849   3.357   3.048   3.660
  337TCM    cl2 1850   3.232   3.189   3.436
  337TCM     h1 1851   3.374   3.280   3.605
  337TCM    cl3 1852   3.523   3.170   3.453
  338TCM     c1 1853   3.766   3.764   1.103
  338TCM    cl1 1854   3.937   3.803   1.065
  338TCM    cl2 1855   3.717   3.840   1.257
  338TCM     h1 1856   3.702   3.801   1.022
  338TCM    cl3 1857   3.749   3.585   1.117
  339TCM     c1 1858   2.451   0.973   3.692
  339TCM    cl1 1859   2.337   1.069   3.791
  339TCM    cl2 1860   2.395   0.967   3.522
  339TCM     h1 1861   2.550   1.019   3.696
  339TCM    cl3 1862   2.459   0.807   3.759
  340TCM     c1 1863   2.015   3.359   4.599
  340TCM    cl1 1864   1.889   3.249   4.664
  340TCM    cl2 1865   2.173   3.320   4.673
  340TCM     h1 1866   2.022   3.346   4.490
  340TCM    cl3 1867   1.970   3.529   4.637
  341TCM     c1 1868   4.060   3.732   3.018
  341TCM    cl1 1869   4.099   3.763   2.846
  341TCM    cl2 1870   3.888   3.685   3.034
  341TCM     h1 1871   4.124   3.652   3.056
  341TCM    cl3 1872   4.090   3.882   3.112
  342TCM     c1 1873   2.201   0.036   4.621
  342TCM    cl1 1874   2.247   0.090   4.456
  342TCM    cl2 1875   2.166  -0.139   4.620
  342TCM     h1 1876   2.284   0.056   4.690
  342TCM    cl3 1877   2.055   0.124   4.675
  343TCM     c1 1878   3.207   1.916   4.569
  343TCM    cl1 1879   3.217   2.032   4.432
  343TCM    cl2 1880   3.035   1.885   4.609
  343TCM     h1 1881   3.255   1.822   4.541
  343TCM    cl3 1882   3.290   1.987   4.712
  344TCM     c1 1883   0.247   0.593   3.831
  344TCM    cl1 1884   0.254   0.553   4.006
  344TCM    cl2 1885   0.097   0.525   3.760
  344TCM     h1 1886   0.248   0.701   3.818
  344TCM    cl3 1887   0.388   0.521   3.747
  345TCM     c1 1888   3.345   0.811   2.026
  345TCM    cl1 1889   3.451   0.904   1.915
  345TCM    cl2 1890   3.445   0.734   2.153
  345TCM     h1 1891   3.272   0.879   2.072
  345TCM    cl3 1892   3.258   0.684   1.934
  346TCM     c1 1893   2.822   4.837   2.541
  346TCM    cl1 1894   2.980   4.922   2.549
  346TCM    cl2 1895   2.811   4.746   2.387
  346TCM     h1 1896   2.815   4.767   2.624
  346TCM    cl3 1897   2.689   4.956   2.551
  347TCM     c1 1898   2.551   4.215   2.222
  347TCM    cl1 1899   2.602   4.108   2.357
  347TCM    cl2 1900   2.560   4.124   2.067
  347TCM     h1 1901   2.449   4.249   2.239
  347TCM    cl3 1902   2.662   4.356   2.214
  348TCM     c1 1903   0.658   0.799   2.257
  348TCM    cl1 1904   0.774   0.666   2.288
  348TCM    cl2 1905   0.686   0.862   2.092
  348TCM     h1 1906   0.555   0.761   2.265
  348TCM    cl3 1907   0.684   0.931   2.375
  349TCM     c1 1908   2.293   4.316   2.877
  349TCM    cl1 1909   2.236   4.261   3.038
  349TCM    cl2 1910   2.152   4.359   2.775
  349TCM     h1 1911   2.357   4.404   2.889
  349TCM    cl3 1912   2.387   4.184   2.799
  350TCM     c1 1913   4.058   1.885   4.748
  350TCM    cl1 1914   4.205   1.892   4.645
  350TCM    cl2 1915   3.922   1.816   4.654
  350TCM     h1 1916   4.078   1.822   4.835
  350TCM    cl3 1917   4.015   2.050   4.804
  351TCM     c1 1918   0.111   0.198   4.986
  351TCM    cl1 1919   0.053   0.313   5.111
  351TCM    cl2 1920   0.241   0.096   5.055
  351TCM     h1 1921   0.028   0.135   4.952
  351TCM    cl3 1922   0.177   0.292   4.848
  352TCM     c1 1923   3.759   3.474   0.209
  352TCM    cl1 1924   3.736   3.306   0.269
  352TCM    cl2 1925   3.783   3.584   0.348
  352TCM     h1 1926   3.846   3.478   0.143
  352TCM    cl3 1927   3.613   3.525   0.118
  353TCM     c1 1928   2.012   2.175   2.659
  353TCM    cl1 1929   1.965   2.200   2.488
  353TCM    cl2 1930   1.866   2.181   2.764
  353TCM     h1 1931   2.061   2.078   2.670
  353TCM    cl3 1932   2.126   2.305   2.709
  354TCM     c1 1933   1.966   4.048   1.476
  354TCM    cl1 1934   1.927   4.214   1.422
  354TCM    cl2 1935   2.091   4.054   1.605
  354TCM     h1 1936   1.876   4.000   1.515
  354TCM    cl3 1937   2.029   3.956   1.336
  355TCM     c1 1938   4.041   3.280   1.761
  355TCM    cl1 1939   4.158   3.151   1.715
  355TCM    cl2 1940   4.103   3.440   1.706
  355TCM     h1 1941   3.945   3.260   1.713
  355TCM    cl3 1942   4.020   3.281   1.939
  356TCM     c1 1943   2.284   4.436   0.489
  356TCM    cl1 1944   2.129   4.372   0.551
  356TCM    cl2 1945   2.417   4.327   0.541
  356TCM     h1 1946   2.281   4.439   0.380
  356TCM    cl3 1947   2.312   4.601   0.552
  357TCM     c1 1948   2.676   2.331   4.596
  357TCM    cl1 1949   2.516   2.268   4.545
  357TCM    cl2 1950   2.708   2.488   4.515
  357TCM     h1 1951   2.677   2.345   4.704
  357TCM    cl3 1952   2.804   2.213   4.551
  358TCM     c1 1953   1.534   2.982   2.189
  358TCM    cl1 1954   1.681   2.887   2.231
  358TCM    cl2 1955   1.558   3.153   2.238
  358TCM     h1 1956   1.517   2.976   2.081
  358TCM    cl3 1957   1.393   2.915   2.277
  359TCM     c1 1958   0.595   4.049   4.753
  359TCM    cl1 1959   0.687   3.962   4.880
  359TCM    cl2 1960   0.503   3.931   4.653
  359TCM     h1 1961   0.525   4.120   4.799
  359TCM    cl3 1962   0.709   4.138   4.647
  360TCM     c1 1963   0.132   2.224   1.564
  360TCM    cl1 1964   0.085   2.390   1.518
  360TCM    cl2 1965   0.241   2.155   1.439
  360TCM     h1 1966   0.183   2.225   1.661
  360TCM    cl3 1967  -0.015   2.122   1.574
  361TCM     c1 1968   4.206   0.646   4.070
  361TCM    cl1 1969   4.029   0.661   4.089
  361TCM    cl2 1970   4.260   0.490   4.140
  361TCM     h1 1971   4.232   0.649   3.963
  361TCM    cl3 1972   4.287   0.782   4.155
  362TCM     c1 1973   3.855   1.069   0.281
  362TCM    cl1 1974   3.851   0.940   0.157
  362TCM    cl2 1975   3.823   0.998   0.443
  362TCM     h1 1976   3.954   1.117   0.282
  362TCM    cl3 1977   3.730   1.191   0.243
  363TCM     c1 1978   1.901   1.390   3.577
  363TCM    cl1 1979   1.911   1.560   3.634
  363TCM    cl2 1980   1.918   1.386   3.399
  363TCM     h1 1981   1.981   1.332   3.624
  363TCM    cl3 1982   1.742   1.321   3.623
  364TCM     c1 1983   0.214   1.568   1.823
  364TCM    cl1 1984   0.054   1.588   1.902
  364TCM    cl2 1985   0.250   1.713   1.724
  364TCM     h1 1986   0.291   1.554   1.899
  364TCM    cl3 1987   0.210   1.424   1.715
  365TCM     c1 1988   1.679   0.277   3.157
  365TCM    cl1 1989   1.653   0.263   2.980
  365TCM    cl2 1990   1.530   0.342   3.233
  365TCM     h1 1991   1.701   0.178   3.199
  365TCM    cl3 1992   1.817   0.387   3.189
  366TCM     c1 1993   2.016   4.089   0.956
  366TCM    cl1 1994   2.158   4.105   0.847
  366TCM    cl2 1995   1.901   3.971   0.884
  366TCM     h1 1996   2.049   4.053   1.054
  366TCM    cl3 1997   1.935   4.248   0.973
  367TCM     c1 1998   3.402   1.623   4.200
  367TCM    cl1 1999   3.250   1.687   4.271
  367TCM    cl2 2000   3.380   1.601   4.023
  367TCM     h1 2001   3.484   1.693   4.218
  367TCM    cl3 2002   3.440   1.464   4.275
  368TCM     c1 2003   2.105   3.526   4.110
  368TCM    cl1 2004   2.124   3.377   4.208
  368TCM    cl2 2005   2.017   3.650   4.208
  368TCM     h1 2006   2.203   3.565   4.083
  368TCM    cl3 2007   2.012   3.490   3.961
  369TCM     c1 2008   2.918   0.404   4.658
  369TCM    cl1 2009   2.752   0.362   4.605
  369TCM    cl2 2010   2.928   0.396   4.838
  369TCM     h1 2011   2.990   0.333   4.615
  369TCM    cl3 2012   2.958   0.570   4.604
  370TCM     c1 2013   2.879   2.560   2.264
  370TCM    cl1 2014   3.017   2.598   2.372
  370TCM    cl2 2015   2.903   2.641   2.106
  370TCM     h1 2016   2.873   2.452   2.250
  370TCM    cl3 2017   2.726   2.618   2.338
  371TCM     c1 2018   4.551   4.131   0.604
  371TCM    cl1 2019   4.460   4.275   0.547
  371TCM    cl2 2020   4.722   4.145   0.552
  371TCM     h1 2021   4.547   4.125   0.713
  371TCM    cl3 2022   4.478   3.983   0.532
  372TCM     c1 2023   1.860   2.746   4.505
  372TCM    cl1 2024   1.704   2.832   4.487
  372TCM    cl2 2025   1.968   2.836   4.617
  372TCM     h1 2026   1.842   2.646   4.545
  372TCM    cl3 2027   1.939   2.733   4.345
  373TCM     c1 2028   2.599   3.938   4.230
  373TCM    cl1 2029   2.675   4.101   4.233
  373TCM    cl2 2030   2.474   3.930   4.359
  373TCM     h1 2031   2.552   3.921   4.133
  373TCM    cl3 2032   2.724   3.814   4.261
  374TCM     c1 2033   4.451   0.057   2.655
  374TCM    cl1 2034   4.450  -0.090   2.758
  374TCM    cl2 2035   4.292   0.138   2.665
  374TCM     h1 2036   4.530   0.125   2.689
  374TCM    cl3 2037   4.482   0.011   2.484
  375TCM     c1 2038   1.932   3.403   1.727
  375TCM    cl1 2039   1.954   3.350   1.557
  375TCM    cl2 2040   1.900   3.260   1.829
  375TCM     h1 2041   2.023   3.453   1.761
  375TCM    cl3 2042   1.795   3.518   1.737
  376TCM     c1 2043   3.435   0.549   1.124
  376TCM    cl1 2044   3.292   0.570   1.229
  376TCM    cl2 2045   3.388   0.458   0.976
  376TCM     h1 2046   3.474   0.647   1.095
  376TCM    cl3 2047   3.561   0.458   1.214
  377TCM     c1 2048   4.950   3.476   3.084
  377TCM    cl1 2049   4.976   3.599   2.956
  377TCM    cl2 2050   4.825   3.360   3.030
  377TCM     h1 2051   5.044   3.424   3.103
  377TCM    cl3 2052   4.895   3.558   3.234
  378TCM     c1 2053   2.800   2.608   4.885
  378TCM    cl1 2054   2.834   2.671   5.050
  378TCM    cl2 2055   2.627   2.562   4.875
  378TCM     h1 2056   2.822   2.686   4.811
  378TCM    cl3 2057   2.902   2.464   4.855
  379TCM     c1 2058   1.687   0.368   0.371
  379TCM    cl1 2059   1.678   0.526   0.457
  379TCM    cl2 2060   1.836   0.364   0.270
  379TCM     h1 2061   1.690   0.287   0.444
  379TCM    cl3 2062   1.544   0.350   0.264
  380TCM     c1 2063   2.699   0.168   2.083
  380TCM    cl1 2064   2.663   0.025   2.185
  380TCM    cl2 2065   2.841   0.254   2.151
  380TCM     h1 2066   2.721   0.135   1.981
  380TCM    cl3 2067   2.557   0.278   2.081
  381TCM     c1 2068   1.661   3.522   4.845
  381TCM    cl1 2069   1.604   3.487   4.678
  381TCM    cl2 2070   1.605   3.391   4.954
  381TCM     h1 2071   1.770   3.528   4.846
  381TCM    cl3 2072   1.591   3.678   4.899
  382TCM     c1 2073   0.618   2.476   0.648
  382TCM    cl1 2074   0.748   2.560   0.740
  382TCM    cl2 2075   0.458   2.526   0.710
  382TCM     h1 2076   0.626   2.503   0.542
  382TCM    cl3 2077   0.638   2.299   0.668
  383TCM     c1 2078   2.686   0.085   3.295
  383TCM    cl1 2079   2.734   0.202   3.168
  383TCM    cl2 2080   2.806  -0.049   3.298
  383TCM     h1 2081   2.683   0.134   3.393
  383TCM    cl3 2082   2.525   0.017   3.256
  384TCM     c1 2083   2.045   2.652   1.042
  384TCM    cl1 2084   2.172   2.688   0.920
  384TCM    cl2 2085   2.020   2.475   1.050
  384TCM     h1 2086   2.077   2.688   1.140
  384TCM    cl3 2087   1.892   2.732   0.996
  385TCM     c1 2088   3.057   4.988   4.109
  385TCM    cl1 2089   2.951   5.080   3.998
  385TCM    cl2 2090   3.122   4.844   4.024
  385TCM     h1 2091   3.140   5.051   4.142
  385TCM    cl3 2092   2.962   4.934   4.251
  386TCM     c1 2093   4.940   0.344   4.074
  386TCM    cl1 2094   5.072   0.255   4.155
  386TCM    cl2 2095   4.804   0.365   4.189
  386TCM     h1 2096   4.976   0.442   4.041
  386TCM    cl3 2097   4.883   0.251   3.931
  387TCM     c1 2098   2.380   2.401   3.740
  387TCM    cl1 2099   2.489   2.543   3.731
  387TCM    cl2 2100   2.427   2.281   3.615
  387TCM     h1 2101   2.387   2.355   3.839
  387TCM    cl3 2102   2.211   2.454   3.712
  388TCM     c1 2103   0.788   1.241   4.990
  388TCM    cl1 2104   0.765   1.143   4.841
  388TCM    cl2 2105   0.958   1.297   4.999
  388TCM     h1 2106   0.722   1.328   4.988
  388TCM    cl3 2107   0.750   1.140   5.133
  389TCM     c1 2108   4.569   2.750   1.869
  389TCM    cl1 2109   4.442   2.698   1.984
  389TCM    cl2 2110   4.713   2.806   1.961
  389TCM     h1 2111   4.598   2.666   1.805
  389TCM    cl3 2112   4.508   2.885   1.767
  390TCM     c1 2113   3.045   3.126   0.425
  390TCM    cl1 2114   2.991   3.262   0.321
  390TCM    cl2 2115   2.940   3.115   0.570
  390TCM     h1 2116   3.042   3.032   0.370
  390TCM    cl3 2117   3.212   3.158   0.481
  391TCM     c1 2118   2.551   4.620   1.300
  391TCM    cl1 2119   2.387   4.668   1.355
  391TCM    cl2 2120   2.538   4.525   1.149
  391TCM     h1 2121   2.611   4.710   1.282
  391TCM    cl3 2122   2.628   4.521   1.428
  392TCM     c1 2123   2.646   3.701   4.758
  392TCM    cl1 2124   2.735   3.660   4.607
  392TCM    cl2 2125   2.593   3.550   4.839
  392TCM     h1 2126   2.712   3.758   4.825
  392TCM    cl3 2127   2.502   3.800   4.717
  393TCM     c1 2128   3.791   3.778   2.540
  393TCM    cl1 2129   3.932   3.889   2.549
  393TCM    cl2 2130   3.801   3.659   2.674
  393TCM     h1 2131   3.699   3.836   2.549
  393TCM    cl3 2132   3.794   3.692   2.383
  394TCM     c1 2133   2.181   1.354   2.372
  394TCM    cl1 2134   2.082   1.258   2.487
  394TCM    cl2 2135   2.323   1.422   2.458
  394TCM     h1 2136   2.214   1.290   2.290
  394TCM    cl3 2137   2.080   1.488   2.308
  395TCM     c1 2138   4.815   2.228   0.618
  395TCM    cl1 2139   4.676   2.117   0.594
  395TCM    cl2 2140   4.834   2.265   0.793
  395TCM     h1 2141   4.906   2.180   0.581
  395TCM    cl3 2142   4.785   2.380   0.528
  396TCM     c1 2143   3.954   0.444   3.031
  396TCM    cl1 2144   3.879   0.400   3.188
  396TCM    cl2 2145   3.975   0.622   3.022
  396TCM     h1 2146   4.052   0.396   3.022
  396TCM    cl3 2147   3.848   0.391   2.896
  397TCM     c1 2148   4.811   2.229   0.197
  397TCM    cl1 2149   4.938   2.151   0.297
  397TCM    cl2 2150   4.746   2.111   0.079
  397TCM     h1 2151   4.730   2.264   0.262
  397TCM    cl3 2152   4.882   2.369   0.111
  398TCM     c1 2153   3.215   1.011   0.982
  398TCM    cl1 2154   3.158   1.053   0.817
  398TCM    cl2 2155   3.332   1.136   1.038
  398TCM     h1 2156   3.129   1.008   1.050
  398TCM    cl3 2157   3.295   0.851   0.979
  399TCM     c1 2158   2.669   4.172   4.831
  399TCM    cl1 2159   2.666   4.310   4.945
  399TCM    cl2 2160   2.508   4.156   4.753
  399TCM     h1 2161   2.745   4.188   4.755
  399TCM    cl3 2162   2.707   4.022   4.923
  400TCM     c1 2163   1.247   0.121   0.429
  400TCM    cl1 2164   1.406   0.113   0.511
  400TCM    cl2 2165   1.141  -0.010   0.491
  400TCM     h1 2166   1.200   0.218   0.448
  400TCM    cl3 2167   1.271   0.100   0.252
  401TCM     c1 2168   1.489   3.138   4.708
  401TCM    cl1 2169   1.326   3.066   4.730
  401TCM    cl2 2170   1.529   3.141   4.533
  401TCM     h1 2171   1.489   3.240   4.747
  401TCM    cl3 2172   1.610   3.039   4.795
  402TCM     c1 2173   1.207   2.151   2.095
  402TCM    cl1 2174   1.075   2.223   2.193
  402TCM    cl2 2175   1.189   1.972   2.095
  402TCM     h1 2176   1.202   2.188   1.993
  402TCM    cl3 2177   1.366   2.196   2.167
  403TCM     c1 2178   1.085   1.173   0.507
  403TCM    cl1 2179   1.046   1.251   0.350
  403TCM    cl2 2180   1.262   1.142   0.516
  403TCM     h1 2181   1.055   1.239   0.589
  403TCM    cl3 2182   0.997   1.018   0.520
  404TCM     c1 2183   0.467   0.399   3.261
  404TCM    cl1 2184   0.494   0.521   3.390
  404TCM    cl2 2185   0.305   0.425   3.188
  404TCM     h1 2186   0.544   0.408   3.184
  404TCM    cl3 2187   0.472   0.234   3.332
  405TCM     c1 2188   2.713   3.618   0.273
  405TCM    cl1 2189   2.889   3.650   0.286
  405TCM    cl2 2190   2.687   3.456   0.201
  405TCM     h1 2191   2.666   3.623   0.372
  405TCM    cl3 2192   2.640   3.740   0.163
  406TCM     c1 2193   4.963   1.736   0.766
  406TCM    cl1 2194   4.826   1.681   0.868
  406TCM    cl2 2195   4.963   1.915   0.758
  406TCM     h1 2196   5.057   1.701   0.809
  406TCM    cl3 2197   4.943   1.670   0.601
  407TCM     c1 2198   3.198   4.499   3.951
  407TCM    cl1 2199   3.096   4.525   3.806
  407TCM    cl2 2200   3.353   4.587   3.933
  407TCM     h1 2201   3.145   4.536   4.040
  407TCM    cl3 2202   3.231   4.324   3.968
  408TCM     c1 2203   0.291   3.180   3.308
  408TCM    cl1 2204   0.345   3.009   3.296
  408TCM    cl2 2205   0.130   3.198   3.231
  408TCM     h1 2206   0.285   3.208   3.413
  408TCM    cl3 2207   0.409   3.286   3.224
  409TCM     c1 2208   2.798   0.525   1.894
  409TCM    cl1 2209   2.908   0.642   1.814
  409TCM    cl2 2210   2.805   0.368   1.805
  409TCM     h1 2211   2.829   0.510   1.997
  409TCM    cl3 2212   2.630   0.587   1.889
  410TCM     c1 2213   4.610   4.648   4.293
  410TCM    cl1 2214   4.636   4.564   4.137
  410TCM    cl2 2215   4.543   4.533   4.413
  410TCM     h1 2216   4.705   4.689   4.330
  410TCM    cl3 2217   4.493   4.782   4.269
  411TCM     c1 2218   3.791   0.765   2.257
  411TCM    cl1 2219   3.808   0.612   2.165
  411TCM    cl2 2220   3.776   0.903   2.143
  411TCM     h1 2221   3.702   0.760   2.320
  411TCM    cl3 2222   3.936   0.790   2.360
  412TCM     c1 2223   2.290   4.683   2.253
  412TCM    cl1 2224   2.187   4.657   2.397
  412TCM    cl2 2225   2.326   4.525   2.175
  412TCM     h1 2226   2.239   4.749   2.182
  412TCM    cl3 2227   2.445   4.758   2.304
  413TCM     c1 2228   2.256   2.304   0.807
  413TCM    cl1 2229   2.205   2.166   0.705
  413TCM    cl2 2230   2.290   2.446   0.702
  413TCM     h1 2231   2.177   2.329   0.879
  413TCM    cl3 2232   2.406   2.260   0.895
  414TCM     c1 2233   1.989   4.345   0.186
  414TCM    cl1 2234   1.820   4.353   0.247
  414TCM    cl2 2235   2.069   4.504   0.211
  414TCM     h1 2236   2.044   4.268   0.240
  414TCM    cl3 2237   1.987   4.308   0.010
  415TCM     c1 2238   3.467   1.077   2.409
  415TCM    cl1 2239   3.581   1.162   2.301
  415TCM    cl2 2240   3.548   0.930   2.474
  415TCM     h1 2241   3.438   1.142   2.492
  415TCM    cl3 2242   3.322   1.029   2.316
  416TCM     c1 2243   3.649   3.919   0.708
  416TCM    cl1 2244   3.666   3.748   0.759
  416TCM    cl2 2245   3.805   4.003   0.736
  416TCM     h1 2246   3.623   3.923   0.602
  416TCM    cl3 2247   3.521   3.998   0.805
  417TCM     c1 2248   1.818   3.876   1.852
  417TCM    cl1 2249   1.989   3.857   1.904
  417TCM    cl2 2250   1.788   4.047   1.805
  417TCM     h1 2251   1.799   3.811   1.767
  417TCM    cl3 2252   1.710   3.832   1.988
  418TCM     c1 2253   4.693   2.514   2.996
  418TCM    cl1 2254   4.743   2.463   3.161
  418TCM    cl2 2255   4.718   2.379   2.881
  418TCM     h1 2256   4.587   2.542   2.998
  418TCM    cl3 2257   4.791   2.655   2.945
  419TCM     c1 2258   1.481   0.893   2.164
  419TCM    cl1 2259   1.478   1.072   2.171
  419TCM    cl2 2260   1.319   0.832   2.118
  419TCM     h1 2261   1.555   0.861   2.090
  419TCM    cl3 2262   1.527   0.829   2.326
  420TCM     c1 2263   0.853   3.984   0.273
  420TCM    cl1 2264   0.864   4.129   0.168
  420TCM    cl2 2265   0.769   4.030   0.426
  420TCM     h1 2266   0.796   3.906   0.222
  420TCM    cl3 2267   1.017   3.923   0.313
  421TCM     c1 2268   3.068   2.653   0.528
  421TCM    cl1 2269   3.025   2.621   0.357
  421TCM    cl2 2270   3.064   2.500   0.620
  421TCM     h1 2271   3.169   2.697   0.533
  421TCM    cl3 2272   2.949   2.768   0.597
  422TCM     c1 2273   0.587   1.815   2.426
  422TCM    cl1 2274   0.639   1.956   2.328
  422TCM    cl2 2275   0.415   1.777   2.391
  422TCM     h1 2276   0.649   1.729   2.401
  422TCM    cl3 2277   0.605   1.854   2.600
  423TCM     c1 2278   2.340   0.533   4.526
  423TCM    cl1 2279   2.421   0.416   4.416
  423TCM    cl2 2280   2.459   0.591   4.647
  423TCM     h1 2281   2.303   0.618   4.467
  423TCM    cl3 2282   2.203   0.453   4.609
  424TCM     c1 2283   0.099   4.009   3.923
  424TCM    cl1 2284   0.249   4.097   3.968
  424TCM    cl2 2285   0.004   3.974   4.071
  424TCM     h1 2286   0.040   4.071   3.855
  424TCM    cl3 2287   0.143   3.855   3.842
  425TCM     c1 2288   4.869   4.028   1.051
  425TCM    cl1 2289   4.918   4.150   1.173
  425TCM    cl2 2290   5.010   3.987   0.948
  425TCM     h1 2291   4.833   3.938   1.102
  425TCM    cl3 2292   4.739   4.096   0.948
  426TCM     c1 2293   2.344   2.134   0.350
  426TCM    cl1 2294   2.172   2.178   0.327
  426TCM    cl2 2295   2.430   2.273   0.425
  426TCM     h1 2296   2.352   2.047   0.415
  426TCM    cl3 2297   2.419   2.098   0.191
  427TCM     c1 2298   3.228   2.245   2.131
  427TCM    cl1 2299   3.322   2.367   2.039
  427TCM    cl2 2300   3.053   2.280   2.115
  427TCM     h1 2301   3.249   2.145   2.092
  427TCM    cl3 2302   3.275   2.254   2.304
  428TCM     c1 2303   3.955   1.149   4.874
  428TCM    cl1 2304   3.999   1.260   5.008
  428TCM    cl2 2305   4.099   1.052   4.829
  428TCM     h1 2306   3.875   1.082   4.907
  428TCM    cl3 2307   3.900   1.244   4.733
  429TCM     c1 2308   0.702   1.840   4.462
  429TCM    cl1 2309   0.625   1.933   4.595
  429TCM    cl2 2310   0.775   1.691   4.530
  429TCM     h1 2311   0.626   1.813   4.388
  429TCM    cl3 2312   0.829   1.940   4.385
  430TCM     c1 2313   0.187   0.186   2.096
  430TCM    cl1 2314   0.198   0.095   1.942
  430TCM    cl2 2315   0.309   0.124   2.212
  430TCM     h1 2316   0.205   0.292   2.078
  430TCM    cl3 2317   0.023   0.163   2.165
  431TCM     c1 2318   3.458   0.102   0.895
  431TCM    cl1 2319   3.465   0.105   1.074
  431TCM    cl2 2320   3.411  -0.062   0.840
  431TCM     h1 2321   3.384   0.175   0.860
  431TCM    cl3 2322   3.619   0.143   0.828
  432TCM     c1 2323   2.898   1.863   3.600
  432TCM    cl1 2324   3.027   1.978   3.553
  432TCM    cl2 2325   2.945   1.778   3.750
  432TCM     h1 2326   2.805   1.918   3.616
  432TCM    cl3 2327   2.875   1.743   3.468
  433TCM     c1 2328   3.408   2.724   3.461
  433TCM    cl1 2329   3.570   2.800   3.471
  433TCM    cl2 2330   3.422   2.562   3.386
  433TCM     h1 2331   3.366   2.714   3.562
  433TCM    cl3 2332   3.300   2.828   3.362
  434TCM     c1 2333   3.008   4.167   1.565
  434TCM    cl1 2334   2.913   4.319   1.554
  434TCM    cl2 2335   2.990   4.074   1.413
  434TCM     h1 2336   3.113   4.191   1.581
  434TCM    cl3 2337   2.948   4.068   1.703
  435TCM     c1 2338   0.326   1.091   3.969
  435TCM    cl1 2339   0.413   1.065   4.124
  435TCM    cl2 2340   0.222   0.948   3.935
  435TCM     h1 2341   0.263   1.180   3.977
  435TCM    cl3 2342   0.443   1.112   3.835
  436TCM     c1 2343   0.430   1.831   1.387
  436TCM    cl1 2344   0.497   1.876   1.227
  436TCM    cl2 2345   0.510   1.681   1.444
  436TCM     h1 2346   0.449   1.912   1.459
  436TCM    cl3 2347   0.253   1.803   1.372
  437TCM     c1 2348   4.822   2.605   1.178
  437TCM    cl1 2349   4.862   2.601   1.003
  437TCM    cl2 2350   4.658   2.675   1.199
  437TCM     h1 2351   4.824   2.504   1.218
  437TCM    cl3 2352   4.941   2.708   1.264
  438TCM     c1 2353   0.913   3.385   4.986
  438TCM    cl1 2354   0.773   3.344   5.090
  438TCM    cl2 2355   0.924   3.563   4.971
  438TCM     h1 2356   1.005   3.345   5.030
  438TCM    cl3 2357   0.888   3.313   4.823
  439TCM     c1 2358   3.398   0.989   1.366
  439TCM    cl1 2359   3.228   0.936   1.340
  439TCM    cl2 2360   3.510   0.862   1.308
  439TCM     h1 2361   3.416   1.081   1.310
  439TCM    cl3 2362   3.425   1.019   1.541
  440TCM     c1 2363   3.586   1.676   4.628
  440TCM    cl1 2364   3.662   1.527   4.562
  440TCM    cl2 2365   3.430   1.634   4.707
  440TCM     h1 2366   3.653   1.722   4.701
  440TCM    cl3 2367   3.554   1.791   4.494
  441TCM     c1 2368   0.346   3.865   4.330
  441TCM    cl1 2369   0.199   3.920   4.417
  441TCM    cl2 2370   0.438   4.007   4.270
  441TCM     h1 2371   0.408   3.807   4.398
  441TCM    cl3 2372   0.296   3.762   4.192
  442TCM     c1 2373   3.459   3.073   0.209
  442TCM    cl1 2374   3.567   3.033   0.072
  442TCM    cl2 2375   3.344   2.938   0.235
  442TCM     h1 2376   3.518   3.090   0.300
  442TCM    cl3 2377   3.367   3.222   0.169
  443TCM     c1 2378   0.824   2.103   1.359
  443TCM    cl1 2379   0.766   1.967   1.460
  443TCM    cl2 2380   1.003   2.112   1.367
  443TCM     h1 2381   0.793   2.088   1.255
  443TCM    cl3 2382   0.754   2.256   1.421
  444TCM     c1 2383   4.198   4.862   0.205
  444TCM    cl1 2384   4.072   4.988   0.219
  444TCM    cl2 2385   4.332   4.900   0.318
  444TCM     h1 2386   4.155   4.764   0.230
  444TCM    cl3 2387   4.259   4.859   0.037
  445TCM     c1 2388   4.383   1.078   0.180
  445TCM    cl1 2389   4.402   1.169   0.027
  445TCM    cl2 2390   4.214   1.018   0.193
  445TCM     h1 2391   4.452   0.994   0.183
  445TCM    cl3 2392   4.416   1.188   0.318
  446TCM     c1 2393   3.002   0.540   3.286
  446TCM    cl1 2394   2.870   0.544   3.165
  446TCM    cl2 2395   2.976   0.670   3.407
  446TCM     h1 2396   3.002   0.443   3.337
  446TCM    cl3 2397   3.160   0.566   3.205
  447TCM     c1 2398   4.259   1.413   4.788
  447TCM    cl1 2399   4.420   1.489   4.811
  447TCM    cl2 2400   4.253   1.334   4.627
  447TCM     h1 2401   4.243   1.338   4.866
  447TCM    cl3 2402   4.131   1.538   4.799
  448TCM     c1 2403   4.849   2.009   3.511
  448TCM    cl1 2404   4.693   1.982   3.424
  448TCM    cl2 2405   4.890   2.183   3.507
  448TCM     h1 2406   4.839   1.976   3.614
  448TCM    cl3 2407   4.979   1.916   3.430
  449TCM     c1 2408   4.901   4.690   3.680
  449TCM    cl1 2409   4.857   4.543   3.588
  449TCM    cl2 2410   5.080   4.703   3.688
  449TCM     h1 2411   4.861   4.778   3.630
  449TCM    cl3 2412   4.834   4.679   3.846
  450TCM     c1 2413   3.374   0.348   3.566
  450TCM    cl1 2414   3.208   0.418   3.572
  450TCM    cl2 2415   3.453   0.399   3.414
  450TCM     h1 2416   3.432   0.384   3.652
  450TCM    cl3 2417   3.365   0.169   3.572
  451TCM     c1 2418   3.626   3.457   1.590
  451TCM    cl1 2419   3.738   3.543   1.480
  451TCM    cl2 2420   3.712   3.415   1.741
  451TCM     h1 2421   3.541   3.522   1.613
  451TCM    cl3 2422   3.568   3.308   1.509
  452TCM     c1 2423   0.488   4.879   1.090
  452TCM    cl1 2424   0.454   4.884   1.266
  452TCM    cl2 2425   0.526   4.711   1.039
  452TCM     h1 2426   0.400   4.915   1.035
  452TCM    cl3 2427   0.627   4.986   1.052
  453TCM     c1 2428   2.020   3.633   3.597
  453TCM    cl1 2429   2.152   3.535   3.525
  453TCM    cl2 2430   1.872   3.532   3.611
  453TCM     h1 2431   2.050   3.666   3.697
  453TCM    cl3 2432   1.986   3.775   3.494
  454TCM     c1 2433   4.468   3.718   1.110
  454TCM    cl1 2434   4.500   3.548   1.155
  454TCM    cl2 2435   4.566   3.829   1.213
  454TCM     h1 2436   4.494   3.735   1.005
  454TCM    cl3 2437   4.294   3.751   1.136
  455TCM     c1 2438   2.970   3.967   4.542
  455TCM    cl1 2439   2.798   4.013   4.556
  455TCM    cl2 2440   3.025   3.901   4.700
  455TCM     h1 2441   2.982   3.891   4.465
  455TCM    cl3 2442   3.067   4.112   4.501
  456TCM     c1 2443   1.551   1.973   4.887
  456TCM    cl1 2444   1.403   2.007   4.791
  456TCM    cl2 2445   1.691   2.056   4.811
  456TCM     h1 2446   1.538   2.009   4.989
  456TCM    cl3 2447   1.581   1.796   4.890
  457TCM     c1 2448   1.494   3.222   1.703
  457TCM    cl1 2449   1.468   3.393   1.655
  457TCM    cl2 2450   1.548   3.216   1.874
  457TCM     h1 2451   1.400   3.167   1.693
  457TCM    cl3 2452   1.619   3.148   1.598
  458TCM     c1 2453   1.900   4.572   1.420
  458TCM    cl1 2454   2.043   4.654   1.491
  458TCM    cl2 2455   1.928   4.545   1.244
  458TCM     h1 2456   1.884   4.477   1.470
  458TCM    cl3 2457   1.755   4.676   1.440
  459TCM     c1 2458   3.909   4.122   3.533
  459TCM    cl1 2459   3.954   4.287   3.587
  459TCM    cl2 2460   3.756   4.074   3.612
  459TCM     h1 2461   3.897   4.120   3.424
  459TCM    cl3 2462   4.038   4.007   3.581
  460TCM     c1 2463   0.529   0.925   3.440
  460TCM    cl1 2464   0.432   1.064   3.381
  460TCM    cl2 2465   0.441   0.845   3.575
  460TCM     h1 2466   0.544   0.853   3.359
  460TCM    cl3 2467   0.688   0.984   3.499
  461TCM     c1 2468   1.707   4.256   0.582
  461TCM    cl1 2469   1.765   4.421   0.625
  461TCM    cl2 2470   1.591   4.200   0.707
  461TCM     h1 2471   1.658   4.259   0.485
  461TCM    cl3 2472   1.846   4.143   0.577
  462TCM     c1 2473   3.200   4.952   4.991
  462TCM    cl1 2474   3.031   5.013   4.977
  462TCM    cl2 2475   3.233   4.840   4.855
  462TCM     h1 2476   3.270   5.036   4.988
  462TCM    cl3 2477   3.218   4.866   5.148
  463TCM     c1 2478   3.504   0.642   3.150
  463TCM    cl1 2479   3.419   0.764   3.052
  463TCM    cl2 2480   3.662   0.708   3.203
  463TCM     h1 2481   3.444   0.617   3.238
  463TCM    cl3 2482   3.531   0.494   3.052
  464TCM     c1 2483   4.777   4.303   3.906
  464TCM    cl1 2484   4.785   4.222   3.746
  464TCM    cl2 2485   4.943   4.343   3.961
  464TCM     h1 2486   4.717   4.394   3.898
  464TCM    cl3 2487   4.701   4.191   4.025
  465TCM     c1 2488   4.202   1.487   0.325
  465TCM    cl1 2489   4.136   1.649   0.364
  465TCM    cl2 2490   4.246   1.482   0.151
  465TCM     h1 2491   4.290   1.467   0.386
  465TCM    cl3 2492   4.076   1.363   0.357
  466TCM     c1 2493   0.468   0.401   2.629
  466TCM    cl1 2494   0.616   0.468   2.552
  466TCM    cl2 2495   0.351   0.352   2.502
  466TCM     h1 2496   0.495   0.314   2.689
  466TCM    cl3 2497   0.394   0.526   2.734
  467TCM     c1 2498   0.328   1.983   2.045
  467TCM    cl1 2499   0.363   1.807   2.043
  467TCM    cl2 2500   0.224   2.027   1.906
  467TCM     h1 2501   0.278   2.010   2.139
  467TCM    cl3 2502   0.483   2.074   2.032
  468TCM     c1 2503   3.420   2.156   1.515
  468TCM    cl1 2504   3.475   2.276   1.394
  468TCM    cl2 2505   3.353   2.013   1.431
  468TCM     h1 2506   3.505   2.127   1.577
  468TCM    cl3 2507   3.293   2.229   1.618
  469TCM     c1 2508   2.577   0.745   4.204
  469TCM    cl1 2509   2.534   0.624   4.078
  469TCM    cl2 2510   2.688   0.669   4.324
  469TCM     h1 2511   2.626   0.831   4.158
  469TCM    cl3 2512   2.428   0.798   4.289
  470TCM     c1 2513   4.402   2.323   4.837
  470TCM    cl1 2514   4.294   2.425   4.938
  470TCM    cl2 2515   4.370   2.150   4.872
  470TCM     h1 2516   4.383   2.343   4.732
  470TCM    cl3 2517   4.574   2.359   4.876
  471TCM     c1 2518   3.628   0.628   2.728
  471TCM    cl1 2519   3.453   0.664   2.707
  471TCM    cl2 2520   3.710   0.771   2.799
  471TCM     h1 2521   3.639   0.542   2.794
  471TCM    cl3 2522   3.699   0.590   2.568
  472TCM     c1 2523   3.079   1.856   3.166
  472TCM    cl1 2524   3.103   1.806   2.995
  472TCM    cl2 2525   2.948   1.977   3.173
  472TCM     h1 2526   3.052   1.769   3.227
  472TCM    cl3 2527   3.231   1.928   3.230
  473TCM     c1 2528   3.565   1.511   1.375
  473TCM    cl1 2529   3.722   1.519   1.462
  473TCM    cl2 2530   3.440   1.597   1.469
  473TCM     h1 2531   3.576   1.558   1.277
  473TCM    cl3 2532   3.517   1.340   1.353
  474TCM     c1 2533   0.250   3.143   1.151
  474TCM    cl1 2534   0.246   3.300   1.239
  474TCM    cl2 2535   0.312   3.016   1.261
  474TCM     h1 2536   0.149   3.117   1.117
  474TCM    cl3 2537   0.359   3.158   1.009
  475TCM     c1 2538   2.438   3.581   4.409
  475TCM    cl1 2539   2.282   3.624   4.486
  475TCM    cl2 2540   2.424   3.600   4.232
  475TCM     h1 2541   2.517   3.647   4.446
  475TCM    cl3 2542   2.480   3.411   4.448
  476TCM     c1 2543   1.509   1.438   1.857
  476TCM    cl1 2544   1.560   1.590   1.936
  476TCM    cl2 2545   1.604   1.418   1.705
  476TCM     h1 2546   1.528   1.353   1.924
  476TCM    cl3 2547   1.335   1.445   1.816
  477TCM     c1 2548   4.423   2.413   0.286
  477TCM    cl1 2549   4.565   2.502   0.222
  477TCM    cl2 2550   4.426   2.417   0.465
  477TCM     h1 2551   4.331   2.459   0.249
  477TCM    cl3 2552   4.433   2.242   0.231
  478TCM     c1 2553   2.841   4.476   3.352
  478TCM    cl1 2554   2.772   4.597   3.239
  478TCM    cl2 2555   2.711   4.362   3.401
  478TCM     h1 2556   2.921   4.420   3.302
  478TCM    cl3 2557   2.906   4.560   3.496
  479TCM     c1 2558   4.898   3.709   0.212
  479TCM    cl1 2559   4.841   3.549   0.271
  479TCM    cl2 2560   4.849   3.837   0.328
  479TCM     h1 2561   5.007   3.708   0.204
  479TCM    cl3 2562   4.829   3.743   0.050
  480TCM     c1 2563   1.019   2.487   3.009
  480TCM    cl1 2564   0.961   2.614   3.123
  480TCM    cl2 2565   0.882   2.382   2.963
  480TCM     h1 2566   1.061   2.534   2.920
  480TCM    cl3 2567   1.146   2.388   3.090
  481TCM     c1 2568   2.633   2.600   1.218
  481TCM    cl1 2569   2.654   2.779   1.223
  481TCM    cl2 2570   2.505   2.559   1.099
  481TCM     h1 2571   2.727   2.553   1.188
  481TCM    cl3 2572   2.584   2.542   1.380
  482TCM     c1 2573   4.714   3.233   3.516
  482TCM    cl1 2574   4.769   3.188   3.351
  482TCM    cl2 2575   4.543   3.183   3.538
  482TCM     h1 2576   4.776   3.184   3.590
  482TCM    cl3 2577   4.724   3.411   3.536
  483TCM     c1 2578   2.349   4.661   3.197
  483TCM    cl1 2579   2.413   4.503   3.253
  483TCM    cl2 2580   2.216   4.712   3.306
  483TCM     h1 2581   2.429   4.736   3.199
  483TCM    cl3 2582   2.287   4.643   3.030
  484TCM     c1 2583   4.970   2.497   4.033
  484TCM    cl1 2584   5.010   2.659   3.968
  484TCM    cl2 2585   4.810   2.504   4.114
  484TCM     h1 2586   4.967   2.424   3.951
  484TCM    cl3 2587   5.096   2.448   4.152
  485TCM     c1 2588   2.520   2.003   3.403
  485TCM    cl1 2589   2.525   1.876   3.530
  485TCM    cl2 2590   2.485   1.928   3.244
  485TCM     h1 2591   2.443   2.076   3.427
  485TCM    cl3 2592   2.680   2.085   3.396
  486TCM     c1 2593   1.828   0.372   3.842
  486TCM    cl1 2594   1.903   0.297   3.986
  486TCM    cl2 2595   1.814   0.549   3.868
  486TCM     h1 2596   1.891   0.354   3.755
  486TCM    cl3 2597   1.666   0.302   3.814
  487TCM     c1 2598   0.782   0.038   0.656
  487TCM    cl1 2599   0.710   0.173   0.750
  487TCM    cl2 2600   0.775   0.075   0.481
  487TCM     h1 2601   0.887   0.024   0.685
  487TCM    cl3 2602   0.691  -0.114   0.689
  488TCM     c1 2603   3.739   0.959   3.489
  488TCM    cl1 2604   3.599   1.056   3.547
  488TCM    cl2 2605   3.727   0.793   3.555
  488TCM     h1 2606   3.739   0.956   3.380
  488TCM    cl3 2607   3.891   1.035   3.548
  489TCM     c1 2608   3.191   4.704   3.164
  489TCM    cl1 2609   3.113   4.545   3.135
  489TCM    cl2 2610   3.122   4.778   3.312
  489TCM     h1 2611   3.299   4.690   3.175
  489TCM    cl3 2612   3.157   4.811   3.025
  490TCM     c1 2613   2.219   1.998   2.996
  490TCM    cl1 2614   2.117   1.906   2.880
  490TCM    cl2 2615   2.120   2.126   3.074
  490TCM     h1 2616   2.257   1.930   3.072
  490TCM    cl3 2617   2.356   2.073   2.909
  491TCM     c1 2618   1.393   0.593   0.055
  491TCM    cl1 2619   1.497   0.695   0.159
  491TCM    cl2 2620   1.331   0.690  -0.083
  491TCM     h1 2621   1.451   0.509   0.017
  491TCM    cl3 2622   1.254   0.531   0.152
  492TCM     c1 2623   2.040   4.201   4.197
  492TCM    cl1 2624   1.943   4.213   4.046
  492TCM    cl2 2625   2.061   4.364   4.269
  492TCM     h1 2626   1.989   4.135   4.268
  492TCM    cl3 2627   2.201   4.133   4.157
  493TCM     c1 2628   0.554   3.571   4.904
  493TCM    cl1 2629   0.642   3.607   4.752
  493TCM    cl2 2630   0.467   3.415   4.887
  493TCM     h1 2631   0.626   3.564   4.987
  493TCM    cl3 2632   0.437   3.702   4.939
  494TCM     c1 2633   4.932   2.709   1.619
  494TCM    cl1 2634   4.794   2.595   1.608
  494TCM    cl2 2635   5.011   2.693   1.780
  494TCM     h1 2636   5.005   2.685   1.541
  494TCM    cl3 2637   4.872   2.876   1.597
  495TCM     c1 2638   3.119   0.998   3.362
  495TCM    cl1 2639   3.239   1.122   3.412
  495TCM    cl2 2640   3.145   0.959   3.189
  495TCM     h1 2641   3.132   0.907   3.422
  495TCM    cl3 2642   2.953   1.062   3.384
  496TCM     c1 2643   4.918   1.231   1.935
  496TCM    cl1 2644   5.084   1.223   2.000
  496TCM    cl2 2645   4.810   1.124   2.031
  496TCM     h1 2646   4.882   1.334   1.941
  496TCM    cl3 2647   4.917   1.179   1.763
  497TCM     c1 2648   1.408   4.709   1.305
  497TCM    cl1 2649   1.405   4.618   1.151
  497TCM    cl2 2650   1.359   4.602   1.440
  497TCM     h1 2651   1.509   4.748   1.323
  497TCM    cl3 2652   1.293   4.847   1.293
  498TCM     c1 2653   2.515   2.926   3.693
  498TCM    cl1 2654   2.672   2.878   3.763
  498TCM    cl2 2655   2.536   3.076   3.596
  498TCM     h1 2656   2.477   2.846   3.628
  498TCM    cl3 2657   2.397   2.957   3.825
  499TCM     c1 2658   4.775   3.037   1.201
  499TCM    cl1 2659   4.822   3.004   1.032
  499TCM    cl2 2660   4.652   3.168   1.204
  499TCM     h1 2661   4.733   2.947   1.246
  499TCM    cl3 2662   4.920   3.089   1.293
  500TCM     c1 2663   1.674   0.076   0.074
  500TCM    cl1 2664   1.577  -0.036  -0.028
  500TCM    cl2 2665   1.843   0.080   0.016
  500TCM     h1 2666   1.631   0.176   0.068
  500TCM    cl3 2667   1.670   0.020   0.244
  501TCM     c1 2668   0.738   1.639   2.912
  501TCM    cl1 2669   0.841   1.491   2.907
  501TCM    cl2 2670   0.839   1.782   2.872
  501TCM     h1 2671   0.657   1.630   2.839
  501TCM    cl3 2672   0.668   1.658   3.076
  502TCM     c1 2673   2.531   3.545   2.203
  502TCM    cl1 2674   2.587   3.379   2.164
  502TCM    cl2 2675   2.531   3.569   2.380
  502TCM     h1 2676   2.598   3.617   2.156
  502TCM    cl3 2677   2.365   3.569   2.139
  503TCM     c1 2678   1.366   0.373   2.780
  503TCM    cl1 2679   1.245   0.269   2.696
  503TCM    cl2 2680   1.295   0.437   2.932
  503TCM     h1 2681   1.455   0.314   2.802
  503TCM    cl3 2682   1.410   0.511   2.674
  504TCM     c1 2683   4.883   4.984   2.616
  504TCM    cl1 2684   4.802   4.847   2.533
  504TCM    cl2 2685   4.791   5.029   2.763
  504TCM     h1 2686   4.984   4.954   2.644
  504TCM    cl3 2687   4.890   5.125   2.506
  505TCM     c1 2688   2.334   3.884   3.126
  505TCM    cl1 2689   2.223   3.898   2.986
  505TCM    cl2 2690   2.493   3.822   3.070
  505TCM     h1 2691   2.347   3.982   3.173
  505TCM    cl3 2692   2.265   3.769   3.245
  506TCM     c1 2693   0.131   4.603   0.165
  506TCM    cl1 2694   0.211   4.716   0.051
  506TCM    cl2 2695   0.167   4.433   0.121
  506TCM     h1 2696   0.166   4.623   0.267
  506TCM    cl3 2697  -0.046   4.628   0.158
  507TCM     c1 2698   1.268   3.830   0.008
  507TCM    cl1 2699   1.105   3.888  -0.042
  507TCM    cl2 2700   1.252   3.666   0.080
  507TCM     h1 2701   1.334   3.825  -0.079
  507TCM    cl3 2702   1.337   3.941   0.130
  508TCM     c1 2703   0.326   1.730   3.358
  508TCM    cl1 2704   0.179   1.628   3.339
  508TCM    cl2 2705   0.341   1.781   3.529
  508TCM     h1 2706   0.414   1.672   3.329
  508TCM    cl3 2707   0.311   1.875   3.253
  509TCM     c1 2708   4.387   0.002   4.596
  509TCM    cl1 2709   4.389   0.098   4.747
  509TCM    cl2 2710   4.224   0.007   4.522
  509TCM     h1 2711   4.460   0.042   4.525
  509TCM    cl3 2712   4.430  -0.168   4.635
  510TCM     c1 2713   4.136   2.392   2.340
  510TCM    cl1 2714   4.186   2.224   2.382
  510TCM    cl2 2715   4.234   2.508   2.435
  510TCM     h1 2716   4.151   2.409   2.234
  510TCM    cl3 2717   3.962   2.413   2.380
  511TCM     c1 2718   3.092   4.626   1.624
  511TCM    cl1 2719   3.205   4.546   1.510
  511TCM    cl2 2720   3.133   4.801   1.635
  511TCM     h1 2721   2.990   4.614   1.588
  511TCM    cl3 2722   3.107   4.551   1.787
  512TCM     c1 2723   0.064   4.852   0.795
  512TCM    cl1 2724  -0.017   5.010   0.768
  512TCM    cl2 2725  -0.055   4.720   0.774
  512TCM     h1 2726   0.145   4.840   0.723
  512TCM    cl3 2727   0.130   4.845   0.962
  513TCM     c1 2728   3.763   4.699   0.090
  513TCM    cl1 2729   3.734   4.596   0.234
  513TCM    cl2 2730   3.932   4.677   0.033
  513TCM     h1 2731   3.694   4.671   0.010
  513TCM    cl3 2732   3.737   4.871   0.133
  514TCM     c1 2733   0.689   4.995   2.241
  514TCM    cl1 2734   0.658   5.159   2.307
  514TCM    cl2 2735   0.675   4.999   2.062
  514TCM     h1 2736   0.790   4.962   2.269
  514TCM    cl3 2737   0.568   4.879   2.306
  515TCM     c1 2738   2.628   4.870   4.449
  515TCM    cl1 2739   2.479   4.781   4.405
  515TCM    cl2 2740   2.753   4.754   4.505
  515TCM     h1 2741   2.666   4.924   4.362
  515TCM    cl3 2742   2.591   4.985   4.581
  516TCM     c1 2743   4.152   3.778   1.560
  516TCM    cl1 2744   4.033   3.759   1.427
  516TCM    cl2 2745   4.147   3.948   1.618
  516TCM     h1 2746   4.126   3.710   1.642
  516TCM    cl3 2747   4.316   3.739   1.500
  517TCM     c1 2748   3.016   3.471   0.012
  517TCM    cl1 2749   3.175   3.518   0.080
  517TCM    cl2 2750   3.037   3.325  -0.091
  517TCM     h1 2751   2.947   3.449   0.094
  517TCM    cl3 2752   2.952   3.606  -0.086
  518TCM     c1 2753   2.685   0.316   4.177
  518TCM    cl1 2754   2.707   0.185   4.297
  518TCM    cl2 2755   2.619   0.247   4.026
  518TCM     h1 2756   2.616   0.391   4.217
  518TCM    cl3 2757   2.844   0.394   4.144
  519TCM     c1 2758   3.143   3.222   1.369
  519TCM    cl1 2759   3.086   3.391   1.394
  519TCM    cl2 2760   3.197   3.154   1.526
  519TCM     h1 2761   3.061   3.162   1.328
  519TCM    cl3 2762   3.281   3.222   1.253
  520TCM     c1 2763   4.958   2.869   3.286
  520TCM    cl1 2764   5.077   2.748   3.226
  520TCM    cl2 2765   5.012   2.931   3.445
  520TCM     h1 2766   4.950   2.951   3.215
  520TCM    cl3 2767   4.798   2.790   3.305
  521TCM     c1 2768   1.608   3.190   3.083
  521TCM    cl1 2769   1.547   3.357   3.107
  521TCM    cl2 2770   1.580   3.139   2.913
  521TCM     h1 2771   1.715   3.187   3.105
  521TCM    cl3 2772   1.521   3.078   3.193
  522TCM     c1 2773   2.589   4.018   1.671
  522TCM    cl1 2774   2.641   3.928   1.525
  522TCM    cl2 2775   2.425   3.963   1.722
  522TCM     h1 2776   2.659   3.999   1.752
  522TCM    cl3 2777   2.584   4.194   1.636
  523TCM     c1 2778   0.142   1.362   2.808
  523TCM    cl1 2779  -0.000   1.365   2.699
  523TCM    cl2 2780   0.168   1.193   2.865
  523TCM     h1 2781   0.231   1.396   2.754
  523TCM    cl3 2782   0.112   1.468   2.949
  524TCM     c1 2783   4.287   3.271   2.794
  524TCM    cl1 2784   4.460   3.290   2.836
  524TCM    cl2 2785   4.190   3.396   2.880
  524TCM     h1 2786   4.274   3.282   2.686
  524TCM    cl3 2787   4.232   3.108   2.846
  525TCM     c1 2788   2.571   4.515   2.538
  525TCM    cl1 2789   2.716   4.425   2.592
  525TCM    cl2 2790   2.524   4.634   2.664
  525TCM     h1 2791   2.593   4.568   2.445
  525TCM    cl3 2792   2.435   4.401   2.511
  526TCM     c1 2793   2.780   3.063   2.234
  526TCM    cl1 2794   2.675   2.959   2.132
  526TCM    cl2 2795   2.883   3.166   2.129
  526TCM     h1 2796   2.717   3.127   2.298
  526TCM    cl3 2797   2.884   2.960   2.337
  527TCM     c1 2798   1.772   3.203   4.265
  527TCM    cl1 2799   1.796   3.210   4.087
  527TCM    cl2 2800   1.774   3.370   4.332
  527TCM     h1 2801   1.676   3.156   4.287
  527TCM    cl3 2802   1.905   3.108   4.338
  528TCM     c1 2803   4.938   1.756   0.241
  528TCM    cl1 2804   4.956   1.817   0.074
  528TCM    cl2 2805   4.916   1.578   0.237
  528TCM     h1 2806   5.028   1.779   0.299
  528TCM    cl3 2807   4.796   1.831   0.319
  529TCM     c1 2808   1.888   2.830   1.936
  529TCM    cl1 2809   2.018   2.947   1.976
  529TCM    cl2 2810   1.953   2.702   1.829
  529TCM     h1 2811   1.849   2.785   2.027
  529TCM    cl3 2812   1.755   2.916   1.850
  530TCM     c1 2813   1.796   0.354   4.779
  530TCM    cl1 2814   1.824   0.491   4.666
  530TCM    cl2 2815   1.699   0.228   4.697
  530TCM     h1 2816   1.892   0.312   4.811
  530TCM    cl3 2817   1.706   0.414   4.922
  531TCM     c1 2818   0.242   4.993   3.909
  531TCM    cl1 2819   0.346   5.015   4.053
  531TCM    cl2 2820   0.233   5.147   3.817
  531TCM     h1 2821   0.283   4.914   3.845
  531TCM    cl3 2822   0.077   4.945   3.962
  532TCM     c1 2823   1.544   4.295   1.495
  532TCM    cl1 2824   1.601   4.342   1.331
  532TCM    cl2 2825   1.642   4.380   1.619
  532TCM     h1 2826   1.439   4.322   1.506
  532TCM    cl3 2827   1.563   4.118   1.515
  533TCM     c1 2828   4.718   0.679   3.923
  533TCM    cl1 2829   4.605   0.631   4.054
  533TCM    cl2 2830   4.724   0.549   3.799
  533TCM     h1 2831   4.685   0.772   3.877
  533TCM    cl3 2832   4.882   0.702   3.993
  534TCM     c1 2833   2.148   3.014   0.375
  534TCM    cl1 2834   2.060   2.892   0.277
  534TCM    cl2 2835   2.029   3.133   0.437
  534TCM     h1 2836   2.199   2.965   0.459
  534TCM    cl3 2837   2.268   3.096   0.269
  535TCM     c1 2838   2.667   4.148   1.071
  535TCM    cl1 2839   2.687   4.202   1.242
  535TCM    cl2 2840   2.785   4.235   0.967
  535TCM     h1 2841   2.686   4.041   1.065
  535TCM    cl3 2842   2.500   4.183   1.016
  536TCM     c1 2843   1.370   0.590   4.010
  536TCM    cl1 2844   1.406   0.417   4.040
  536TCM    cl2 2845   1.467   0.648   3.870
  536TCM     h1 2846   1.264   0.602   3.987
  536TCM    cl3 2847   1.411   0.686   4.156
  537TCM     c1 2848   1.244   0.962   2.778
  537TCM    cl1 2849   1.346   0.899   2.644
  537TCM    cl2 2850   1.179   0.823   2.871
  537TCM     h1 2851   1.305   1.026   2.843
  537TCM    cl3 2852   1.108   1.057   2.710
  538TCM     c1 2853   1.908   2.852   3.323
  538TCM    cl1 2854   1.867   2.946   3.176
  538TCM    cl2 2855   2.022   2.947   3.425
  538TCM     h1 2856   1.817   2.831   3.379
  538TCM    cl3 2857   1.986   2.698   3.274
  539TCM     c1 2858   3.674   4.054   2.899
  539TCM    cl1 2859   3.586   4.185   2.985
  539TCM    cl2 2860   3.700   4.104   2.728
  539TCM     h1 2861   3.770   4.036   2.947
  539TCM    cl3 2862   3.575   3.904   2.901
  540TCM     c1 2863   2.760   0.021   0.246
  540TCM    cl1 2864   2.866  -0.117   0.292
  540TCM    cl2 2865   2.772   0.149   0.372
  540TCM     h1 2866   2.792   0.061   0.150
  540TCM    cl3 2867   2.590  -0.036   0.235
  541TCM     c1 2868   1.548   3.519   3.988
  541TCM    cl1 2869   1.679   3.617   4.062
  541TCM    cl2 2870   1.477   3.410   4.111
  541TCM     h1 2871   1.471   3.586   3.949
  541TCM    cl3 2872   1.615   3.421   3.853
  542TCM     c1 2873   2.182   2.183   1.283
  542TCM    cl1 2874   2.313   2.305   1.272
  542TCM    cl2 2875   2.135   2.131   1.118
  542TCM     h1 2876   2.216   2.097   1.341
  542TCM    cl3 2877   2.040   2.257   1.365
  543TCM     c1 2878   2.904   4.904   3.646
  543TCM    cl1 2879   3.076   4.955   3.658
  543TCM    cl2 2880   2.799   5.050   3.645
  543TCM     h1 2881   2.889   4.847   3.554
  543TCM    cl3 2882   2.862   4.802   3.787
  544TCM     c1 2883   1.900   1.118   2.006
  544TCM    cl1 2884   1.777   1.249   2.011
  544TCM    cl2 2885   1.820   0.962   2.042
  544TCM     h1 2886   1.946   1.114   1.907
  544TCM    cl3 2887   2.026   1.152   2.129
  545TCM     c1 2888   2.053   2.519   0.460
  545TCM    cl1 2889   2.031   2.672   0.552
  545TCM    cl2 2890   2.003   2.542   0.289
  545TCM     h1 2891   2.158   2.489   0.463
  545TCM    cl3 2892   1.952   2.390   0.534
  546TCM     c1 2893   3.269   2.373   4.047
  546TCM    cl1 2894   3.347   2.391   4.207
  546TCM    cl2 2895   3.388   2.312   3.927
  546TCM     h1 2896   3.186   2.302   4.055
  546TCM    cl3 2897   3.206   2.532   3.993
  547TCM     c1 2898   0.592   0.403   2.043
  547TCM    cl1 2899   0.502   0.288   1.939
  547TCM    cl2 2900   0.483   0.467   2.170
  547TCM     h1 2901   0.676   0.352   2.089
  547TCM    cl3 2902   0.651   0.539   1.942
  548TCM     c1 2903   4.853   2.578   3.601
  548TCM    cl1 2904   4.798   2.736   3.665
  548TCM    cl2 2905   4.808   2.450   3.719
  548TCM     h1 2906   4.806   2.558   3.505
  548TCM    cl3 2907   5.032   2.580   3.581
  549TCM     c1 2908   4.089   4.476   0.743
  549TCM    cl1 2909   4.012   4.605   0.841
  549TCM    cl2 2910   4.218   4.547   0.640
  549TCM     h1 2911   4.134   4.401   0.809
  549TCM    cl3 2912   3.965   4.398   0.639
  550TCM     c1 2913   0.248   4.022   0.671
  550TCM    cl1 2914   0.090   4.026   0.586
  550TCM    cl2 2915   0.326   4.184   0.664
  550TCM     h1 2916   0.233   3.993   0.775
  550TCM    cl3 2917   0.355   3.903   0.591
  551TCM     c1 2918   2.127   1.949   3.667
  551TCM    cl1 2919   2.175   2.004   3.502
  551TCM    cl2 2920   2.164   2.078   3.785
  551TCM     h1 2921   2.019   1.928   3.668
  551TCM    cl3 2922   2.217   1.800   3.710
  552TCM     c1 2923   0.413   4.000   1.092
  552TCM    cl1 2924   0.433   3.892   0.950
  552TCM    cl2 2925   0.347   4.157   1.037
  552TCM     h1 2926   0.344   3.955   1.164
  552TCM    cl3 2927   0.573   4.025   1.170
  553TCM     c1 2928   1.329   3.665   0.429
  553TCM    cl1 2929   1.234   3.657   0.581
  553TCM    cl2 2930   1.378   3.499   0.382
  553TCM     h1 2931   1.268   3.709   0.350
  553TCM    cl3 2932   1.475   3.766   0.455
  554TCM     c1 2933   3.160   1.827   2.404
  554TCM    cl1 2934   3.304   1.733   2.355
  554TCM    cl2 2935   3.105   1.928   2.266
  554TCM     h1 2936   3.080   1.759   2.434
  554TCM    cl3 2937   3.204   1.934   2.542
  555TCM     c1 2938   1.695   2.528   2.394
  555TCM    cl1 2939   1.697   2.460   2.561
  555TCM    cl2 2940   1.525   2.566   2.349
  555TCM     h1 2941   1.755   2.619   2.391
  555TCM    cl3 2942   1.760   2.408   2.279
  556TCM     c1 2943   3.014   4.872   1.998
  556TCM    cl1 2944   2.956   5.006   1.894
  556TCM    cl2 2945   2.882   4.753   2.021
  556TCM     h1 2946   3.100   4.823   1.951
  556TCM    cl3 2947   3.063   4.940   2.157
  557TCM     c1 2948   0.716   2.288   4.476
  557TCM    cl1 2949   0.795   2.430   4.552
  557TCM    cl2 2950   0.744   2.292   4.298
  557TCM     h1 2951   0.758   2.195   4.517
  557TCM    cl3 2952   0.539   2.293   4.508
  558TCM     c1 2953   4.446   3.736   0.196
  558TCM    cl1 2954   4.509   3.677   0.353
  558TCM    cl2 2955   4.492   3.621   0.066
  558TCM     h1 2956   4.337   3.744   0.201
  558TCM    cl3 2957   4.516   3.898   0.161
  559TCM     c1 2958   4.957   1.949   3.894
  559TCM    cl1 2959   5.085   1.939   3.770
  559TCM    cl2 2960   4.833   1.824   3.860
  559TCM     h1 2961   5.000   1.933   3.994
  559TCM    cl3 2962   4.879   2.111   3.888
  560TCM     c1 2963   3.991   1.977   2.659
  560TCM    cl1 2964   3.882   2.062   2.544
  560TCM    cl2 2965   4.134   1.915   2.570
  560TCM     h1 2966   4.024   2.047   2.737
  560TCM    cl3 2967   3.905   1.840   2.734
  561TCM     c1 2968   1.365   2.651   0.006
  561TCM    cl1 2969   1.377   2.830   0.025
  561TCM    cl2 2970   1.199   2.607  -0.045
  561TCM     h1 2971   1.437   2.618  -0.070
  561TCM    cl3 2972   1.404   2.574   0.163
  562TCM     c1 2973   3.440   1.952   2.827
  562TCM    cl1 2974   3.319   2.073   2.881
  562TCM    cl2 2975   3.470   1.832   2.957
  562TCM     h1 2976   3.403   1.901   2.738
  562TCM    cl3 2977   3.594   2.036   2.786
  563TCM     c1 2978   2.660   4.686   0.740
  563TCM    cl1 2979   2.525   4.772   0.820
  563TCM    cl2 2980   2.660   4.723   0.565
  563TCM     h1 2981   2.755   4.719   0.784
  563TCM    cl3 2982   2.642   4.509   0.764
  564TCM     c1 2983   1.629   3.650   0.808
  564TCM    cl1 2984   1.774   3.672   0.705
  564TCM    cl2 2985   1.528   3.519   0.739
  564TCM     h1 2986   1.660   3.623   0.909
  564TCM    cl3 2987   1.535   3.803   0.813
  565TCM     c1 2988   4.901   2.948   0.003
  565TCM    cl1 2989   4.926   3.056   0.144
  565TCM    cl2 2990   4.759   3.006  -0.090
  565TCM     h1 2991   4.990   2.948  -0.061
  565TCM    cl3 2992   4.870   2.782   0.063
  566TCM     c1 2993   2.799   4.815   2.965
  566TCM    cl1 2994   2.854   4.971   2.895
  566TCM    cl2 2995   2.860   4.679   2.866
  566TCM     h1 2996   2.838   4.806   3.067
  566TCM    cl3 2997   2.620   4.812   2.969
  567TCM     c1 2998   4.448   3.708   3.474
  567TCM    cl1 2999   4.375   3.564   3.554
  567TCM    cl2 3000   4.317   3.818   3.419
  567TCM     h1 3001   4.512   3.760   3.545
  567TCM    cl3 3002   4.544   3.656   3.333
  568TCM     c1 3003   1.497   0.731   3.039
  568TCM    cl1 3004   1.530   0.902   2.996
  568TCM    cl2 3005   1.501   0.712   3.217
  568TCM     h1 3006   1.399   0.701   3.001
  568TCM    cl3 3007   1.623   0.626   2.966
  569TCM     c1 3008   3.115   2.542   4.465
  569TCM    cl1 3009   3.013   2.519   4.319
  569TCM    cl2 3010   3.131   2.386   4.551
  569TCM     h1 3011   3.214   2.577   4.435
  569TCM    cl3 3012   3.039   2.663   4.574
  570TCM     c1 3013   2.126   3.940   0.515
  570TCM    cl1 3014   2.125   4.051   0.374
  570TCM    cl2 3015   2.293   3.879   0.543
  570TCM     h1 3016   2.091   3.993   0.604
  570TCM    cl3 3017   2.017   3.802   0.481
  571TCM     c1 3018   3.154   1.805   0.151
  571TCM    cl1 3019   3.179   1.980   0.181
  571TCM    cl2 3020   3.128   1.777  -0.025
  571TCM     h1 3021   3.243   1.749   0.184
  571TCM    cl3 3022   3.011   1.749   0.243
  572TCM     c1 3023   2.418   1.448   3.599
  572TCM    cl1 3024   2.494   1.533   3.738
  572TCM    cl2 3025   2.254   1.394   3.645
  572TCM     h1 3026   2.411   1.517   3.514
  572TCM    cl3 3027   2.518   1.306   3.554
  573TCM     c1 3028   1.091   0.632   2.552
  573TCM    cl1 3029   1.200   0.669   2.415
  573TCM    cl2 3030   1.006   0.478   2.519
  573TCM     h1 3031   1.149   0.624   2.644
  573TCM    cl3 3032   0.970   0.763   2.568
  574TCM     c1 3033   2.410   4.115   0.120
  574TCM    cl1 3034   2.456   4.019   0.263
  574TCM    cl2 3035   2.341   4.271   0.175
  574TCM     h1 3036   2.498   4.134   0.059
  574TCM    cl3 3037   2.289   4.026   0.022
  575TCM     c1 3038   2.335   4.283   1.342
  575TCM    cl1 3039   2.276   4.349   1.498
  575TCM    cl2 3040   2.213   4.314   1.215
  575TCM     h1 3041   2.430   4.330   1.315
  575TCM    cl3 3042   2.359   4.106   1.357
  576TCM     c1 3043   0.715   2.380   4.906
  576TCM    cl1 3044   0.544   2.412   4.949
  576TCM    cl2 3045   0.729   2.215   4.837
  576TCM     h1 3046   0.748   2.453   4.833
  576TCM    cl3 3047   0.818   2.391   5.053
  577TCM     c1 3048   1.452   1.037   1.693
  577TCM    cl1 3049   1.407   1.149   1.559
  577TCM    cl2 3050   1.360   1.082   1.840
  577TCM     h1 3051   1.428   0.935   1.664
  577TCM    cl3 3052   1.628   1.052   1.727
  578TCM     c1 3053   0.154   3.436   3.643
  578TCM    cl1 3054   0.046   3.575   3.605
  578TCM    cl2 3055   0.307   3.452   3.551
  578TCM     h1 3056   0.175   3.434   3.750
  578TCM    cl3 3057   0.073   3.283   3.594
  579TCM     c1 3058   4.976   0.227   3.582
  579TCM    cl1 3059   5.115   0.241   3.469
  579TCM    cl2 3060   4.933   0.054   3.603
  579TCM     h1 3061   5.003   0.271   3.678
  579TCM    cl3 3062   4.836   0.316   3.513
  580TCM     c1 3063   4.196   0.061   3.076
  580TCM    cl1 3064   4.150   0.112   3.242
  580TCM    cl2 3065   4.350   0.141   3.029
  580TCM     h1 3066   4.209  -0.048   3.072
  580TCM    cl3 3067   4.067   0.110   2.962
  581TCM     c1 3068   3.246   3.756   1.410
  581TCM    cl1 3069   3.213   3.813   1.577
  581TCM    cl2 3070   3.373   3.629   1.413
  581TCM     h1 3071   3.154   3.716   1.367
  581TCM    cl3 3072   3.305   3.894   1.312
  582TCM     c1 3073   4.351   4.146   3.703
  582TCM    cl1 3074   4.407   4.277   3.812
  582TCM    cl2 3075   4.468   4.010   3.707
  582TCM     h1 3076   4.253   4.110   3.737
  582TCM    cl3 3077   4.338   4.209   3.536
  583TCM     c1 3078   0.850   3.552   0.432
  583TCM    cl1 3079   0.768   3.394   0.453
  583TCM    cl2 3080   0.738   3.665   0.348
  583TCM     h1 3081   0.877   3.593   0.530
  583TCM    cl3 3082   0.997   3.531   0.331
  584TCM     c1 3083   0.259   2.040   0.016
  584TCM    cl1 3084   0.245   2.188   0.115
  584TCM    cl2 3085   0.311   1.903   0.120
  584TCM     h1 3086   0.162   2.017  -0.029
  584TCM    cl3 3087   0.380   2.066  -0.114
  585TCM     c1 3088   0.988   0.026   2.530
  585TCM    cl1 3089   0.878   0.150   2.598
  585TCM    cl2 3090   1.040   0.077   2.366
  585TCM     h1 3091   1.076   0.015   2.594
  585TCM    cl3 3092   0.900  -0.130   2.518
  586TCM     c1 3093   0.817   1.152   4.027
  586TCM    cl1 3094   0.696   1.283   4.051
  586TCM    cl2 3095   0.807   1.089   3.859
  586TCM     h1 3096   0.917   1.191   4.045
  586TCM    cl3 3097   0.783   1.018   4.141
  587TCM     c1 3098   3.590   2.711   3.979
  587TCM    cl1 3099   3.508   2.695   3.820
  587TCM    cl2 3100   3.653   2.551   4.031
  587TCM     h1 3101   3.673   2.781   3.970
  587TCM    cl3 3102   3.473   2.772   4.101
  588TCM     c1 3103   1.988   3.181   0.055
  588TCM    cl1 3104   2.065   3.075  -0.068
  588TCM    cl2 3105   1.824   3.119   0.093
  588TCM     h1 3106   2.049   3.181   0.145
  588TCM    cl3 3107   1.973   3.349  -0.007
  589TCM     c1 3108   1.118   0.318   0.831
  589TCM    cl1 3109   1.041   0.296   0.671
  589TCM    cl2 3110   1.149   0.492   0.860
  589TCM     h1 3111   1.052   0.279   0.910
  589TCM    cl3 3112   1.274   0.229   0.834
  590TCM     c1 3113   0.379   3.609   0.394
  590TCM    cl1 3114   0.431   3.508   0.255
  590TCM    cl2 3115   0.402   3.517   0.546
  590TCM     h1 3116   0.440   3.700   0.397
  590TCM    cl3 3117   0.206   3.653   0.375
  591TCM     c1 3118   3.055   1.332   3.140
  591TCM    cl1 3119   3.034   1.412   3.299
  591TCM    cl2 3120   3.116   1.452   3.022
  591TCM     h1 3121   3.127   1.250   3.149
  591TCM    cl3 3122   2.898   1.267   3.083
  592TCM     c1 3123   2.610   4.610   0.222
  592TCM    cl1 3124   2.691   4.642   0.065
  592TCM    cl2 3125   2.649   4.445   0.280
  592TCM     h1 3126   2.643   4.684   0.296
  592TCM    cl3 3127   2.432   4.625   0.200
  593TCM     c1 3128   3.524   3.447   3.198
  593TCM    cl1 3129   3.685   3.460   3.276
  593TCM    cl2 3130   3.520   3.554   3.053
  593TCM     h1 3131   3.505   3.344   3.168
  593TCM    cl3 3132   3.397   3.501   3.313
  594TCM     c1 3133   2.998   3.841   0.996
  594TCM    cl1 3134   3.097   3.990   0.981
  594TCM    cl2 3135   2.836   3.869   0.925
  594TCM     h1 3136   3.047   3.759   0.943
  594TCM    cl3 3137   2.978   3.800   1.169
  595TCM     c1 3138   4.213   3.970   0.878
  595TCM    cl1 3139   4.149   4.124   0.811
  595TCM    cl2 3140   4.391   3.980   0.887
  595TCM     h1 3141   4.172   3.954   0.978
  595TCM    cl3 3142   4.165   3.834   0.771
  596TCM     c1 3143   4.150   2.886   0.086
  596TCM    cl1 3144   4.143   3.006   0.219
  596TCM    cl2 3145   4.213   2.729   0.148
  596TCM     h1 3146   4.049   2.871   0.045
  596TCM    cl3 3147   4.258   2.946  -0.044
  597TCM     c1 3148   2.819   0.988   2.054
  597TCM    cl1 3149   2.742   0.840   2.118
  597TCM    cl2 3150   2.736   1.039   1.904
  597TCM     h1 3151   2.812   1.068   2.129
  597TCM    cl3 3152   2.992   0.955   2.019
  598TCM     c1 3153   3.167   4.227   2.815
  598TCM    cl1 3154   3.311   4.216   2.709
  598TCM    cl2 3155   3.077   4.379   2.779
  598TCM     h1 3156   3.101   4.142   2.797
  598TCM    cl3 3157   3.218   4.228   2.987
  599TCM     c1 3158   3.551   3.479   3.825
  599TCM    cl1 3159   3.709   3.435   3.898
  599TCM    cl2 3160   3.428   3.356   3.869
  599TCM     h1 3161   3.520   3.577   3.862
  599TCM    cl3 3162   3.568   3.485   3.647
  600TCM     c1 3163   4.011   0.147   4.884
  600TCM    cl1 3164   4.048   0.268   4.757
  600TCM    cl2 3165   3.980  -0.012   4.808
  600TCM     h1 3166   4.095   0.139   4.953
  600TCM    cl3 3167   3.864   0.199   4.974
  601TCM     c1 3168   2.883   3.186   3.633
  601TCM    cl1 3169   3.021   3.209   3.746
  601TCM    cl2 3170   2.912   3.040   3.532
  601TCM     h1 3171   2.791   3.174   3.690
  601TCM    cl3 3172   2.871   3.329   3.526
  602TCM     c1 3173   0.507   2.340   1.794
  602TCM    cl1 3174   0.660   2.426   1.754
  602TCM    cl2 3175   0.491   2.197   1.686
  602TCM     h1 3176   0.510   2.307   1.898
  602TCM    cl3 3177   0.367   2.449   1.769
  603TCM     c1 3178   4.944   4.041   3.059
  603TCM    cl1 3179   5.044   4.188   3.084
  603TCM    cl2 3180   4.979   3.923   3.190
  603TCM     h1 3181   4.838   4.067   3.061
  603TCM    cl3 3182   4.985   3.969   2.900
  604TCM     c1 3183   2.280   3.089   1.507
  604TCM    cl1 3184   2.431   3.000   1.546
  604TCM    cl2 3185   2.314   3.265   1.505
  604TCM     h1 3186   2.244   3.057   1.409
  604TCM    cl3 3187   2.155   3.054   1.631
  605TCM     c1 3188   0.170   1.421   2.380
  605TCM    cl1 3189   0.201   1.497   2.221
  605TCM    cl2 3190   0.323   1.414   2.474
  605TCM     h1 3191   0.097   1.480   2.435
  605TCM    cl3 3192   0.109   1.254   2.357
  606TCM     c1 3193   3.731   3.019   3.724
  606TCM    cl1 3194   3.653   3.056   3.881
  606TCM    cl2 3195   3.840   2.878   3.744
  606TCM     h1 3196   3.654   2.995   3.650
  606TCM    cl3 3197   3.825   3.161   3.669
  607TCM     c1 3198   1.682   3.205   3.530
  607TCM    cl1 3199   1.791   3.247   3.393
  607TCM    cl2 3200   1.659   3.027   3.534
  607TCM     h1 3201   1.727   3.238   3.624
  607TCM    cl3 3202   1.524   3.286   3.507
  608TCM     c1 3203   2.399   3.041   2.390
  608TCM    cl1 3204   2.493   2.901   2.451
  608TCM    cl2 3205   2.465   3.192   2.461
  608TCM     h1 3206   2.408   3.046   2.281
  608TCM    cl3 3207   2.227   3.022   2.436
  609TCM     c1 3208   1.637   2.806   0.336
  609TCM    cl1 3209   1.666   2.674   0.453
  609TCM    cl2 3210   1.723   2.769   0.183
  609TCM     h1 3211   1.529   2.814   0.316
  609TCM    cl3 3212   1.696   2.961   0.403
  610TCM     c1 3213   4.653   0.538   2.720
  610TCM    cl1 3214   4.637   0.374   2.648
  610TCM    cl2 3215   4.670   0.659   2.589
  610TCM     h1 3216   4.565   0.560   2.780
  610TCM    cl3 3217   4.799   0.541   2.824
  611TCM     c1 3218   4.993   2.077   1.171
  611TCM    cl1 3219   4.843   2.018   1.092
  611TCM    cl2 3220   4.992   2.256   1.173
  611TCM     h1 3221   4.998   2.038   1.273
  611TCM    cl3 3222   5.135   2.018   1.078
  612TCM     c1 3223   3.124   3.970   0.234
  612TCM    cl1 3224   3.206   3.817   0.277
  612TCM    cl2 3225   3.043   3.950   0.075
  612TCM     h1 3226   3.050   3.995   0.311
  612TCM    cl3 3227   3.247   4.100   0.223
  613TCM     c1 3228   2.688   3.917   3.483
  613TCM    cl1 3229   2.669   3.935   3.660
  613TCM    cl2 3230   2.826   4.015   3.424
  613TCM     h1 3231   2.706   3.812   3.459
  613TCM    cl3 3232   2.537   3.971   3.403
  614TCM     c1 3233   2.091   4.385   1.900
  614TCM    cl1 3234   2.121   4.216   1.956
  614TCM    cl2 3235   1.999   4.474   2.026
  614TCM     h1 3236   2.187   4.435   1.882
  614TCM    cl3 3237   1.995   4.382   1.749
  615TCM     c1 3238   1.180   1.688   0.385
  615TCM    cl1 3239   1.229   1.533   0.459
  615TCM    cl2 3240   1.140   1.805   0.514
  615TCM     h1 3241   1.263   1.727   0.324
  615TCM    cl3 3242   1.036   1.663   0.282
  616TCM     c1 3243   0.336   2.820   4.240
  616TCM    cl1 3244   0.197   2.934   4.232
  616TCM    cl2 3245   0.349   2.731   4.084
  616TCM     h1 3246   0.428   2.876   4.258
  616TCM    cl3 3247   0.309   2.703   4.374
  617TCM     c1 3248   0.419   1.433   4.439
  617TCM    cl1 3249   0.413   1.604   4.495
  617TCM    cl2 3250   0.588   1.389   4.398
  617TCM     h1 3251   0.383   1.367   4.519
  617TCM    cl3 3252   0.315   1.414   4.294
  618TCM     c1 3253   4.919   2.698   0.620
  618TCM    cl1 3254   5.044   2.592   0.692
  618TCM    cl2 3255   4.940   2.698   0.442
  618TCM     h1 3256   4.819   2.661   0.646
  618TCM    cl3 3257   4.939   2.865   0.683
  619TCM     c1 3258   2.173   3.991   4.609
  619TCM    cl1 3259   2.081   3.902   4.735
  619TCM    cl2 3260   2.156   4.167   4.637
  619TCM     h1 3261   2.279   3.963   4.615
  619TCM    cl3 3262   2.107   3.949   4.448
  620TCM     c1 3263   2.921   3.264   3.175
  620TCM    cl1 3264   2.830   3.304   3.026
  620TCM    cl2 3265   3.043   3.392   3.206
  620TCM     h1 3266   2.852   3.258   3.260
  620TCM    cl3 3267   3.004   3.106   3.155
  621TCM     c1 3268   2.727   4.144   0.487
  621TCM    cl1 3269   2.666   4.043   0.623
  621TCM    cl2 3270   2.792   4.037   0.358
  621TCM     h1 3271   2.646   4.204   0.447
  621TCM    cl3 3272   2.858   4.251   0.547
  622TCM     c1 3273   3.568   4.308   0.361
  622TCM    cl1 3274   3.608   4.253   0.194
  622TCM    cl2 3275   3.552   4.165   0.468
  622TCM     h1 3276   3.648   4.373   0.398
  622TCM    cl3 3277   3.412   4.398   0.359
  623TCM     c1 3278   2.069   3.531   0.856
  623TCM    cl1 3279   2.131   3.692   0.809
  623TCM    cl2 3280   2.184   3.457   0.973
  623TCM     h1 3281   1.970   3.541   0.902
  623TCM    cl3 3282   2.057   3.428   0.709
  624TCM     c1 3283   3.906   3.586   3.532
  624TCM    cl1 3284   3.956   3.692   3.397
  624TCM    cl2 3285   3.914   3.677   3.686
  624TCM     h1 3286   3.803   3.552   3.515
  624TCM    cl3 3287   4.015   3.444   3.540
  625TCM     c1 3288   0.167   4.605   4.191
  625TCM    cl1 3289  -0.008   4.645   4.201
  625TCM    cl2 3290   0.262   4.732   4.274
  625TCM     h1 3291   0.185   4.509   4.238
  625TCM    cl3 3292   0.216   4.598   4.018
  626TCM     c1 3293   3.878   0.178   3.490
  626TCM    cl1 3294   4.019   0.146   3.597
  626TCM    cl2 3295   3.774   0.303   3.566
  626TCM     h1 3296   3.913   0.213   3.393
  626TCM    cl3 3297   3.783   0.027   3.469
  627TCM     c1 3298   2.278   2.444   3.277
  627TCM    cl1 3299   2.341   2.576   3.382
  627TCM    cl2 3300   2.145   2.359   3.363
  627TCM     h1 3301   2.241   2.486   3.184
  627TCM    cl3 3302   2.409   2.326   3.242
  628TCM     c1 3303   4.734   4.356   2.804
  628TCM    cl1 3304   4.702   4.533   2.806
  628TCM    cl2 3305   4.693   4.286   2.964
  628TCM     h1 3306   4.672   4.309   2.727
  628TCM    cl3 3307   4.907   4.327   2.768
  629TCM     c1 3308   2.293   0.675   2.032
  629TCM    cl1 3309   2.182   0.540   2.073
  629TCM    cl2 3310   2.410   0.699   2.166
  629TCM     h1 3311   2.347   0.652   1.939
  629TCM    cl3 3312   2.198   0.825   2.011
  630TCM     c1 3313   0.198   2.406   3.118
  630TCM    cl1 3314   0.077   2.440   2.990
  630TCM    cl2 3315   0.295   2.263   3.071
  630TCM     h1 3316   0.264   2.493   3.129
  630TCM    cl3 3317   0.114   2.373   3.273
  631TCM     c1 3318   0.795   3.870   0.768
  631TCM    cl1 3319   0.951   3.841   0.684
  631TCM    cl2 3320   0.812   3.825   0.941
  631TCM     h1 3321   0.768   3.976   0.760
  631TCM    cl3 3322   0.668   3.770   0.691
  632TCM     c1 3323   2.587   2.948   0.280
  632TCM    cl1 3324   2.559   2.910   0.107
  632TCM    cl2 3325   2.655   3.113   0.294
  632TCM     h1 3326   2.494   2.942   0.336
  632TCM    cl3 3327   2.706   2.832   0.348
  633TCM     c1 3328   0.350   0.212   0.862
  633TCM    cl1 3329   0.364   0.051   0.784
  633TCM    cl2 3330   0.312   0.190   1.036
  633TCM     h1 3331   0.444   0.266   0.851
  633TCM    cl3 3332   0.218   0.305   0.783
  634TCM     c1 3333   0.012   2.037   3.071
  634TCM    cl1 3334  -0.125   2.122   3.150
  634TCM    cl2 3335   0.024   2.093   2.901
  634TCM     h1 3336   0.105   2.059   3.124
  634TCM    cl3 3337  -0.018   1.860   3.072
  635TCM     c1 3338   2.459   0.626   3.356
  635TCM    cl1 3339   2.500   0.473   3.272
  635TCM    cl2 3340   2.608   0.696   3.426
  635TCM     h1 3341   2.416   0.697   3.284
  635TCM    cl3 3342   2.340   0.593   3.486
  636TCM     c1 3343   0.116   0.782   2.060
  636TCM    cl1 3344   0.066   0.884   2.199
  636TCM    cl2 3345   0.295   0.764   2.061
  636TCM     h1 3346   0.069   0.683   2.069
  636TCM    cl3 3347   0.064   0.857   1.906
  637TCM     c1 3348   3.950   0.288   4.384
  637TCM    cl1 3349   3.857   0.158   4.465
  637TCM    cl2 3350   3.836   0.407   4.311
  637TCM     h1 3351   4.014   0.339   4.457
  637TCM    cl3 3352   4.052   0.217   4.255
  638TCM     c1 3353   4.971   0.755   4.835
  638TCM    cl1 3354   5.081   0.778   4.695
  638TCM    cl2 3355   5.053   0.813   4.984
  638TCM     h1 3356   4.879   0.812   4.819
  638TCM    cl3 3357   4.932   0.581   4.851
  639TCM     c1 3358   2.585   0.418   1.484
  639TCM    cl1 3359   2.670   0.572   1.519
  639TCM    cl2 3360   2.480   0.374   1.622
  639TCM     h1 3361   2.525   0.429   1.394
  639TCM    cl3 3362   2.706   0.288   1.458
  640TCM     c1 3363   1.977   0.973   3.643
  640TCM    cl1 3364   1.966   1.064   3.797
  640TCM    cl2 3365   2.070   0.821   3.669
  640TCM     h1 3366   1.877   0.949   3.608
  640TCM    cl3 3367   2.060   1.074   3.520
   5.00000   5.00000   5.00000
