FOO
 3367
    1POP     C1    1   2.324   1.966   0.658
    1POP     O2    2   2.372   2.052   0.732
    1POP     C3    3   2.342   1.822   0.692
    1POP     C4    4   2.273   1.723   0.618
    1POP     C5    5   2.288   1.586   0.650
    1POP     C6    6   2.372   1.545   0.756
    1POP     C7    7   2.382   1.401   0.792
    1POP     C8    8   2.505   1.337   0.827
    1POP     C9    9   2.504   1.201   0.868
    1POP    C10   10   2.386   1.126   0.872
    1POP    O11   11   2.396   0.993   0.910
    1POP    C12   12   2.275   0.914   0.912
    1POP    C13   13   2.264   1.189   0.834
    1POP    C14   14   2.263   1.324   0.795
    1POP    C15   15   2.637   1.404   0.813
    1POP    C16   16   2.728   1.403   0.922
    1POP    C17   17   2.856   1.460   0.908
    1POP    C18   18   2.897   1.515   0.784
    1POP    C19   19   2.806   1.517   0.676
    1POP    C20   20   2.677   1.461   0.690
    1POP    C21   21   3.036   1.575   0.765
    1POP    N22   22   3.032   1.710   0.822
    1POP    C23   23   3.147   1.491   0.833
    1POP    C24   24   2.441   1.645   0.830
    1POP    C25   25   2.427   1.781   0.798
    1POP    H26   26   2.207   1.750   0.535
    1POP    H27   27   2.235   1.512   0.591
    1POP    H28   28   2.598   1.152   0.893
    1POP    H29   29   2.301   0.812   0.944
    1POP    H30   30   2.231   0.910   0.812
    1POP    H31   31   2.204   0.956   0.984
    1POP    H32   32   2.170   1.136   0.836
    1POP    H33   33   2.168   1.370   0.771
    1POP    H34   34   2.699   1.359   1.017
    1POP    H35   35   2.923   1.460   0.993
    1POP    H36   36   2.835   1.560   0.580
    1POP    H37   37   2.608   1.461   0.606
    1POP    H38   38   3.059   1.580   0.658
    1POP    H39   39   2.952   1.734   0.880
    1POP    H40   40   3.245   1.530   0.804
    1POP    H41   41   3.139   1.387   0.799
    1POP    H42   42   3.137   1.496   0.942
    1POP    H43   43   2.504   1.616   0.913
    1POP    H44   44   2.481   1.855   0.857
    2POP    C45   45   3.120   1.812   0.791
    2POP    O46   46   3.215   1.789   0.718
    2POP    C47   47   3.097   1.948   0.845
    2POP    C48   48   2.965   1.998   0.863
    2POP    C49   49   2.945   2.130   0.911
    2POP    C50   50   3.056   2.213   0.942
    2POP    C51   51   3.034   2.354   0.988
    2POP    C52   52   3.112   2.417   1.089
    2POP    C53   53   3.090   2.554   1.118
    2POP    C54   54   2.992   2.629   1.051
    2POP    O55   55   2.979   2.763   1.085
    2POP    C56   56   2.876   2.841   1.019
    2POP    C57   57   2.911   2.565   0.954
    2POP    C58   58   2.933   2.429   0.923
    2POP    C59   59   3.212   2.344   1.173
    2POP    C60   60   3.339   2.401   1.198
    2POP    C61   61   3.432   2.336   1.281
    2POP    C62   62   3.399   2.213   1.343
    2POP    C63   63   3.272   2.155   1.317
    2POP    C64   64   3.179   2.221   1.234
    2POP    C65   65   3.496   2.144   1.438
    2POP    N66   66   3.606   2.084   1.361
    2POP    C67   67   3.551   2.242   1.544
    2POP    C68   68   3.186   2.162   0.924
    2POP    C69   69   3.207   2.031   0.876
    2POP    H70   70   2.879   1.938   0.838
    2POP    H71   71   2.844   2.166   0.923
    2POP    H72   72   3.147   2.604   1.195
    2POP    H73   73   2.882   2.944   1.056
    2POP    H74   74   2.778   2.800   1.043
    2POP    H75   75   2.893   2.841   0.911
    2POP    H76   76   2.833   2.617   0.900
    2POP    H77   77   2.873   2.384   0.845
    2POP    H78   78   3.366   2.496   1.152
    2POP    H79   79   3.529   2.382   1.298
    2POP    H80   80   3.245   2.060   1.362
    2POP    H81   81   3.081   2.176   1.217
    2POP    H82   82   3.441   2.065   1.491
    2POP    H83   83   3.622   2.120   1.267
    2POP    H84   84   3.610   2.186   1.617
    2POP    H85   85   3.468   2.291   1.595
    2POP    H86   86   3.614   2.317   1.496
    2POP    H87   87   3.272   2.225   0.944
    2POP    H88   88   3.308   1.995   0.862
    3POP    C89   89   3.679   1.975   1.402
    3POP    O90   90   3.664   1.934   1.517
    3POP    C91   91   3.782   1.913   1.314
    3POP    C92   92   3.784   1.937   1.174
    3POP    C93   93   3.883   1.878   1.093
    3POP    C94   94   3.980   1.790   1.148
    3POP    C95   95   4.081   1.722   1.059
    3POP    C96   96   4.214   1.689   1.100
    3POP    C97   97   4.298   1.616   1.013
    3POP    C98   98   4.256   1.577   0.884
    3POP    O99   99   4.346   1.505   0.807
    3POP   C100  100   4.303   1.462   0.675
    3POP   C101  101   4.126   1.614   0.842
    3POP   C102  102   4.040   1.685   0.928
    3POP   C103  103   4.274   1.732   1.230
    3POP   C104  104   4.333   1.636   1.315
    3POP   C105  105   4.393   1.676   1.437
    3POP   C106  106   4.398   1.812   1.473
    3POP   C107  107   4.337   1.908   1.388
    3POP   C108  108   4.275   1.868   1.268
    3POP   C109  109   4.468   1.858   1.601
    3POP   N110  110   4.389   1.818   1.718
    3POP   C111  111   4.610   1.797   1.613
    3POP   C112  112   3.975   1.764   1.287
    3POP   C113  113   3.879   1.825   1.369
    3POP   H114  114   3.710   2.002   1.127
    3POP   H115  115   3.883   1.901   0.987
    3POP   H116  116   4.399   1.591   1.043
    3POP   H117  117   4.385   1.408   0.628
    3POP   H118  118   4.277   1.549   0.614
    3POP   H119  119   4.217   1.395   0.685
    3POP   H120  120   4.089   1.587   0.744
    3POP   H121  121   3.940   1.707   0.892
    3POP   H122  122   4.332   1.531   1.287
    3POP   H123  123   4.436   1.599   1.501
    3POP   H124  124   4.338   2.013   1.416
    3POP   H125  125   4.229   1.943   1.203
    3POP   H126  126   4.480   1.967   1.597
    3POP   H127  127   4.347   1.726   1.719
    3POP   H128  128   4.660   1.840   1.700
    3POP   H129  129   4.667   1.821   1.523
    3POP   H130  130   4.604   1.688   1.625
    3POP   H131  131   4.044   1.694   1.332
    3POP   H132  132   3.879   1.804   1.475
    4POP   C133  133   4.379   1.895   1.833
    4POP   O134  134   4.447   1.996   1.842
    4POP   C135  135   4.298   1.850   1.950
    4POP   C136  136   4.216   1.735   1.945
    4POP   C137  137   4.141   1.695   2.058
    4POP   C138  138   4.146   1.770   2.179
    4POP   C139  139   4.065   1.729   2.299
    4POP   C140  140   4.107   1.751   2.434
    4POP   C141  141   4.020   1.719   2.540
    4POP   C142  142   3.896   1.656   2.518
    4POP   O143  143   3.820   1.625   2.630
    4POP   C144  144   3.695   1.553   2.609
    4POP   C145  145   3.858   1.626   2.385
    4POP   C146  146   3.941   1.663   2.277
    4POP   C147  147   4.244   1.796   2.471
    4POP   C148  148   4.262   1.905   2.560
    4POP   C149  149   4.392   1.944   2.599
    4POP   C150  150   4.505   1.872   2.554
    4POP   C151  151   4.487   1.764   2.465
    4POP   C152  152   4.358   1.727   2.423
    4POP   C153  153   4.646   1.910   2.601
    4POP   N154  154   4.677   2.041   2.542
    4POP   C155  155   4.653   1.913   2.755
    4POP   C156  156   4.225   1.887   2.182
    4POP   C157  157   4.302   1.926   2.070
    4POP   H158  158   4.209   1.675   1.855
    4POP   H159  159   4.081   1.606   2.051
    4POP   H160  160   4.050   1.736   2.643
    4POP   H161  161   3.650   1.534   2.706
    4POP   H162  162   3.716   1.458   2.559
    4POP   H163  163   3.627   1.614   2.549
    4POP   H164  164   3.766   1.574   2.362
    4POP   H165  165   3.905   1.642   2.177
    4POP   H166  166   4.176   1.959   2.598
    4POP   H167  167   4.404   2.029   2.666
    4POP   H168  168   4.574   1.709   2.428
    4POP   H169  169   4.346   1.642   2.356
    4POP   H170  170   4.717   1.835   2.564
    4POP   H171  171   4.614   2.074   2.471
    4POP   H172  172   4.756   1.930   2.787
    4POP   H173  173   4.619   1.817   2.795
    4POP   H174  174   4.590   1.994   2.794
    4POP   H175  175   4.228   1.952   2.269
    4POP   H176  176   4.362   2.016   2.077
    5CAP   C177  177   2.236   2.139   0.517
    5CAP   O178  178   2.253   1.997   0.545
    5CAP   H179  179   2.184   2.187   0.599
    5CAP   H180  180   2.177   2.149   0.425
    5CAP   H181  181   2.334   2.185   0.501
    6CAP   C182  182   4.923   2.348   2.295
    6CAP   C183  183   4.948   2.247   2.409
    6CAP   C184  184   5.051   2.144   2.354
    6CAP   C185  185   5.002   2.326   2.531
    6CAP   O186  186   4.816   2.190   2.434
    6CAP   C187  187   4.804   2.090   2.526
    6CAP   O188  188   4.893   2.046   2.598
    6CAP   H189  189   5.016   2.397   2.267
    6CAP   H190  190   4.882   2.296   2.209
    6CAP   H191  191   4.851   2.424   2.329
    6CAP   H192  192   5.004   2.085   2.274
    6CAP   H193  193   5.083   2.077   2.434
    6CAP   H194  194   5.138   2.196   2.315
    6CAP   H195  195   4.924   2.391   2.570
    6CAP   H196  196   5.035   2.257   2.609
    6CAP   H197  197   5.088   2.386   2.500
    7TCM     c1  198   4.233   0.351   2.626
    7TCM    cl1  199   4.384   0.353   2.529
    7TCM    cl2  200   4.142   0.503   2.600
    7TCM     h1  201   4.171   0.266   2.596
    7TCM    cl3  202   4.275   0.333   2.800
    8TCM     c1  203   1.530   2.393   4.461
    8TCM    cl1  204   1.386   2.310   4.392
    8TCM    cl2  205   1.485   2.560   4.510
    8TCM     h1  206   1.566   2.338   4.548
    8TCM    cl3  207   1.658   2.401   4.336
    9TCM     c1  208   1.442   1.966   0.706
    9TCM    cl1  209   1.357   1.849   0.814
    9TCM    cl2  210   1.349   1.983   0.553
    9TCM     h1  211   1.449   2.063   0.756
    9TCM    cl3  212   1.606   1.904   0.670
   10TCM     c1  213   2.739   0.493   3.671
   10TCM    cl1  214   2.787   0.366   3.554
   10TCM    cl2  215   2.825   0.466   3.826
   10TCM     h1  216   2.765   0.591   3.631
   10TCM    cl3  217   2.562   0.485   3.700
   11TCM     c1  218   1.934   1.552   2.774
   11TCM    cl1  219   2.010   1.634   2.635
   11TCM    cl2  220   1.826   1.667   2.859
   11TCM     h1  221   1.876   1.466   2.739
   11TCM    cl3  222   2.062   1.496   2.887
   12TCM     c1  223   4.943   1.423   0.485
   12TCM    cl1  224   5.056   1.430   0.346
   12TCM    cl2  225   4.986   1.284   0.591
   12TCM     h1  226   4.949   1.515   0.542
   12TCM    cl3  227   4.775   1.402   0.425
   13TCM     c1  228   2.597   0.638   2.412
   13TCM    cl1  229   2.591   0.488   2.313
   13TCM    cl2  230   2.482   0.626   2.549
   13TCM     h1  231   2.698   0.653   2.451
   13TCM    cl3  232   2.551   0.778   2.309
   14TCM     c1  233   3.386   3.780   4.629
   14TCM    cl1  234   3.444   3.757   4.461
   14TCM    cl2  235   3.368   3.955   4.663
   14TCM     h1  236   3.290   3.730   4.641
   14TCM    cl3  237   3.504   3.709   4.744
   15TCM     c1  238   0.076   4.057   3.469
   15TCM    cl1  239  -0.060   3.945   3.503
   15TCM    cl2  240   0.194   3.977   3.360
   15TCM     h1  241   0.038   4.148   3.422
   15TCM    cl3  242   0.157   4.100   3.624
   16TCM     c1  243   3.591   1.125   2.372
   16TCM    cl1  244   3.597   1.202   2.534
   16TCM    cl2  245   3.744   1.037   2.340
   16TCM     h1  246   3.507   1.056   2.368
   16TCM    cl3  247   3.571   1.253   2.247
   17TCM     c1  248   4.829   3.202   4.531
   17TCM    cl1  249   4.687   3.111   4.470
   17TCM    cl2  250   4.976   3.152   4.441
   17TCM     h1  251   4.812   3.309   4.517
   17TCM    cl3  252   4.851   3.167   4.705
   18TCM     c1  253   0.245   2.504   1.348
   18TCM    cl1  254   0.150   2.497   1.500
   18TCM    cl2  255   0.197   2.367   1.242
   18TCM     h1  256   0.226   2.598   1.297
   18TCM    cl3  257   0.420   2.490   1.387
   19TCM     c1  258   1.216   1.752   2.102
   19TCM    cl1  259   1.040   1.751   2.066
   19TCM    cl2  260   1.304   1.679   1.964
   19TCM     h1  261   1.250   1.854   2.117
   19TCM    cl3  262   1.248   1.655   2.250
   20TCM     c1  263   3.998   4.143   0.623
   20TCM    cl1  264   4.123   4.017   0.595
   20TCM    cl2  265   3.918   4.115   0.781
   20TCM     h1  266   4.045   4.242   0.623
   20TCM    cl3  267   3.876   4.135   0.492
   21TCM     c1  268   2.445   0.096   3.811
   21TCM    cl1  269   2.623   0.120   3.802
   21TCM    cl2  270   2.408  -0.079   3.801
   21TCM     h1  271   2.407   0.136   3.905
   21TCM    cl3  272   2.368   0.179   3.673
   22TCM     c1  273   2.743   1.545   2.647
   22TCM    cl1  274   2.862   1.534   2.513
   22TCM    cl2  275   2.671   1.382   2.672
   22TCM     h1  276   2.793   1.577   2.738
   22TCM    cl3  277   2.615   1.663   2.605
   23TCM     c1  278   0.633   3.040   4.873
   23TCM    cl1  279   0.722   3.195   4.855
   23TCM    cl2  280   0.680   2.965   5.029
   23TCM     h1  281   0.526   3.059   4.872
   23TCM    cl3  282   0.677   2.930   4.739
   24TCM     c1  283   4.373   3.311   1.974
   24TCM    cl1  284   4.381   3.470   1.891
   24TCM    cl2  285   4.276   3.326   2.124
   24TCM     h1  286   4.327   3.238   1.908
   24TCM    cl3  287   4.540   3.257   2.016
   25TCM     c1  288   0.113   3.634   4.644
   25TCM    cl1  289  -0.005   3.512   4.588
   25TCM    cl2  290   0.038   3.738   4.769
   25TCM     h1  291   0.200   3.583   4.687
   25TCM    cl3  292   0.165   3.735   4.505
   26TCM     c1  293   2.219   1.242   3.261
   26TCM    cl1  294   2.363   1.314   3.181
   26TCM    cl2  295   2.208   1.069   3.218
   26TCM     h1  296   2.229   1.252   3.369
   26TCM    cl3  297   2.071   1.329   3.208
   27TCM     c1  298   0.969   1.819   2.511
   27TCM    cl1  299   1.036   1.667   2.579
   27TCM    cl2  300   0.861   1.780   2.373
   27TCM     h1  301   0.911   1.871   2.589
   27TCM    cl3  302   1.102   1.926   2.455
   28TCM     c1  303   2.961   4.313   4.752
   28TCM    cl1  304   2.967   4.321   4.573
   28TCM    cl2  305   2.906   4.150   4.804
   28TCM     h1  306   3.060   4.333   4.794
   28TCM    cl3  307   2.844   4.435   4.811
   29TCM     c1  308   2.767   2.489   1.838
   29TCM    cl1  309   2.709   2.418   1.684
   29TCM    cl2  310   2.632   2.568   1.925
   29TCM     h1  311   2.809   2.410   1.901
   29TCM    cl3  312   2.894   2.611   1.803
   30TCM     c1  313   2.758   2.075   4.892
   30TCM    cl1  314   2.683   2.031   5.049
   30TCM    cl2  315   2.838   2.235   4.906
   30TCM     h1  316   2.832   1.999   4.864
   30TCM    cl3  317   2.629   2.082   4.767
   31TCM     c1  318   4.915   4.812   1.142
   31TCM    cl1  319   4.774   4.873   1.048
   31TCM    cl2  320   4.860   4.765   1.307
   31TCM     h1  321   4.957   4.724   1.092
   31TCM    cl3  322   5.039   4.940   1.155
   32TCM     c1  323   2.868   0.729   1.170
   32TCM    cl1  324   2.730   0.629   1.226
   32TCM    cl2  325   2.902   0.856   1.293
   32TCM     h1  326   2.956   0.666   1.158
   32TCM    cl3  327   2.827   0.806   1.014
   33TCM     c1  328   3.985   3.236   1.624
   33TCM    cl1  329   3.932   3.067   1.596
   33TCM    cl2  330   4.063   3.248   1.785
   33TCM     h1  331   4.057   3.264   1.547
   33TCM    cl3  332   3.843   3.346   1.618
   34TCM     c1  333   0.986   0.861   3.411
   34TCM    cl1  334   0.847   0.750   3.390
   34TCM    cl2  335   0.942   1.026   3.359
   34TCM     h1  336   1.016   0.863   3.517
   34TCM    cl3  337   1.123   0.801   3.312
   35TCM     c1  338   0.500   0.151   4.181
   35TCM    cl1  339   0.618   0.226   4.294
   35TCM    cl2  340   0.545  -0.020   4.151
   35TCM     h1  341   0.399   0.156   4.224
   35TCM    cl3  342   0.504   0.240   4.025
   36TCM     c1  343   2.760   3.645   3.265
   36TCM    cl1  344   2.790   3.720   3.424
   36TCM    cl2  345   2.765   3.772   3.138
   36TCM     h1  346   2.837   3.570   3.244
   36TCM    cl3  347   2.598   3.566   3.265
   37TCM     c1  348   0.110   0.890   2.443
   37TCM    cl1  349  -0.031   0.872   2.553
   37TCM    cl2  350   0.151   0.730   2.373
   37TCM     h1  351   0.085   0.960   2.363
   37TCM    cl3  352   0.249   0.952   2.537
   38TCM     c1  353   4.728   1.963   2.013
   38TCM    cl1  354   4.842   1.826   1.989
   38TCM    cl2  355   4.816   2.118   1.988
   38TCM     h1  356   4.647   1.956   1.940
   38TCM    cl3  357   4.662   1.959   2.179
   39TCM     c1  358   1.376   3.565   2.214
   39TCM    cl1  359   1.446   3.454   2.338
   39TCM    cl2  360   1.357   3.476   2.060
   39TCM     h1  361   1.279   3.601   2.248
   39TCM    cl3  362   1.486   3.704   2.188
   40TCM     c1  363   3.501   1.434   1.735
   40TCM    cl1  364   3.322   1.446   1.742
   40TCM    cl2  365   3.567   1.433   1.902
   40TCM     h1  366   3.530   1.341   1.684
   40TCM    cl3  367   3.567   1.575   1.645
   41TCM     c1  368   0.640   1.830   1.901
   41TCM    cl1  369   0.681   1.946   2.031
   41TCM    cl2  370   0.487   1.881   1.823
   41TCM     h1  371   0.721   1.827   1.826
   41TCM    cl3  372   0.618   1.667   1.973
   42TCM     c1  373   2.089   3.675   1.738
   42TCM    cl1  374   2.243   3.767   1.730
   42TCM    cl2  375   2.051   3.608   1.577
   42TCM     h1  376   2.098   3.594   1.811
   42TCM    cl3  377   1.957   3.786   1.788
   43TCM     c1  378   0.841   4.525   1.008
   43TCM    cl1  379   0.707   4.518   0.889
   43TCM    cl2  380   0.987   4.447   0.938
   43TCM     h1  381   0.863   4.630   1.032
   43TCM    cl3  382   0.794   4.437   1.157
   44TCM     c1  383   0.432   1.064   4.652
   44TCM    cl1  384   0.324   1.179   4.738
   44TCM    cl2  385   0.598   1.132   4.651
   44TCM     h1  386   0.432   0.968   4.703
   44TCM    cl3  387   0.376   1.044   4.482
   45TCM     c1  388   1.025   3.939   4.704
   45TCM    cl1  389   0.846   3.930   4.695
   45TCM    cl2  390   1.081   4.090   4.625
   45TCM     h1  391   1.057   3.939   4.809
   45TCM    cl3  392   1.096   3.797   4.620
   46TCM     c1  393   0.038   0.625   4.475
   46TCM    cl1  394   0.209   0.656   4.521
   46TCM    cl2  395  -0.004   0.455   4.514
   46TCM     h1  396  -0.027   0.692   4.530
   46TCM    cl3  397   0.019   0.652   4.299
   47TCM     c1  398   0.881   4.288   1.914
   47TCM    cl1  399   0.717   4.309   1.845
   47TCM    cl2  400   1.003   4.340   1.794
   47TCM     h1  401   0.891   4.349   2.005
   47TCM    cl3  402   0.907   4.115   1.954
   48TCM     c1  403   3.335   3.884   0.023
   48TCM    cl1  404   3.263   3.720   0.029
   48TCM    cl2  405   3.444   3.907   0.163
   48TCM     h1  406   3.392   3.895  -0.070
   48TCM    cl3  407   3.204   4.007   0.027
   49TCM     c1  408   1.380   1.496   1.295
   49TCM    cl1  409   1.228   1.399   1.306
   49TCM    cl2  410   1.456   1.505   1.457
   49TCM     h1  411   1.448   1.448   1.225
   49TCM    cl3  412   1.341   1.661   1.237
   50TCM     c1  413   3.108   0.715   2.312
   50TCM    cl1  414   2.934   0.757   2.300
   50TCM    cl2  415   3.132   0.549   2.250
   50TCM     h1  416   3.166   0.785   2.252
   50TCM    cl3  417   3.159   0.725   2.484
   51TCM     c1  418   0.034   0.487   1.934
   51TCM    cl1  419  -0.105   0.472   2.046
   51TCM    cl2  420   0.143   0.617   1.993
   51TCM     h1  421   0.088   0.393   1.929
   51TCM    cl3  422  -0.025   0.530   1.770
   52TCM     c1  423   3.823   2.446   1.058
   52TCM    cl1  424   3.798   2.286   1.136
   52TCM    cl2  425   3.991   2.501   1.088
   52TCM     h1  426   3.805   2.437   0.951
   52TCM    cl3  427   3.707   2.564   1.129
   53TCM     c1  428   3.665   4.970   0.588
   53TCM    cl1  429   3.635   4.814   0.505
   53TCM    cl2  430   3.642   5.105   0.472
   53TCM     h1  431   3.595   4.980   0.672
   53TCM    cl3  432   3.833   4.973   0.651
   54TCM     c1  433   4.773   1.661   3.305
   54TCM    cl1  434   4.711   1.824   3.349
   54TCM    cl2  435   4.684   1.602   3.160
   54TCM     h1  436   4.879   1.668   3.282
   54TCM    cl3  437   4.748   1.548   3.441
   55TCM     c1  438   2.111   3.642   2.502
   55TCM    cl1  439   2.060   3.490   2.423
   55TCM    cl2  440   2.172   3.757   2.378
   55TCM     h1  441   2.026   3.687   2.555
   55TCM    cl3  442   2.242   3.608   2.620
   56TCM     c1  443   0.240   0.175   4.536
   56TCM    cl1  444   0.188   0.150   4.706
   56TCM    cl2  445   0.335   0.034   4.481
   56TCM     h1  446   0.152   0.188   4.472
   56TCM    cl3  447   0.344   0.321   4.526
   57TCM     c1  448   4.349   0.431   4.343
   57TCM    cl1  449   4.391   0.606   4.348
   57TCM    cl2  450   4.183   0.410   4.406
   57TCM     h1  451   4.354   0.396   4.240
   57TCM    cl3  452   4.465   0.339   4.444
   58TCM     c1  453   3.457   4.280   1.378
   58TCM    cl1  454   3.558   4.429   1.371
   58TCM    cl2  455   3.362   4.265   1.227
   58TCM     h1  456   3.522   4.193   1.390
   58TCM    cl3  457   3.346   4.290   1.518
   59TCM     c1  458   4.534   4.630   4.671
   59TCM    cl1  459   4.447   4.663   4.518
   59TCM    cl2  460   4.425   4.542   4.782
   59TCM     h1  461   4.623   4.570   4.651
   59TCM    cl3  462   4.583   4.785   4.747
   60TCM     c1  463   3.834   4.175   1.616
   60TCM    cl1  464   3.761   4.089   1.476
   60TCM    cl2  465   3.881   4.056   1.741
   60TCM     h1  466   3.922   4.231   1.583
   60TCM    cl3  467   3.712   4.288   1.685
   61TCM     c1  468   3.484   3.942   3.159
   61TCM    cl1  469   3.434   3.798   3.254
   61TCM    cl2  470   3.567   4.057   3.268
   61TCM     h1  471   3.552   3.911   3.079
   61TCM    cl3  472   3.339   4.019   3.087
   62TCM     c1  473   0.422   0.629   3.242
   62TCM    cl1  474   0.575   0.687   3.167
   62TCM    cl2  475   0.297   0.756   3.222
   62TCM     h1  476   0.390   0.537   3.192
   62TCM    cl3  477   0.449   0.597   3.416
   63TCM     c1  478   2.915   2.367   2.692
   63TCM    cl1  479   2.915   2.193   2.733
   63TCM    cl2  480   2.761   2.442   2.747
   63TCM     h1  481   2.999   2.417   2.742
   63TCM    cl3  482   2.931   2.388   2.514
   64TCM     c1  483   3.583   2.303   2.259
   64TCM    cl1  484   3.500   2.264   2.105
   64TCM    cl2  485   3.504   2.213   2.393
   64TCM     h1  486   3.688   2.274   2.252
   64TCM    cl3  487   3.570   2.479   2.290
   65TCM     c1  488   4.803   0.473   2.551
   65TCM    cl1  489   4.694   0.480   2.693
   65TCM    cl2  490   4.971   0.505   2.605
   65TCM     h1  491   4.797   0.374   2.504
   65TCM    cl3  492   4.755   0.598   2.431
   66TCM     c1  493   0.149   0.220   2.835
   66TCM    cl1  494   0.246   0.091   2.914
   66TCM    cl2  495   0.087   0.158   2.678
   66TCM     h1  496   0.066   0.248   2.899
   66TCM    cl3  497   0.254   0.362   2.806
   67TCM     c1  498   4.905   3.470   1.114
   67TCM    cl1  499   4.817   3.533   0.971
   67TCM    cl2  500   4.917   3.598   1.238
   67TCM     h1  501   4.850   3.384   1.155
   67TCM    cl3  502   5.069   3.417   1.065
   68TCM     c1  503   1.470   3.558   0.652
   68TCM    cl1  504   1.476   3.628   0.817
   68TCM    cl2  505   1.583   3.649   0.546
   68TCM     h1  506   1.500   3.453   0.656
   68TCM    cl3  507   1.304   3.571   0.587
   69TCM     c1  508   2.685   4.365   3.915
   69TCM    cl1  509   2.532   4.327   4.001
   69TCM    cl2  510   2.681   4.536   3.860
   69TCM     h1  511   2.769   4.351   3.983
   69TCM    cl3  512   2.704   4.256   3.774
   70TCM     c1  513   4.479   1.773   0.425
   70TCM    cl1  514   4.577   1.713   0.563
   70TCM    cl2  515   4.309   1.798   0.478
   70TCM     h1  516   4.520   1.867   0.389
   70TCM    cl3  517   4.482   1.652   0.293
   71TCM     c1  518   2.812   4.661   4.365
   71TCM    cl1  519   2.721   4.633   4.517
   71TCM    cl2  520   2.778   4.529   4.249
   71TCM     h1  521   2.782   4.757   4.322
   71TCM    cl3  522   2.988   4.665   4.402
   72TCM     c1  523   3.547   3.957   1.948
   72TCM    cl1  524   3.513   3.999   1.777
   72TCM    cl2  525   3.391   3.936   2.035
   72TCM     h1  526   3.605   3.864   1.953
   72TCM    cl3  527   3.640   4.090   2.024
   73TCM     c1  528   0.767   0.374   3.276
   73TCM    cl1  529   0.735   0.373   3.453
   73TCM    cl2  530   0.618   0.321   3.189
   73TCM     h1  531   0.794   0.475   3.244
   73TCM    cl3  532   0.901   0.261   3.238
   74TCM     c1  533   0.442   1.460   2.482
   74TCM    cl1  534   0.620   1.448   2.466
   74TCM    cl2  535   0.402   1.560   2.626
   74TCM     h1  536   0.399   1.507   2.393
   74TCM    cl3  537   0.372   1.296   2.503
   75TCM     c1  538   0.996   0.668   2.244
   75TCM    cl1  539   0.910   0.553   2.138
   75TCM    cl2  540   1.074   0.797   2.145
   75TCM     h1  541   0.925   0.714   2.313
   75TCM    cl3  542   1.122   0.581   2.337
   76TCM     c1  543   2.811   1.006   3.622
   76TCM    cl1  544   2.811   1.139   3.741
   76TCM    cl2  545   2.719   1.056   3.476
   76TCM     h1  546   2.914   0.981   3.594
   76TCM    cl3  547   2.733   0.862   3.695
   77TCM     c1  548   4.449   4.977   0.604
   77TCM    cl1  549   4.563   4.991   0.742
   77TCM    cl2  550   4.285   4.941   0.667
   77TCM     h1  551   4.448   5.071   0.548
   77TCM    cl3  552   4.501   4.844   0.496
   78TCM     c1  553   0.396   4.328   0.138
   78TCM    cl1  554   0.267   4.291   0.258
   78TCM    cl2  555   0.322   4.355  -0.023
   78TCM     h1  556   0.451   4.417   0.169
   78TCM    cl3  557   0.508   4.188   0.129
   79TCM     c1  558   2.389   3.406   2.046
   79TCM    cl1  559   2.332   3.424   1.876
   79TCM    cl2  560   2.350   3.556   2.136
   79TCM     h1  561   2.338   3.321   2.092
   79TCM    cl3  562   2.566   3.378   2.049
   80TCM     c1  563   0.266   2.888   0.881
   80TCM    cl1  564   0.281   2.812   1.043
   80TCM    cl2  565   0.271   3.066   0.898
   80TCM     h1  566   0.348   2.855   0.818
   80TCM    cl3  567   0.110   2.839   0.807
   81TCM     c1  568   2.922   3.613   0.874
   81TCM    cl1  569   2.987   3.483   0.978
   81TCM    cl2  570   2.933   3.770   0.960
   81TCM     h1  571   2.980   3.617   0.781
   81TCM    cl3  572   2.750   3.578   0.834
   82TCM     c1  573   2.804   3.062   0.045
   82TCM    cl1  574   2.759   2.934   0.164
   82TCM    cl2  575   2.826   3.218   0.131
   82TCM     h1  576   2.898   3.034  -0.005
   82TCM    cl3  577   2.674   3.080  -0.077
   83TCM     c1  578   0.862   1.251   1.950
   83TCM    cl1  579   0.925   1.298   1.789
   83TCM    cl2  580   0.854   1.072   1.961
   83TCM     h1  581   0.928   1.290   2.028
   83TCM    cl3  582   0.697   1.317   1.971
   84TCM     c1  583   1.881   2.535   4.714
   84TCM    cl1  584   1.839   2.656   4.589
   84TCM    cl2  585   2.059   2.533   4.739
   84TCM     h1  586   1.832   2.560   4.808
   84TCM    cl3  587   1.828   2.372   4.660
   85TCM     c1  588   2.200   4.028   3.696
   85TCM    cl1  589   2.204   3.948   3.536
   85TCM    cl2  590   2.312   3.944   3.808
   85TCM     h1  591   2.229   4.133   3.686
   85TCM    cl3  592   2.033   4.019   3.762
   86TCM     c1  593   0.607   0.245   4.784
   86TCM    cl1  594   0.724   0.242   4.649
   86TCM    cl2  595   0.694   0.272   4.939
   86TCM     h1  596   0.534   0.324   4.769
   86TCM    cl3  597   0.524   0.086   4.793
   87TCM     c1  598   1.001   0.497   2.892
   87TCM    cl1  599   0.983   0.577   2.732
   87TCM    cl2  600   0.933   0.332   2.883
   87TCM     h1  601   1.107   0.492   2.919
   87TCM    cl3  602   0.913   0.591   3.018
   88TCM     c1  603   4.430   3.072   3.085
   88TCM    cl1  604   4.533   2.925   3.094
   88TCM    cl2  605   4.519   3.211   3.156
   88TCM     h1  606   4.406   3.093   2.980
   88TCM    cl3  607   4.278   3.045   3.177
   89TCM     c1  608   3.105   4.621   0.101
   89TCM    cl1  609   3.004   4.638   0.248
   89TCM    cl2  610   3.025   4.706  -0.035
   89TCM     h1  611   3.204   4.663   0.119
   89TCM    cl3  612   3.120   4.446   0.060
   90TCM     c1  613   1.718   0.214   3.462
   90TCM    cl1  614   1.612   0.153   3.331
   90TCM    cl2  615   1.703   0.107   3.605
   90TCM     h1  616   1.822   0.216   3.428
   90TCM    cl3  617   1.666   0.380   3.508
   91TCM     c1  618   0.639   0.718   3.860
   91TCM    cl1  619   0.619   0.593   3.987
   91TCM    cl2  620   0.478   0.761   3.794
   91TCM     h1  621   0.687   0.806   3.902
   91TCM    cl3  622   0.740   0.652   3.727
   92TCM     c1  623   1.904   4.917   2.394
   92TCM    cl1  624   1.727   4.893   2.409
   92TCM    cl2  625   1.950   4.909   2.220
   92TCM     h1  626   1.932   5.014   2.435
   92TCM    cl3  627   1.989   4.787   2.484
   93TCM     c1  628   0.975   1.313   2.376
   93TCM    cl1  629   0.973   1.154   2.294
   93TCM    cl2  630   0.928   1.441   2.258
   93TCM     h1  631   0.905   1.313   2.459
   93TCM    cl3  632   1.141   1.345   2.436
   94TCM     c1  633   1.233   1.516   0.101
   94TCM    cl1  634   1.303   1.679   0.077
   94TCM    cl2  635   1.341   1.420   0.208
   94TCM     h1  636   1.134   1.526   0.148
   94TCM    cl3  637   1.215   1.433  -0.057
   95TCM     c1  638   4.280   3.040   2.372
   95TCM    cl1  639   4.451   3.092   2.352
   95TCM    cl2  640   4.228   3.075   2.540
   95TCM     h1  641   4.217   3.094   2.302
   95TCM    cl3  642   4.268   2.863   2.340
   96TCM     c1  643   2.750   4.866   1.407
   96TCM    cl1  644   2.585   4.864   1.335
   96TCM    cl2  645   2.828   4.707   1.382
   96TCM     h1  646   2.809   4.944   1.359
   96TCM    cl3  647   2.738   4.899   1.583
   97TCM     c1  648   4.263   2.329   2.903
   97TCM    cl1  649   4.272   2.308   3.081
   97TCM    cl2  650   4.146   2.460   2.865
   97TCM     h1  651   4.362   2.356   2.864
   97TCM    cl3  652   4.208   2.177   2.826
   98TCM     c1  653   3.948   0.471   3.578
   98TCM    cl1  654   4.062   0.376   3.678
   98TCM    cl2  655   4.014   0.486   3.412
   98TCM     h1  656   3.851   0.420   3.574
   98TCM    cl3  657   3.927   0.633   3.651
   99TCM     c1  658   4.027   0.917   3.026
   99TCM    cl1  659   3.902   1.046   3.042
   99TCM    cl2  660   3.992   0.786   3.144
   99TCM     h1  661   4.026   0.878   2.924
   99TCM    cl3  662   4.187   0.987   3.064
  100TCM     c1  663   2.017   0.262   3.018
  100TCM    cl1  664   1.912   0.378   2.930
  100TCM    cl2  665   2.076   0.136   2.904
  100TCM     h1  666   2.103   0.316   3.060
  100TCM    cl3  667   1.926   0.184   3.150
  101TCM     c1  668   4.903   4.439   3.504
  101TCM    cl1  669   5.082   4.438   3.496
  101TCM    cl2  670   4.847   4.309   3.616
  101TCM     h1  671   4.868   4.536   3.540
  101TCM    cl3  672   4.837   4.409   3.340
  102TCM     c1  673   0.075   1.936   4.678
  102TCM    cl1  674   0.104   1.788   4.776
  102TCM    cl2  675  -0.055   1.905   4.559
  102TCM     h1  676   0.046   2.018   4.744
  102TCM    cl3  677   0.226   1.979   4.591
  103TCM     c1  678   0.866   4.868   0.001
  103TCM    cl1  679   1.013   4.934   0.080
  103TCM    cl2  680   0.865   4.919  -0.171
  103TCM     h1  681   0.866   4.759   0.007
  103TCM    cl3  682   0.720   4.933   0.082
  104TCM     c1  683   0.556   2.040   1.139
  104TCM    cl1  684   0.470   2.127   1.272
  104TCM    cl2  685   0.628   1.889   1.203
  104TCM     h1  686   0.485   2.017   1.059
  104TCM    cl3  687   0.687   2.146   1.076
  105TCM     c1  688   4.460   1.499   2.048
  105TCM    cl1  689   4.574   1.609   2.132
  105TCM    cl2  690   4.493   1.329   2.096
  105TCM     h1  691   4.358   1.525   2.075
  105TCM    cl3  692   4.482   1.517   1.870
  106TCM     c1  693   2.664   1.037   2.585
  106TCM    cl1  694   2.497   0.998   2.639
  106TCM    cl2  695   2.658   1.101   2.418
  106TCM     h1  696   2.706   1.113   2.651
  106TCM    cl3  697   2.765   0.889   2.589
  107TCM     c1  698   2.847   0.423   2.678
  107TCM    cl1  699   2.685   0.344   2.675
  107TCM    cl2  700   2.838   0.573   2.776
  107TCM     h1  701   2.920   0.355   2.721
  107TCM    cl3  702   2.896   0.465   2.511
  108TCM     c1  703   2.261   4.602   1.096
  108TCM    cl1  704   2.321   4.589   1.265
  108TCM    cl2  705   2.246   4.776   1.053
  108TCM     h1  706   2.332   4.553   1.029
  108TCM    cl3  707   2.101   4.522   1.084
  109TCM     c1  708  -0.004   3.296   3.926
  109TCM    cl1  709  -0.140   3.319   3.811
  109TCM    cl2  710   0.130   3.209   3.844
  109TCM     h1  711   0.031   3.394   3.961
  109TCM    cl3  712  -0.061   3.200   4.067
  110TCM     c1  713   2.265   0.040   1.859
  110TCM    cl1  714   2.258   0.126   2.017
  110TCM    cl2  715   2.168  -0.111   1.871
  110TCM     h1  716   2.225   0.104   1.781
  110TCM    cl3  717   2.436   0.000   1.822
  111TCM     c1  718   2.580   4.887   3.415
  111TCM    cl1  719   2.402   4.904   3.425
  111TCM    cl2  720   2.638   4.797   3.559
  111TCM     h1  721   2.608   4.834   3.324
  111TCM    cl3  722   2.655   5.050   3.416
  112TCM     c1  723   3.217   3.364   4.893
  112TCM    cl1  724   3.210   3.476   4.754
  112TCM    cl2  725   3.378   3.285   4.898
  112TCM     h1  726   3.200   3.419   4.986
  112TCM    cl3  727   3.090   3.238   4.874
  113TCM     c1  728   1.794   4.951   4.570
  113TCM    cl1  729   1.616   4.931   4.584
  113TCM    cl2  730   1.833   5.020   4.409
  113TCM     h1  731   1.830   5.019   4.648
  113TCM    cl3  732   1.874   4.791   4.588
  114TCM     c1  733   3.209   3.784   1.643
  114TCM    cl1  734   3.113   3.842   1.783
  114TCM    cl2  735   3.263   3.925   1.545
  114TCM     h1  736   3.296   3.729   1.679
  114TCM    cl3  737   3.108   3.677   1.541
  115TCM     c1  738   4.973   2.545   1.931
  115TCM    cl1  739   4.951   2.643   1.783
  115TCM    cl2  740   5.042   2.386   1.888
  115TCM     h1  741   5.041   2.597   2.000
  115TCM    cl3  742   4.814   2.522   2.011
  116TCM     c1  743   1.907   0.694   3.330
  116TCM    cl1  744   1.979   0.800   3.205
  116TCM    cl2  745   1.899   0.526   3.268
  116TCM     h1  746   1.967   0.696   3.421
  116TCM    cl3  747   1.741   0.751   3.366
  117TCM     c1  748   1.546   4.792   3.496
  117TCM    cl1  749   1.432   4.817   3.632
  117TCM    cl2  750   1.458   4.818   3.341
  117TCM     h1  751   1.628   4.864   3.504
  117TCM    cl3  752   1.611   4.625   3.500
  118TCM     c1  753   1.574   3.170   3.651
  118TCM    cl1  754   1.482   3.232   3.793
  118TCM    cl2  755   1.468   3.067   3.551
  118TCM     h1  756   1.610   3.255   3.592
  118TCM    cl3  757   1.714   3.073   3.708
  119TCM     c1  758   4.543   2.368   2.426
  119TCM    cl1  759   4.480   2.227   2.334
  119TCM    cl2  760   4.490   2.355   2.597
  119TCM     h1  761   4.652   2.370   2.422
  119TCM    cl3  762   4.477   2.518   2.355
  120TCM     c1  763   2.278   1.504   2.013
  120TCM    cl1  764   2.145   1.619   2.049
  120TCM    cl2  765   2.411   1.591   1.930
  120TCM     h1  766   2.315   1.461   2.107
  120TCM    cl3  767   2.217   1.373   1.907
  121TCM     c1  768   1.152   0.035   3.516
  121TCM    cl1  769   1.001   0.117   3.569
  121TCM    cl2  770   1.281   0.157   3.487
  121TCM     h1  771   1.185  -0.034   3.594
  121TCM    cl3  772   1.120  -0.055   3.364
  122TCM     c1  773   4.167   3.661   2.522
  122TCM    cl1  774   4.169   3.791   2.646
  122TCM    cl2  775   4.026   3.554   2.550
  122TCM     h1  776   4.160   3.705   2.423
  122TCM    cl3  777   4.318   3.564   2.534
  123TCM     c1  778   3.867   1.033   3.862
  123TCM    cl1  779   4.026   0.966   3.813
  123TCM    cl2  780   3.857   1.038   4.041
  123TCM     h1  781   3.855   1.134   3.822
  123TCM    cl3  782   3.736   0.928   3.797
  124TCM     c1  783   3.552   1.785   2.302
  124TCM    cl1  784   3.410   1.816   2.407
  124TCM    cl2  785   3.574   1.920   2.187
  124TCM     h1  786   3.641   1.775   2.364
  124TCM    cl3  787   3.526   1.633   2.210
  125TCM     c1  788   4.549   4.087   3.254
  125TCM    cl1  789   4.610   4.114   3.420
  125TCM    cl2  790   4.639   3.949   3.182
  125TCM     h1  791   4.443   4.065   3.256
  125TCM    cl3  792   4.576   4.235   3.155
  126TCM     c1  793   0.324   1.899   0.290
  126TCM    cl1  794   0.343   1.812   0.446
  126TCM    cl2  795   0.233   2.051   0.321
  126TCM     h1  796   0.422   1.922   0.248
  126TCM    cl3  797   0.232   1.796   0.175
  127TCM     c1  798   3.428   1.444   3.347
  127TCM    cl1  799   3.362   1.584   3.437
  127TCM    cl2  800   3.530   1.503   3.211
  127TCM     h1  801   3.488   1.381   3.413
  127TCM    cl3  802   3.292   1.349   3.280
  128TCM     c1  803   1.400   2.271   2.539
  128TCM    cl1  804   1.280   2.283   2.406
  128TCM    cl2  805   1.355   2.136   2.648
  128TCM     h1  806   1.500   2.253   2.497
  128TCM    cl3  807   1.402   2.425   2.632
  129TCM     c1  808   0.269   2.876   0.203
  129TCM    cl1  809   0.320   2.967   0.057
  129TCM    cl2  810   0.411   2.788   0.269
  129TCM     h1  811   0.231   2.946   0.279
  129TCM    cl3  812   0.142   2.758   0.160
  130TCM     c1  813   0.546   4.729   4.788
  130TCM    cl1  814   0.488   4.691   4.953
  130TCM    cl2  815   0.405   4.741   4.678
  130TCM     h1  816   0.599   4.825   4.789
  130TCM    cl3  817   0.658   4.601   4.731
  131TCM     c1  818   4.811   4.551   0.033
  131TCM    cl1  819   4.800   4.508  -0.140
  131TCM    cl2  820   4.900   4.421   0.119
  131TCM     h1  821   4.864   4.646   0.045
  131TCM    cl3  822   4.645   4.565   0.101
  132TCM     c1  823   0.435   1.370   0.394
  132TCM    cl1  824   0.595   1.291   0.376
  132TCM    cl2  825   0.416   1.495   0.267
  132TCM     h1  826   0.356   1.295   0.384
  132TCM    cl3  827   0.424   1.447   0.556
  133TCM     c1  828   2.345   0.254   3.333
  133TCM    cl1  829   2.198   0.349   3.371
  133TCM    cl2  830   2.489   0.362   3.333
  133TCM     h1  831   2.358   0.176   3.409
  133TCM    cl3  832   2.328   0.177   3.172
  134TCM     c1  833   0.352   1.366   3.028
  134TCM    cl1  834   0.481   1.358   3.152
  134TCM    cl2  835   0.404   1.274   2.883
  134TCM     h1  836   0.259   1.324   3.067
  134TCM    cl3  837   0.327   1.538   2.983
  135TCM     c1  838   0.023   4.184   4.860
  135TCM    cl1  839   0.124   4.129   4.721
  135TCM    cl2  840   0.075   4.097   5.007
  135TCM     h1  841   0.036   4.292   4.874
  135TCM    cl3  842  -0.149   4.146   4.827
  136TCM     c1  843   4.042   1.237   1.972
  136TCM    cl1  844   4.153   1.362   1.908
  136TCM    cl2  845   3.905   1.316   2.058
  136TCM     h1  846   4.003   1.177   1.889
  136TCM    cl3  847   4.131   1.131   2.086
  137TCM     c1  848   0.969   0.779   1.796
  137TCM    cl1  849   1.121   0.682   1.792
  137TCM    cl2  850   0.828   0.668   1.799
  137TCM     h1  851   0.968   0.842   1.885
  137TCM    cl3  852   0.960   0.881   1.649
  138TCM     c1  853   2.125   1.707   3.305
  138TCM    cl1  854   1.984   1.711   3.193
  138TCM    cl2  855   2.144   1.867   3.382
  138TCM     h1  856   2.108   1.630   3.381
  138TCM    cl3  857   2.273   1.667   3.212
  139TCM     c1  858   2.475   3.477   3.597
  139TCM    cl1  859   2.417   3.646   3.601
  139TCM    cl2  860   2.382   3.379   3.715
  139TCM     h1  861   2.462   3.436   3.496
  139TCM    cl3  862   2.649   3.474   3.641
  140TCM     c1  863   0.474   1.317   3.597
  140TCM    cl1  864   0.620   1.364   3.503
  140TCM    cl2  865   0.329   1.334   3.493
  140TCM     h1  866   0.483   1.213   3.631
  140TCM    cl3  867   0.460   1.425   3.739
  141TCM     c1  868   0.673   4.621   1.666
  141TCM    cl1  869   0.732   4.516   1.534
  141TCM    cl2  870   0.580   4.758   1.597
  141TCM     h1  871   0.608   4.563   1.733
  141TCM    cl3  872   0.813   4.685   1.758
  142TCM     c1  873   3.530   4.303   2.385
  142TCM    cl1  874   3.684   4.319   2.476
  142TCM    cl2  875   3.495   4.129   2.360
  142TCM     h1  876   3.449   4.350   2.442
  142TCM    cl3  877   3.547   4.385   2.226
  143TCM     c1  878   0.135   2.566   3.474
  143TCM    cl1  879   0.174   2.677   3.338
  143TCM    cl2  880   0.225   2.412   3.452
  143TCM     h1  881   0.165   2.613   3.568
  143TCM    cl3  882  -0.041   2.534   3.477
  144TCM     c1  883   1.601   3.609   1.642
  144TCM    cl1  884   1.692   3.721   1.536
  144TCM    cl2  885   1.442   3.571   1.568
  144TCM     h1  886   1.658   3.517   1.655
  144TCM    cl3  887   1.575   3.686   1.802
  145TCM     c1  888   1.460   1.366   2.597
  145TCM    cl1  889   1.378   1.404   2.751
  145TCM    cl2  890   1.487   1.188   2.586
  145TCM     h1  891   1.399   1.398   2.513
  145TCM    cl3  892   1.618   1.451   2.591
  146TCM     c1  893   3.911   0.012   3.803
  146TCM    cl1  894   3.879  -0.137   3.710
  146TCM    cl2  895   4.089   0.036   3.815
  146TCM     h1  896   3.866   0.098   3.752
  146TCM    cl3  897   3.842  -0.004   3.967
  147TCM     c1  898  -0.001   4.623   4.465
  147TCM    cl1  899   0.100   4.771   4.459
  147TCM    cl2  900  -0.173   4.669   4.478
  147TCM     h1  901   0.015   4.565   4.373
  147TCM    cl3  902   0.046   4.523   4.606
  148TCM     c1  903   0.791   1.538   0.774
  148TCM    cl1  904   0.636   1.624   0.803
  148TCM    cl2  905   0.799   1.483   0.604
  148TCM     h1  906   0.874   1.606   0.795
  148TCM    cl3  907   0.801   1.395   0.882
  149TCM     c1  908   2.401   2.696   0.113
  149TCM    cl1  909   2.400   2.873   0.084
  149TCM    cl2  910   2.235   2.631   0.090
  149TCM     h1  911   2.469   2.647   0.044
  149TCM    cl3  912   2.453   2.663   0.282
  150TCM     c1  913   3.498   1.196   2.985
  150TCM    cl1  914   3.434   1.057   2.891
  150TCM    cl2  915   3.632   1.274   2.894
  150TCM     h1  916   3.419   1.269   3.003
  150TCM    cl3  917   3.562   1.137   3.142
  151TCM     c1  918   3.330   0.252   1.763
  151TCM    cl1  919   3.406   0.381   1.664
  151TCM    cl2  920   3.342   0.096   1.675
  151TCM     h1  921   3.382   0.244   1.859
  151TCM    cl3  922   3.157   0.291   1.790
  152TCM     c1  923   3.916   2.243   1.491
  152TCM    cl1  924   3.910   2.418   1.451
  152TCM    cl2  925   3.950   2.225   1.666
  152TCM     h1  926   3.819   2.197   1.468
  152TCM    cl3  927   4.045   2.162   1.396
  153TCM     c1  928   2.758   4.186   2.507
  153TCM    cl1  929   2.618   4.187   2.619
  153TCM    cl2  930   2.833   4.023   2.508
  153TCM     h1  931   2.724   4.210   2.406
  153TCM    cl3  932   2.879   4.307   2.561
  154TCM     c1  933   4.133   0.957   2.414
  154TCM    cl1  934   4.119   0.927   2.591
  154TCM    cl2  935   4.064   0.819   2.324
  154TCM     h1  936   4.079   1.048   2.389
  154TCM    cl3  937   4.306   0.977   2.370
  155TCM     c1  938   0.959   1.844   4.837
  155TCM    cl1  939   0.839   1.971   4.875
  155TCM    cl2  940   0.944   1.709   4.955
  155TCM     h1  941   0.942   1.806   4.736
  155TCM    cl3  942   1.124   1.914   4.848
  156TCM     c1  943   2.285   4.579   4.154
  156TCM    cl1  944   2.126   4.656   4.188
  156TCM    cl2  945   2.405   4.631   4.276
  156TCM     h1  946   2.275   4.470   4.157
  156TCM    cl3  947   2.340   4.629   3.991
  157TCM     c1  948   2.128   4.879   0.032
  157TCM    cl1  949   2.080   5.050   0.061
  157TCM    cl2  950   2.284   4.876  -0.057
  157TCM     h1  951   2.140   4.828   0.128
  157TCM    cl3  952   2.002   4.798  -0.065
  158TCM     c1  953   1.816   1.093   2.951
  158TCM    cl1  954   1.779   1.096   3.126
  158TCM    cl2  955   1.993   1.090   2.926
  158TCM     h1  956   1.771   1.005   2.905
  158TCM    cl3  957   1.748   1.241   2.874
  159TCM     c1  958   1.743   2.237   0.092
  159TCM    cl1  959   1.635   2.336   0.195
  159TCM    cl2  960   1.871   2.342   0.022
  159TCM     h1  961   1.788   2.158   0.151
  159TCM    cl3  962   1.647   2.164  -0.042
  160TCM     c1  963   2.067   1.737   1.504
  160TCM    cl1  964   2.098   1.652   1.659
  160TCM    cl2  965   2.179   1.876   1.489
  160TCM     h1  966   2.083   1.668   1.421
  160TCM    cl3  967   1.897   1.797   1.501
  161TCM     c1  968   2.552   2.323   0.679
  161TCM    cl1  969   2.686   2.204   0.670
  161TCM    cl2  970   2.540   2.410   0.523
  161TCM     h1  971   2.458   2.271   0.700
  161TCM    cl3  972   2.586   2.442   0.808
  162TCM     c1  973   2.850   1.959   1.909
  162TCM    cl1  974   2.791   2.125   1.939
  162TCM    cl2  975   2.799   1.852   2.043
  162TCM     h1  976   2.809   1.922   1.815
  162TCM    cl3  977   3.030   1.959   1.899
  163TCM     c1  978   4.446   4.647   2.407
  163TCM    cl1  979   4.417   4.536   2.545
  163TCM    cl2  980   4.573   4.765   2.450
  163TCM     h1  981   4.478   4.589   2.319
  163TCM    cl3  982   4.292   4.732   2.370
  164TCM     c1  983   2.984   0.280   4.649
  164TCM    cl1  984   2.992   0.405   4.778
  164TCM    cl2  985   3.019   0.356   4.490
  164TCM     h1  986   3.058   0.202   4.670
  164TCM    cl3  987   2.820   0.207   4.648
  165TCM     c1  988   3.546   4.020   3.647
  165TCM    cl1  989   3.539   3.982   3.822
  165TCM    cl2  990   3.604   4.188   3.625
  165TCM     h1  991   3.614   3.951   3.597
  165TCM    cl3  992   3.382   4.004   3.576
  166TCM     c1  993   1.915   1.130   2.487
  166TCM    cl1  994   1.826   1.007   2.583
  166TCM    cl2  995   1.999   1.243   2.599
  166TCM     h1  996   1.988   1.081   2.423
  166TCM    cl3  997   1.798   1.222   2.387
  167TCM     c1  998   2.502   0.295   4.794
  167TCM    cl1  999   2.521   0.120   4.828
  167TCM    cl2 1000   2.613   0.390   4.899
  167TCM     h1 1001   2.525   0.315   4.689
  167TCM    cl3 1002   2.333   0.342   4.830
  168TCM     c1 1003   2.370   2.840   2.093
  168TCM    cl1 1004   2.393   2.837   2.271
  168TCM    cl2 1005   2.374   3.009   2.034
  168TCM     h1 1006   2.449   2.782   2.045
  168TCM    cl3 1007   2.210   2.768   2.053
  169TCM     c1 1008   0.914   4.867   1.420
  169TCM    cl1 1009   0.816   5.010   1.467
  169TCM    cl2 1010   1.072   4.920   1.356
  169TCM     h1 1011   0.929   4.803   1.508
  169TCM    cl3 1012   0.828   4.773   1.293
  170TCM     c1 1013   3.926   2.328   4.562
  170TCM    cl1 1014   3.787   2.275   4.664
  170TCM    cl2 1015   4.001   2.185   4.484
  170TCM     h1 1016   3.890   2.396   4.485
  170TCM    cl3 1017   4.048   2.410   4.664
  171TCM     c1 1018   1.713   4.594   4.978
  171TCM    cl1 1019   1.627   4.437   4.978
  171TCM    cl2 1020   1.718   4.659   5.145
  171TCM     h1 1021   1.814   4.580   4.941
  171TCM    cl3 1022   1.625   4.710   4.873
  172TCM     c1 1023   3.321   3.632   0.680
  172TCM    cl1 1024   3.202   3.500   0.662
  172TCM    cl2 1025   3.473   3.565   0.749
  172TCM     h1 1026   3.342   3.677   0.582
  172TCM    cl3 1027   3.255   3.757   0.790
  173TCM     c1 1028   4.661   1.234   0.921
  173TCM    cl1 1029   4.837   1.215   0.948
  173TCM    cl2 1030   4.631   1.278   0.749
  173TCM     h1 1031   4.610   1.141   0.944
  173TCM    cl3 1032   4.599   1.364   1.028
  174TCM     c1 1033   3.801   1.847   1.794
  174TCM    cl1 1034   3.970   1.884   1.749
  174TCM    cl2 1035   3.726   1.994   1.865
  174TCM     h1 1036   3.745   1.817   1.705
  174TCM    cl3 1037   3.799   1.714   1.915
  175TCM     c1 1038   3.788   1.656   0.064
  175TCM    cl1 1039   3.732   1.652  -0.106
  175TCM    cl2 1040   3.650   1.624   0.174
  175TCM     h1 1041   3.864   1.579   0.079
  175TCM    cl3 1042   3.857   1.817   0.101
  176TCM     c1 1043   3.974   3.020   0.017
  176TCM    cl1 1044   4.089   3.054   0.150
  176TCM    cl2 1045   4.063   2.942  -0.119
  176TCM     h1 1046   3.895   2.953   0.052
  176TCM    cl3 1047   3.901   3.174  -0.040
  177TCM     c1 1048   1.058   0.497   3.645
  177TCM    cl1 1049   1.108   0.666   3.679
  177TCM    cl2 1050   1.157   0.385   3.745
  177TCM     h1 1051   0.952   0.484   3.669
  177TCM    cl3 1052   1.085   0.464   3.472
  178TCM     c1 1053   3.115   0.023   1.077
  178TCM    cl1 1054   2.984  -0.093   1.117
  178TCM    cl2 1055   3.043   0.183   1.042
  178TCM     h1 1056   3.183   0.032   1.162
  178TCM    cl3 1057   3.206  -0.036   0.934
  179TCM     c1 1058   0.876   0.200   4.002
  179TCM    cl1 1059   0.994   0.080   3.941
  179TCM    cl2 1060   0.823   0.304   3.865
  179TCM     h1 1061   0.790   0.149   4.044
  179TCM    cl3 1062   0.954   0.302   4.128
  180TCM     c1 1063   3.270   0.191   3.176
  180TCM    cl1 1064   3.240   0.303   3.039
  180TCM    cl2 1065   3.167   0.239   3.315
  180TCM     h1 1066   3.246   0.089   3.146
  180TCM    cl3 1067   3.443   0.200   3.224
  181TCM     c1 1068   2.081   0.863   4.175
  181TCM    cl1 1069   2.223   0.947   4.103
  181TCM    cl2 1070   1.936   0.967   4.157
  181TCM     h1 1071   2.065   0.768   4.123
  181TCM    cl3 1072   2.112   0.833   4.349
  182TCM     c1 1073   2.938   0.478   0.306
  182TCM    cl1 1074   3.048   0.574   0.411
  182TCM    cl2 1075   2.928   0.311   0.369
  182TCM     h1 1076   2.839   0.524   0.306
  182TCM    cl3 1077   3.004   0.475   0.139
  183TCM     c1 1078   1.520   1.786   2.468
  183TCM    cl1 1079   1.394   1.756   2.593
  183TCM    cl2 1080   1.675   1.823   2.549
  183TCM     h1 1081   1.531   1.697   2.406
  183TCM    cl3 1082   1.471   1.925   2.365
  184TCM     c1 1083   4.743   3.882   4.601
  184TCM    cl1 1084   4.712   3.717   4.537
  184TCM    cl2 1085   4.592   3.978   4.593
  184TCM     h1 1086   4.778   3.876   4.705
  184TCM    cl3 1087   4.868   3.962   4.500
  185TCM     c1 1088   0.593   0.963   2.829
  185TCM    cl1 1089   0.432   0.895   2.869
  185TCM    cl2 1090   0.589   1.034   2.664
  185TCM     h1 1091   0.620   1.040   2.902
  185TCM    cl3 1092   0.715   0.831   2.834
  186TCM     c1 1093   4.292   0.815   3.606
  186TCM    cl1 1094   4.272   0.689   3.732
  186TCM    cl2 1095   4.277   0.741   3.444
  186TCM     h1 1096   4.216   0.892   3.619
  186TCM    cl3 1097   4.456   0.887   3.623
  187TCM     c1 1098   0.129   4.607   0.334
  187TCM    cl1 1099   0.147   4.572   0.509
  187TCM    cl2 1100   0.281   4.679   0.272
  187TCM     h1 1101   0.109   4.513   0.281
  187TCM    cl3 1102  -0.007   4.721   0.308
  188TCM     c1 1103   0.544   3.361   0.291
  188TCM    cl1 1104   0.571   3.423   0.458
  188TCM    cl2 1105   0.422   3.230   0.296
  188TCM     h1 1106   0.509   3.442   0.227
  188TCM    cl3 1107   0.698   3.295   0.227
  189TCM     c1 1108   1.135   2.281   4.648
  189TCM    cl1 1109   1.006   2.317   4.767
  189TCM    cl2 1110   1.087   2.138   4.551
  189TCM     h1 1111   1.150   2.367   4.582
  189TCM    cl3 1112   1.288   2.245   4.736
  190TCM     c1 1113   0.592   3.060   0.566
  190TCM    cl1 1114   0.671   3.041   0.726
  190TCM    cl2 1115   0.430   2.984   0.571
  190TCM     h1 1116   0.583   3.166   0.543
  190TCM    cl3 1117   0.692   2.980   0.440
  191TCM     c1 1118   4.127   1.379   2.465
  191TCM    cl1 1119   4.195   1.401   2.301
  191TCM    cl2 1120   4.244   1.286   2.565
  191TCM     h1 1121   4.110   1.477   2.511
  191TCM    cl3 1122   3.972   1.290   2.455
  192TCM     c1 1123   1.963   0.345   4.314
  192TCM    cl1 1124   1.955   0.511   4.246
  192TCM    cl2 1125   1.988   0.355   4.491
  192TCM     h1 1126   1.869   0.293   4.293
  192TCM    cl3 1127   2.099   0.255   4.240
  193TCM     c1 1128   0.408   0.011   2.530
  193TCM    cl1 1129   0.524  -0.062   2.415
  193TCM    cl2 1130   0.490   0.141   2.624
  193TCM     h1 1131   0.323   0.054   2.476
  193TCM    cl3 1132   0.349  -0.116   2.643
  194TCM     c1 1133   1.810   4.427   4.557
  194TCM    cl1 1134   1.811   4.269   4.471
  194TCM    cl2 1135   1.881   4.405   4.720
  194TCM     h1 1136   1.869   4.500   4.501
  194TCM    cl3 1137   1.641   4.485   4.573
  195TCM     c1 1138   4.025   4.480   1.216
  195TCM    cl1 1139   3.973   4.392   1.068
  195TCM    cl2 1140   4.200   4.453   1.242
  195TCM     h1 1141   4.006   4.587   1.204
  195TCM    cl3 1142   3.933   4.418   1.358
  196TCM     c1 1143   0.862   2.607   0.344
  196TCM    cl1 1144   1.019   2.585   0.260
  196TCM    cl2 1145   0.807   2.449   0.407
  196TCM     h1 1146   0.874   2.678   0.426
  196TCM    cl3 1147   0.741   2.668   0.227
  197TCM     c1 1148   0.979   0.828   4.052
  197TCM    cl1 1149   0.839   0.857   4.160
  197TCM    cl2 1150   0.952   0.914   3.897
  197TCM     h1 1151   1.070   0.865   4.099
  197TCM    cl3 1152   0.994   0.652   4.020
  198TCM     c1 1153   1.484   1.404   0.541
  198TCM    cl1 1154   1.470   1.582   0.517
  198TCM    cl2 1155   1.462   1.366   0.714
  198TCM     h1 1156   1.408   1.353   0.482
  198TCM    cl3 1157   1.647   1.350   0.488
  199TCM     c1 1158   1.083   4.480   1.407
  199TCM    cl1 1159   1.165   4.323   1.434
  199TCM    cl2 1160   1.146   4.556   1.257
  199TCM     h1 1161   0.975   4.464   1.397
  199TCM    cl3 1162   1.116   4.589   1.545
  200TCM     c1 1163   4.969   2.735   2.486
  200TCM    cl1 1164   4.808   2.657   2.500
  200TCM    cl2 1165   5.039   2.696   2.325
  200TCM     h1 1166   4.959   2.843   2.497
  200TCM    cl3 1167   5.078   2.672   2.614
  201TCM     c1 1168   0.611   2.218   0.226
  201TCM    cl1 1169   0.579   2.111   0.086
  201TCM    cl2 1170   0.608   2.120   0.377
  201TCM     h1 1171   0.709   2.265   0.215
  201TCM    cl3 1172   0.483   2.344   0.234
  202TCM     c1 1173   3.651   4.558   3.260
  202TCM    cl1 1174   3.803   4.581   3.167
  202TCM    cl2 1175   3.661   4.404   3.351
  202TCM     h1 1176   3.636   4.641   3.329
  202TCM    cl3 1177   3.513   4.549   3.145
  203TCM     c1 1178   2.207   0.857   2.385
  203TCM    cl1 1179   2.276   1.015   2.338
  203TCM    cl2 1180   2.060   0.825   2.288
  203TCM     h1 1181   2.281   0.777   2.368
  203TCM    cl3 1182   2.163   0.861   2.559
  204TCM     c1 1183   0.365   4.538   4.201
  204TCM    cl1 1184   0.431   4.647   4.327
  204TCM    cl2 1185   0.295   4.635   4.067
  204TCM     h1 1186   0.445   4.474   4.162
  204TCM    cl3 1187   0.237   4.435   4.271
  205TCM     c1 1188   2.056   4.921   3.635
  205TCM    cl1 1189   2.047   5.016   3.787
  205TCM    cl2 1190   2.054   5.034   3.495
  205TCM     h1 1191   2.148   4.863   3.634
  205TCM    cl3 1192   1.915   4.811   3.625
  206TCM     c1 1193   0.750   0.092   0.949
  206TCM    cl1 1194   0.702  -0.077   0.912
  206TCM    cl2 1195   0.835   0.097   1.107
  206TCM     h1 1196   0.817   0.129   0.871
  206TCM    cl3 1197   0.604   0.195   0.957
  207TCM     c1 1198   2.415   3.080   0.915
  207TCM    cl1 1199   2.267   3.112   1.011
  207TCM    cl2 1200   2.552   3.045   1.025
  207TCM     h1 1201   2.398   2.994   0.850
  207TCM    cl3 1202   2.454   3.224   0.815
  208TCM     c1 1203   0.920   3.625   0.514
  208TCM    cl1 1204   0.910   3.600   0.337
  208TCM    cl2 1205   0.924   3.465   0.596
  208TCM     h1 1206   1.011   3.681   0.539
  208TCM    cl3 1207   0.776   3.717   0.569
  209TCM     c1 1208   3.980   2.164   2.047
  209TCM    cl1 1209   3.863   2.296   2.014
  209TCM    cl2 1210   3.926   2.073   2.192
  209TCM     h1 1211   3.986   2.097   1.961
  209TCM    cl3 1212   4.142   2.237   2.078
  210TCM     c1 1213   2.695   2.196   1.238
  210TCM    cl1 1214   2.601   2.217   1.086
  210TCM    cl2 1215   2.796   2.341   1.267
  210TCM     h1 1216   2.626   2.182   1.322
  210TCM    cl3 1217   2.800   2.051   1.223
  211TCM     c1 1218   2.583   3.436   4.114
  211TCM    cl1 1219   2.696   3.505   4.236
  211TCM    cl2 1220   2.521   3.568   4.009
  211TCM     h1 1221   2.636   3.362   4.053
  211TCM    cl3 1222   2.446   3.357   4.198
  212TCM     c1 1223   1.131   2.575   4.241
  212TCM    cl1 1224   1.122   2.593   4.419
  212TCM    cl2 1225   1.090   2.407   4.196
  212TCM     h1 1226   1.061   2.644   4.194
  212TCM    cl3 1227   1.298   2.613   4.185
  213TCM     c1 1228   1.824   2.775   3.439
  213TCM    cl1 1229   1.938   2.803   3.575
  213TCM    cl2 1230   1.899   2.662   3.321
  213TCM     h1 1231   1.731   2.733   3.477
  213TCM    cl3 1232   1.791   2.932   3.358
  214TCM     c1 1233   3.601   4.567   3.784
  214TCM    cl1 1234   3.449   4.471   3.790
  214TCM    cl2 1235   3.590   4.701   3.903
  214TCM     h1 1236   3.686   4.502   3.809
  214TCM    cl3 1237   3.622   4.634   3.620
  215TCM     c1 1238   0.097   3.276   0.525
  215TCM    cl1 1239   0.245   3.322   0.615
  215TCM    cl2 1240   0.096   3.099   0.498
  215TCM     h1 1241   0.009   3.305   0.583
  215TCM    cl3 1242   0.094   3.361   0.367
  216TCM     c1 1243   1.153   2.196   0.085
  216TCM    cl1 1244   1.215   2.074   0.202
  216TCM    cl2 1245   1.256   2.343   0.091
  216TCM     h1 1246   1.155   2.154  -0.015
  216TCM    cl3 1247   0.984   2.239   0.128
  217TCM     c1 1248   0.185   1.950   2.706
  217TCM    cl1 1249   0.201   1.842   2.564
  217TCM    cl2 1250   0.278   2.101   2.678
  217TCM     h1 1251   0.080   1.973   2.723
  217TCM    cl3 1252   0.255   1.866   2.849
  218TCM     c1 1253   3.415   0.171   4.642
  218TCM    cl1 1254   3.280   0.075   4.575
  218TCM    cl2 1255   3.474   0.094   4.793
  218TCM     h1 1256   3.497   0.176   4.569
  218TCM    cl3 1257   3.357   0.337   4.678
  219TCM     c1 1258   1.787   2.698   2.065
  219TCM    cl1 1259   1.742   2.829   2.180
  219TCM    cl2 1260   1.864   2.769   1.919
  219TCM     h1 1261   1.857   2.629   2.113
  219TCM    cl3 1262   1.638   2.609   2.017
  220TCM     c1 1263   3.623   0.439   3.912
  220TCM    cl1 1264   3.727   0.330   3.815
  220TCM    cl2 1265   3.464   0.360   3.941
  220TCM     h1 1266   3.671   0.461   4.008
  220TCM    cl3 1267   3.596   0.592   3.821
  221TCM     c1 1268   0.243   3.791   1.309
  221TCM    cl1 1269   0.394   3.881   1.271
  221TCM    cl2 1270   0.190   3.832   1.475
  221TCM     h1 1271   0.165   3.819   1.238
  221TCM    cl3 1272   0.276   3.615   1.299
  222TCM     c1 1273   0.013   1.534   0.870
  222TCM    cl1 1274  -0.149   1.565   0.798
  222TCM    cl2 1275   0.029   1.627   1.022
  222TCM     h1 1276   0.024   1.427   0.890
  222TCM    cl3 1277   0.139   1.587   0.754
  223TCM     c1 1278   3.328   2.431   2.632
  223TCM    cl1 1279   3.499   2.472   2.667
  223TCM    cl2 1280   3.230   2.581   2.623
  223TCM     h1 1281   3.322   2.377   2.538
  223TCM    cl3 1282   3.264   2.328   2.765
  224TCM     c1 1283   0.132   4.691   2.923
  224TCM    cl1 1284   0.148   4.590   2.776
  224TCM    cl2 1285   0.092   4.586   3.063
  224TCM     h1 1286   0.227   4.743   2.942
  224TCM    cl3 1287   0.001   4.811   2.899
  225TCM     c1 1288   0.019   4.668   2.446
  225TCM    cl1 1289  -0.004   4.828   2.525
  225TCM    cl2 1290   0.191   4.646   2.402
  225TCM     h1 1291  -0.011   4.588   2.516
  225TCM    cl3 1292  -0.083   4.660   2.299
  226TCM     c1 1293   0.434   2.465   2.279
  226TCM    cl1 1294   0.294   2.481   2.167
  226TCM    cl2 1295   0.561   2.364   2.203
  226TCM     h1 1296   0.474   2.564   2.301
  226TCM    cl3 1297   0.378   2.389   2.432
  227TCM     c1 1298   0.246   3.996   2.801
  227TCM    cl1 1299   0.104   3.906   2.739
  227TCM    cl2 1300   0.396   3.932   2.726
  227TCM     h1 1301   0.235   4.102   2.777
  227TCM    cl3 1302   0.255   3.976   2.979
  228TCM     c1 1303   2.269   0.535   3.951
  228TCM    cl1 1304   2.283   0.563   4.127
  228TCM    cl2 1305   2.157   0.656   3.881
  228TCM     h1 1306   2.368   0.545   3.904
  228TCM    cl3 1307   2.205   0.371   3.920
  229TCM     c1 1308   1.806   1.684   2.183
  229TCM    cl1 1309   1.631   1.654   2.155
  229TCM    cl2 1310   1.862   1.582   2.319
  229TCM     h1 1311   1.863   1.659   2.093
  229TCM    cl3 1312   1.830   1.857   2.224
  230TCM     c1 1313   1.174   3.205   2.268
  230TCM    cl1 1314   1.094   3.355   2.324
  230TCM    cl2 1315   1.131   3.175   2.096
  230TCM     h1 1316   1.283   3.215   2.277
  230TCM    cl3 1317   1.120   3.067   2.369
  231TCM     c1 1318   4.496   3.816   2.876
  231TCM    cl1 1319   4.407   3.968   2.908
  231TCM    cl2 1320   4.543   3.811   2.703
  231TCM     h1 1321   4.586   3.812   2.939
  231TCM    cl3 1322   4.390   3.676   2.915
  232TCM     c1 1323   3.971   0.742   4.503
  232TCM    cl1 1324   3.925   0.766   4.675
  232TCM    cl2 1325   3.936   0.893   4.412
  232TCM     h1 1326   4.078   0.719   4.497
  232TCM    cl3 1327   3.876   0.607   4.433
  233TCM     c1 1328   0.187   2.929   4.680
  233TCM    cl1 1329   0.240   3.100   4.695
  233TCM    cl2 1330   0.062   2.894   4.805
  233TCM     h1 1331   0.144   2.912   4.581
  233TCM    cl3 1332   0.328   2.821   4.704
  234TCM     c1 1333   0.771   1.762   0.283
  234TCM    cl1 1334   0.700   1.776   0.447
  234TCM    cl2 1335   0.889   1.895   0.259
  234TCM     h1 1336   0.822   1.665   0.273
  234TCM    cl3 1337   0.640   1.775   0.162
  235TCM     c1 1338   1.666   1.877   1.799
  235TCM    cl1 1339   1.585   1.948   1.943
  235TCM    cl2 1340   1.551   1.770   1.712
  235TCM     h1 1341   1.698   1.958   1.732
  235TCM    cl3 1342   1.809   1.782   1.851
  236TCM     c1 1343   2.415   4.521   3.577
  236TCM    cl1 1344   2.285   4.628   3.639
  236TCM    cl2 1345   2.413   4.527   3.398
  236TCM     h1 1346   2.512   4.556   3.615
  236TCM    cl3 1347   2.385   4.354   3.634
  237TCM     c1 1348   3.107   0.315   1.424
  237TCM    cl1 1349   2.990   0.180   1.447
  237TCM    cl2 1350   3.035   0.438   1.316
  237TCM     h1 1351   3.132   0.360   1.520
  237TCM    cl3 1352   3.256   0.250   1.347
  238TCM     c1 1353   2.214   4.626   4.668
  238TCM    cl1 1354   2.167   4.523   4.529
  238TCM    cl2 1355   2.379   4.691   4.641
  238TCM     h1 1356   2.143   4.709   4.677
  238TCM    cl3 1357   2.211   4.529   4.818
  239TCM     c1 1358   2.608   1.672   3.061
  239TCM    cl1 1359   2.656   1.596   3.216
  239TCM    cl2 1360   2.540   1.545   2.953
  239TCM     h1 1361   2.532   1.749   3.079
  239TCM    cl3 1362   2.752   1.746   2.983
  240TCM     c1 1363   0.483   1.677   4.748
  240TCM    cl1 1364   0.398   1.549   4.841
  240TCM    cl2 1365   0.654   1.627   4.722
  240TCM     h1 1366   0.434   1.692   4.651
  240TCM    cl3 1367   0.480   1.831   4.839
  241TCM     c1 1368   2.871   0.890   2.972
  241TCM    cl1 1369   3.020   0.879   2.872
  241TCM    cl2 1370   2.773   1.030   2.918
  241TCM     h1 1371   2.813   0.798   2.961
  241TCM    cl3 1372   2.916   0.913   3.144
  242TCM     c1 1373   3.351   0.611   1.211
  242TCM    cl1 1374   3.442   0.673   1.070
  242TCM    cl2 1375   3.239   0.738   1.270
  242TCM     h1 1376   3.294   0.522   1.182
  242TCM    cl3 1377   3.465   0.567   1.343
  243TCM     c1 1378   0.485   0.183   0.232
  243TCM    cl1 1379   0.459   0.321   0.343
  243TCM    cl2 1380   0.362   0.187   0.102
  243TCM     h1 1381   0.585   0.190   0.188
  243TCM    cl3 1382   0.471   0.029   0.323
  244TCM     c1 1383   0.183   3.770   3.797
  244TCM    cl1 1384   0.314   3.762   3.918
  244TCM    cl2 1385   0.054   3.653   3.842
  244TCM     h1 1386   0.141   3.871   3.794
  244TCM    cl3 1387   0.248   3.726   3.635
  245TCM     c1 1388   4.731   4.284   4.386
  245TCM    cl1 1389   4.906   4.301   4.352
  245TCM    cl2 1390   4.638   4.395   4.281
  245TCM     h1 1391   4.700   4.181   4.368
  245TCM    cl3 1392   4.700   4.327   4.558
  246TCM     c1 1393   3.538   1.830   0.754
  246TCM    cl1 1394   3.571   2.006   0.741
  246TCM    cl2 1395   3.517   1.787   0.927
  246TCM     h1 1396   3.447   1.805   0.698
  246TCM    cl3 1397   3.677   1.738   0.688
  247TCM     c1 1398   3.320   4.378   3.471
  247TCM    cl1 1399   3.187   4.310   3.571
  247TCM    cl2 1400   3.298   4.555   3.454
  247TCM     h1 1401   3.416   4.357   3.519
  247TCM    cl3 1402   3.315   4.301   3.309
  248TCM     c1 1403   1.742   4.791   3.122
  248TCM    cl1 1404   1.764   4.613   3.124
  248TCM    cl2 1405   1.823   4.860   2.977
  248TCM     h1 1406   1.635   4.815   3.118
  248TCM    cl3 1407   1.814   4.861   3.270
  249TCM     c1 1408   2.262   0.305   2.347
  249TCM    cl1 1409   2.358   0.265   2.494
  249TCM    cl2 1410   2.223   0.480   2.346
  249TCM     h1 1411   2.320   0.279   2.258
  249TCM    cl3 1412   2.110   0.211   2.350
  250TCM     c1 1413   2.800   1.855   3.963
  250TCM    cl1 1414   2.749   1.949   4.107
  250TCM    cl2 1415   2.946   1.931   3.892
  250TCM     h1 1416   2.822   1.752   3.993
  250TCM    cl3 1417   2.668   1.856   3.842
  251TCM     c1 1418   2.888   2.415   0.265
  251TCM    cl1 1419   2.805   2.531   0.156
  251TCM    cl2 1420   3.043   2.362   0.191
  251TCM     h1 1421   2.908   2.464   0.361
  251TCM    cl3 1422   2.783   2.272   0.292
  252TCM     c1 1423   1.173   0.158   4.800
  252TCM    cl1 1424   1.147   0.086   4.638
  252TCM    cl2 1425   1.036   0.267   4.838
  252TCM     h1 1426   1.179   0.078   4.875
  252TCM    cl3 1427   1.325   0.253   4.801
  253TCM     c1 1428   0.596   1.516   1.497
  253TCM    cl1 1429   0.676   1.637   1.604
  253TCM    cl2 1430   0.638   1.351   1.553
  253TCM     h1 1431   0.488   1.530   1.502
  253TCM    cl3 1432   0.653   1.540   1.329
  254TCM     c1 1433   4.649   3.069   0.510
  254TCM    cl1 1434   4.765   2.972   0.414
  254TCM    cl2 1435   4.503   3.102   0.411
  254TCM     h1 1436   4.620   3.014   0.600
  254TCM    cl3 1437   4.725   3.225   0.558
  255TCM     c1 1438   0.315   1.638   3.982
  255TCM    cl1 1439   0.369   1.688   4.146
  255TCM    cl2 1440   0.238   1.777   3.898
  255TCM     h1 1441   0.402   1.605   3.924
  255TCM    cl3 1442   0.198   1.503   3.995
  256TCM     c1 1443   0.742   0.652   0.129
  256TCM    cl1 1444   0.582   0.589   0.078
  256TCM    cl2 1445   0.845   0.516   0.185
  256TCM     h1 1446   0.791   0.702   0.045
  256TCM    cl3 1447   0.720   0.769   0.264
  257TCM     c1 1448   3.312   4.732   4.722
  257TCM    cl1 1449   3.375   4.755   4.889
  257TCM    cl2 1450   3.237   4.570   4.707
  257TCM     h1 1451   3.238   4.809   4.700
  257TCM    cl3 1452   3.449   4.747   4.606
  258TCM     c1 1453   3.019   4.075   3.334
  258TCM    cl1 1454   2.908   4.102   3.472
  258TCM    cl2 1455   2.925   4.083   3.181
  258TCM     h1 1456   3.096   4.152   3.333
  258TCM    cl3 1457   3.095   3.914   3.349
  259TCM     c1 1458   2.692   4.359   2.963
  259TCM    cl1 1459   2.867   4.368   2.922
  259TCM    cl2 1460   2.661   4.451   3.114
  259TCM     h1 1461   2.634   4.403   2.881
  259TCM    cl3 1462   2.644   4.188   2.986
  260TCM     c1 1463   3.072   1.072   2.555
  260TCM    cl1 1464   2.988   1.190   2.661
  260TCM    cl2 1465   3.249   1.100   2.563
  260TCM     h1 1466   3.048   0.971   2.587
  260TCM    cl3 1467   3.016   1.098   2.386
  261TCM     c1 1468   4.402   1.935   0.024
  261TCM    cl1 1469   4.533   1.994   0.131
  261TCM    cl2 1470   4.256   1.898   0.121
  261TCM     h1 1471   4.379   2.011  -0.051
  261TCM    cl3 1472   4.458   1.786  -0.059
  262TCM     c1 1473   3.072   2.124   0.481
  262TCM    cl1 1474   3.233   2.066   0.534
  262TCM    cl2 1475   3.031   2.274   0.572
  262TCM     h1 1476   3.075   2.146   0.374
  262TCM    cl3 1477   2.948   1.999   0.513
  263TCM     c1 1478   4.437   4.692   0.939
  263TCM    cl1 1479   4.519   4.596   1.066
  263TCM    cl2 1480   4.262   4.705   0.979
  263TCM     h1 1481   4.481   4.792   0.934
  263TCM    cl3 1482   4.455   4.611   0.780
  264TCM     c1 1483   4.343   0.640   3.056
  264TCM    cl1 1484   4.271   0.505   3.150
  264TCM    cl2 1485   4.244   0.667   2.909
  264TCM     h1 1486   4.345   0.731   3.117
  264TCM    cl3 1487   4.510   0.596   3.006
  265TCM     c1 1488   3.551   2.107   0.387
  265TCM    cl1 1489   3.721   2.160   0.361
  265TCM    cl2 1490   3.542   1.928   0.374
  265TCM     h1 1491   3.518   2.138   0.487
  265TCM    cl3 1492   3.445   2.181   0.263
  266TCM     c1 1493   1.637   0.085   2.756
  266TCM    cl1 1494   1.618   0.172   2.912
  266TCM    cl2 1495   1.781   0.147   2.669
  266TCM     h1 1496   1.649  -0.022   2.775
  266TCM    cl3 1497   1.491   0.110   2.655
  267TCM     c1 1498   1.192   4.635   4.763
  267TCM    cl1 1499   1.262   4.789   4.820
  267TCM    cl2 1500   1.050   4.594   4.866
  267TCM     h1 1501   1.160   4.645   4.659
  267TCM    cl3 1502   1.314   4.504   4.776
  268TCM     c1 1503   4.762   0.065   4.380
  268TCM    cl1 1504   4.825  -0.039   4.248
  268TCM    cl2 1505   4.887   0.082   4.507
  268TCM     h1 1506   4.736   0.163   4.340
  268TCM    cl3 1507   4.616  -0.011   4.451
  269TCM     c1 1508   4.258   4.710   0.064
  269TCM    cl1 1509   4.083   4.748   0.063
  269TCM    cl2 1510   4.310   4.668   0.231
  269TCM     h1 1511   4.278   4.626  -0.003
  269TCM    cl3 1512   4.352   4.853   0.010
  270TCM     c1 1513   0.171   2.491   3.975
  270TCM    cl1 1514   0.258   2.516   3.820
  270TCM    cl2 1515   0.290   2.468   4.108
  270TCM     h1 1516   0.109   2.579   3.997
  270TCM    cl3 1517   0.066   2.346   3.963
  271TCM     c1 1518   3.927   1.491   1.547
  271TCM    cl1 1519   3.969   1.396   1.401
  271TCM    cl2 1520   4.074   1.577   1.605
  271TCM     h1 1521   3.849   1.563   1.523
  271TCM    cl3 1522   3.870   1.381   1.677
  272TCM     c1 1523   1.297   4.752   0.232
  272TCM    cl1 1524   1.434   4.804   0.334
  272TCM    cl2 1525   1.156   4.714   0.336
  272TCM     h1 1526   1.271   4.832   0.162
  272TCM    cl3 1527   1.343   4.605   0.139
  273TCM     c1 1528   3.120   0.804   3.922
  273TCM    cl1 1529   3.115   0.845   3.747
  273TCM    cl2 1530   3.208   0.649   3.943
  273TCM     h1 1531   3.171   0.884   3.976
  273TCM    cl3 1532   2.953   0.787   3.984
  274TCM     c1 1533   4.236   3.479   3.307
  274TCM    cl1 1534   4.220   3.425   3.137
  274TCM    cl2 1535   4.266   3.337   3.412
  274TCM     h1 1536   4.319   3.550   3.315
  274TCM    cl3 1537   4.083   3.559   3.358
  275TCM     c1 1538   1.234   0.756   0.336
  275TCM    cl1 1539   1.069   0.728   0.400
  275TCM    cl2 1540   1.329   0.605   0.354
  275TCM     h1 1541   1.229   0.784   0.231
  275TCM    cl3 1542   1.313   0.888   0.430
  276TCM     c1 1543   0.968   1.808   1.081
  276TCM    cl1 1544   1.026   1.642   1.045
  276TCM    cl2 1545   0.869   1.866   0.943
  276TCM     h1 1546   0.907   1.807   1.172
  276TCM    cl3 1547   1.109   1.917   1.102
  277TCM     c1 1548   3.241   2.909   2.226
  277TCM    cl1 1549   3.263   2.899   2.048
  277TCM    cl2 1550   3.340   3.044   2.291
  277TCM     h1 1551   3.136   2.927   2.249
  277TCM    cl3 1552   3.293   2.755   2.302
  278TCM     c1 1553   2.836   3.607   2.536
  278TCM    cl1 1554   2.768   3.512   2.672
  278TCM    cl2 1555   2.877   3.496   2.401
  278TCM     h1 1556   2.762   3.681   2.502
  278TCM    cl3 1557   2.985   3.691   2.591
  279TCM     c1 1558   1.081   1.045   0.024
  279TCM    cl1 1559   1.017   0.883   0.066
  279TCM    cl2 1560   1.130   1.046  -0.149
  279TCM     h1 1561   1.004   1.121   0.040
  279TCM    cl3 1562   1.224   1.080   0.126
  280TCM     c1 1563   2.921   0.001   0.582
  280TCM    cl1 1564   3.099  -0.008   0.565
  280TCM    cl2 1565   2.878  -0.001   0.757
  280TCM     h1 1566   2.884   0.093   0.537
  280TCM    cl3 1567   2.844  -0.140   0.501
  281TCM     c1 1568   1.958   3.493   0.719
  281TCM    cl1 1569   1.943   3.627   0.838
  281TCM    cl2 1570   1.804   3.401   0.714
  281TCM     h1 1571   1.979   3.535   0.620
  281TCM    cl3 1572   2.090   3.384   0.770
  282TCM     c1 1573   2.618   3.666   1.699
  282TCM    cl1 1574   2.775   3.745   1.660
  282TCM    cl2 1575   2.577   3.700   1.870
  282TCM     h1 1576   2.540   3.706   1.634
  282TCM    cl3 1577   2.633   3.489   1.673
  283TCM     c1 1578   4.360   0.158   4.024
  283TCM    cl1 1579   4.496   0.138   4.139
  283TCM    cl2 1580   4.389   0.304   3.924
  283TCM     h1 1581   4.352   0.071   3.960
  283TCM    cl3 1582   4.208   0.177   4.118
  284TCM     c1 1583   4.494   2.848   4.626
  284TCM    cl1 1584   4.631   2.808   4.735
  284TCM    cl2 1585   4.340   2.788   4.697
  284TCM     h1 1586   4.488   2.957   4.614
  284TCM    cl3 1587   4.519   2.771   4.466
  285TCM     c1 1588   0.622   4.687   2.140
  285TCM    cl1 1589   0.518   4.705   1.995
  285TCM    cl2 1590   0.758   4.803   2.129
  285TCM     h1 1591   0.563   4.708   2.230
  285TCM    cl3 1592   0.686   4.520   2.146
  286TCM     c1 1593   4.971   0.162   0.357
  286TCM    cl1 1594   4.818   0.077   0.397
  286TCM    cl2 1595   4.969   0.214   0.185
  286TCM     h1 1596   4.983   0.249   0.421
  286TCM    cl3 1597   5.109   0.050   0.383
  287TCM     c1 1598   4.351   0.272   3.476
  287TCM    cl1 1599   4.437   0.221   3.327
  287TCM    cl2 1600   4.431   0.416   3.546
  287TCM     h1 1601   4.247   0.297   3.452
  287TCM    cl3 1602   4.355   0.138   3.595
  288TCM     c1 1603   3.400   4.950   4.120
  288TCM    cl1 1604   3.305   4.893   4.261
  288TCM    cl2 1605   3.528   5.062   4.177
  288TCM     h1 1606   3.446   4.864   4.070
  288TCM    cl3 1607   3.292   5.036   4.006
  289TCM     c1 1608   1.110   1.652   1.562
  289TCM    cl1 1609   1.215   1.798   1.553
  289TCM    cl2 1610   0.995   1.655   1.425
  289TCM     h1 1611   1.172   1.562   1.557
  289TCM    cl3 1612   1.019   1.654   1.717
  290TCM     c1 1613   0.341   0.184   1.653
  290TCM    cl1 1614   0.230   0.192   1.793
  290TCM    cl2 1615   0.261   0.094   1.520
  290TCM     h1 1616   0.366   0.285   1.619
  290TCM    cl3 1617   0.492   0.098   1.701
  291TCM     c1 1618   3.220   1.477   2.625
  291TCM    cl1 1619   3.315   1.464   2.473
  291TCM    cl2 1620   3.177   1.648   2.655
  291TCM     h1 1621   3.129   1.417   2.616
  291TCM    cl3 1622   3.319   1.415   2.761
  292TCM     c1 1623   3.399   0.211   0.225
  292TCM    cl1 1624   3.345   0.302   0.080
  292TCM    cl2 1625   3.395   0.035   0.190
  292TCM     h1 1626   3.501   0.241   0.251
  292TCM    cl3 1627   3.289   0.247   0.362
  293TCM     c1 1628   0.317   1.240   2.089
  293TCM    cl1 1629   0.260   1.237   1.919
  293TCM    cl2 1630   0.181   1.200   2.198
  293TCM     h1 1631   0.398   1.167   2.101
  293TCM    cl3 1632   0.379   1.404   2.129
  294TCM     c1 1633   2.663   3.518   1.249
  294TCM    cl1 1634   2.635   3.670   1.159
  294TCM    cl2 1635   2.817   3.531   1.340
  294TCM     h1 1636   2.581   3.500   1.319
  294TCM    cl3 1637   2.672   3.381   1.134
  295TCM     c1 1638   2.202   2.529   4.293
  295TCM    cl1 1639   2.320   2.411   4.228
  295TCM    cl2 1640   2.285   2.641   4.407
  295TCM     h1 1641   2.158   2.587   4.211
  295TCM    cl3 1642   2.072   2.441   4.381
  296TCM     c1 1643   0.427   2.016   0.742
  296TCM    cl1 1644   0.606   2.003   0.731
  296TCM    cl2 1645   0.383   2.157   0.843
  296TCM     h1 1646   0.385   2.027   0.642
  296TCM    cl3 1647   0.362   1.867   0.819
  297TCM     c1 1648   2.500   0.364   1.601
  297TCM    cl1 1649   2.538   0.201   1.536
  297TCM    cl2 1650   2.359   0.356   1.711
  297TCM     h1 1651   2.587   0.403   1.655
  297TCM    cl3 1652   2.462   0.474   1.464
  298TCM     c1 1653   2.437   3.539   0.027
  298TCM    cl1 1654   2.556   3.506  -0.104
  298TCM    cl2 1655   2.433   3.399   0.139
  298TCM     h1 1656   2.466   3.629   0.081
  298TCM    cl3 1657   2.274   3.564  -0.045
  299TCM     c1 1658   0.248   3.389   0.022
  299TCM    cl1 1659   0.394   3.315  -0.053
  299TCM    cl2 1660   0.113   3.385  -0.095
  299TCM     h1 1661   0.221   3.333   0.112
  299TCM    cl3 1662   0.287   3.559   0.066
  300TCM     c1 1663   3.404   1.912   1.744
  300TCM    cl1 1664   3.402   1.799   1.882
  300TCM    cl2 1665   3.366   2.078   1.802
  300TCM     h1 1666   3.502   1.912   1.696
  300TCM    cl3 1667   3.280   1.862   1.624
  301TCM     c1 1668   2.127   2.972   2.506
  301TCM    cl1 1669   2.075   3.135   2.561
  301TCM    cl2 1670   2.051   2.935   2.347
  301TCM     h1 1671   2.236   2.969   2.496
  301TCM    cl3 1672   2.075   2.849   2.626
  302TCM     c1 1673   4.377   2.645   0.736
  302TCM    cl1 1674   4.202   2.607   0.752
  302TCM    cl2 1675   4.448   2.670   0.898
  302TCM     h1 1676   4.428   2.561   0.687
  302TCM    cl3 1677   4.397   2.794   0.637
  303TCM     c1 1678   0.130   4.226   1.383
  303TCM    cl1 1679   0.004   4.159   1.492
  303TCM    cl2 1680   0.134   4.130   1.231
  303TCM     h1 1681   0.107   4.330   1.360
  303TCM    cl3 1682   0.290   4.216   1.464
  304TCM     c1 1683   3.025   1.494   3.605
  304TCM    cl1 1684   3.142   1.368   3.656
  304TCM    cl2 1685   2.946   1.564   3.751
  304TCM     h1 1686   3.077   1.573   3.551
  304TCM    cl3 1687   2.900   1.420   3.500
  305TCM     c1 1688   0.978   3.689   2.053
  305TCM    cl1 1689   0.993   3.520   1.994
  305TCM    cl2 1690   1.131   3.777   2.020
  305TCM     h1 1691   0.895   3.738   2.002
  305TCM    cl3 1692   0.949   3.687   2.230
  306TCM     c1 1693   2.943   4.045   2.071
  306TCM    cl1 1694   2.806   3.977   1.978
  306TCM    cl2 1695   3.018   3.915   2.170
  306TCM     h1 1696   3.017   4.085   2.002
  306TCM    cl3 1697   2.885   4.176   2.179
  307TCM     c1 1698   1.370   2.753   2.259
  307TCM    cl1 1699   1.439   2.875   2.371
  307TCM    cl2 1700   1.285   2.836   2.125
  307TCM     h1 1701   1.451   2.691   2.218
  307TCM    cl3 1702   1.255   2.649   2.348
  308TCM     c1 1703   4.651   0.058   4.986
  308TCM    cl1 1704   4.765   0.144   4.878
  308TCM    cl2 1705   4.583   0.172   5.106
  308TCM     h1 1706   4.569   0.016   4.926
  308TCM    cl3 1707   4.736  -0.075   5.071
  309TCM     c1 1708   4.042   4.518   2.571
  309TCM    cl1 1709   3.979   4.441   2.720
  309TCM    cl2 1710   3.940   4.660   2.531
  309TCM     h1 1711   4.145   4.550   2.588
  309TCM    cl3 1712   4.038   4.401   2.435
  310TCM     c1 1713   1.258   0.006   3.023
  310TCM    cl1 1714   1.317   0.146   3.118
  310TCM    cl2 1715   1.395  -0.105   2.989
  310TCM     h1 1716   1.181  -0.046   3.079
  310TCM    cl3 1717   1.190   0.065   2.868
  311TCM     c1 1718   3.401   4.984   3.624
  311TCM    cl1 1719   3.539   5.027   3.731
  311TCM    cl2 1720   3.311   4.846   3.696
  311TCM     h1 1721   3.335   5.070   3.613
  311TCM    cl3 1722   3.464   4.934   3.464
  312TCM     c1 1723   3.520   2.038   4.898
  312TCM    cl1 1724   3.554   1.980   4.732
  312TCM    cl2 1725   3.668   2.110   4.969
  312TCM     h1 1726   3.440   2.113   4.895
  312TCM    cl3 1727   3.468   1.900   4.999
  313TCM     c1 1728   4.345   4.104   2.557
  313TCM    cl1 1729   4.500   4.174   2.500
  313TCM    cl2 1730   4.237   4.076   2.416
  313TCM     h1 1731   4.364   4.009   2.607
  313TCM    cl3 1732   4.266   4.217   2.672
  314TCM     c1 1733   4.741   2.942   2.162
  314TCM    cl1 1734   4.879   2.890   2.060
  314TCM    cl2 1735   4.802   3.002   2.319
  314TCM     h1 1736   4.686   3.022   2.111
  314TCM    cl3 1737   4.632   2.803   2.190
  315TCM     c1 1738   0.940   2.146   0.690
  315TCM    cl1 1739   1.088   2.134   0.790
  315TCM    cl2 1740   0.986   2.156   0.516
  315TCM     h1 1741   0.878   2.057   0.705
  315TCM    cl3 1742   0.847   2.292   0.736
  316TCM     c1 1743   0.736   1.754   3.874
  316TCM    cl1 1744   0.703   1.594   3.947
  316TCM    cl2 1745   0.804   1.862   4.000
  316TCM     h1 1746   0.808   1.743   3.793
  316TCM    cl3 1747   0.584   1.824   3.810
  317TCM     c1 1748   3.838   3.423   1.169
  317TCM    cl1 1749   3.818   3.576   1.077
  317TCM    cl2 1750   3.691   3.392   1.267
  317TCM     h1 1751   3.854   3.340   1.100
  317TCM    cl3 1752   3.980   3.438   1.279
  318TCM     c1 1753   0.156   4.959   2.071
  318TCM    cl1 1754   0.154   4.789   2.013
  318TCM    cl2 1755   0.199   4.962   2.245
  318TCM     h1 1756   0.231   5.016   2.014
  318TCM    cl3 1757  -0.006   5.033   2.048
  319TCM     c1 1758   1.099   2.093   1.745
  319TCM    cl1 1759   1.247   2.029   1.824
  319TCM    cl2 1760   1.079   2.266   1.789
  319TCM     h1 1761   1.108   2.083   1.637
  319TCM    cl3 1762   0.956   2.002   1.803
  320TCM     c1 1763   0.481   2.163   4.011
  320TCM    cl1 1764   0.635   2.200   3.925
  320TCM    cl2 1765   0.505   2.020   4.116
  320TCM     h1 1766   0.452   2.249   4.072
  320TCM    cl3 1767   0.353   2.128   3.890
  321TCM     c1 1768   0.747   0.724   4.698
  321TCM    cl1 1769   0.570   0.705   4.674
  321TCM    cl2 1770   0.814   0.577   4.777
  321TCM     h1 1771   0.796   0.739   4.602
  321TCM    cl3 1772   0.777   0.866   4.804
  322TCM     c1 1773   3.316   2.909   0.837
  322TCM    cl1 1774   3.322   2.764   0.942
  322TCM    cl2 1775   3.146   2.955   0.804
  322TCM     h1 1776   3.367   2.992   0.886
  322TCM    cl3 1777   3.397   2.873   0.681
  323TCM     c1 1778   3.737   4.892   3.014
  323TCM    cl1 1779   3.568   4.883   3.072
  323TCM    cl2 1780   3.785   5.064   3.005
  323TCM     h1 1781   3.803   4.840   3.085
  323TCM    cl3 1782   3.751   4.814   2.853
  324TCM     c1 1783   4.349   3.192   4.915
  324TCM    cl1 1784   4.483   3.178   4.796
  324TCM    cl2 1785   4.238   3.323   4.862
  324TCM     h1 1786   4.294   3.098   4.920
  324TCM    cl3 1787   4.416   3.233   5.076
  325TCM     c1 1788   4.379   2.714   2.748
  325TCM    cl1 1789   4.486   2.777   2.619
  325TCM    cl2 1790   4.293   2.851   2.827
  325TCM     h1 1791   4.306   2.645   2.705
  325TCM    cl3 1792   4.477   2.627   2.871
  326TCM     c1 1793   1.991   4.394   3.462
  326TCM    cl1 1794   2.115   4.275   3.411
  326TCM    cl2 1795   2.030   4.555   3.392
  326TCM     h1 1796   1.892   4.362   3.427
  326TCM    cl3 1797   1.991   4.405   3.642
  327TCM     c1 1798   3.458   2.443   0.793
  327TCM    cl1 1799   3.527   2.325   0.909
  327TCM    cl2 1800   3.414   2.357   0.643
  327TCM     h1 1801   3.370   2.491   0.836
  327TCM    cl3 1802   3.584   2.566   0.757
  328TCM     c1 1803   2.286   1.834   2.465
  328TCM    cl1 1804   2.395   1.965   2.522
  328TCM    cl2 1805   2.360   1.751   2.323
  328TCM     h1 1806   2.270   1.762   2.545
  328TCM    cl3 1807   2.129   1.905   2.416
  329TCM     c1 1808   2.669   2.996   3.412
  329TCM    cl1 1809   2.623   3.168   3.430
  329TCM    cl2 1810   2.535   2.891   3.472
  329TCM     h1 1811   2.687   2.974   3.306
  329TCM    cl3 1812   2.817   2.963   3.507
  330TCM     c1 1813   4.851   1.521   1.328
  330TCM    cl1 1814   4.684   1.486   1.383
  330TCM    cl2 1815   4.963   1.406   1.406
  330TCM     h1 1816   4.857   1.511   1.219
  330TCM    cl3 1817   4.895   1.689   1.374
  331TCM     c1 1818   1.469   0.977   3.422
  331TCM    cl1 1819   1.373   0.928   3.566
  331TCM    cl2 1820   1.609   1.078   3.475
  331TCM     h1 1821   1.506   0.888   3.371
  331TCM    cl3 1822   1.365   1.072   3.311
  332TCM     c1 1823   3.306   4.284   1.941
  332TCM    cl1 1824   3.226   4.282   2.102
  332TCM    cl2 1825   3.314   4.453   1.881
  332TCM     h1 1826   3.407   4.243   1.950
  332TCM    cl3 1827   3.210   4.185   1.828
  333TCM     c1 1828   2.169   3.350   0.373
  333TCM    cl1 1829   2.299   3.297   0.484
  333TCM    cl2 1830   2.155   3.528   0.379
  333TCM     h1 1831   2.192   3.318   0.271
  333TCM    cl3 1832   2.013   3.277   0.424
  334TCM     c1 1833   4.633   2.126   3.092
  334TCM    cl1 1834   4.620   2.241   2.955
  334TCM    cl2 1835   4.500   2.005   3.081
  334TCM     h1 1836   4.729   2.074   3.088
  334TCM    cl3 1837   4.620   2.216   3.247
  335TCM     c1 1838   2.276   3.819   1.328
  335TCM    cl1 1839   2.369   3.685   1.403
  335TCM    cl2 1840   2.147   3.750   1.224
  335TCM     h1 1841   2.233   3.881   1.405
  335TCM    cl3 1842   2.386   3.917   1.226
  336TCM     c1 1843   0.860   4.930   4.467
  336TCM    cl1 1844   0.952   4.782   4.510
  336TCM    cl2 1845   0.685   4.903   4.496
  336TCM     h1 1846   0.895   5.014   4.528
  336TCM    cl3 1847   0.887   4.968   4.293
  337TCM     c1 1848   3.423   3.484   3.403
  337TCM    cl1 1849   3.403   3.370   3.540
  337TCM    cl2 1850   3.308   3.441   3.273
  337TCM     h1 1851   3.404   3.586   3.437
  337TCM    cl3 1852   3.591   3.472   3.340
  338TCM     c1 1853   3.387   3.832   1.130
  338TCM    cl1 1854   3.454   3.667   1.114
  338TCM    cl2 1855   3.489   3.926   1.244
  338TCM     h1 1856   3.385   3.881   1.033
  338TCM    cl3 1857   3.220   3.823   1.195
  339TCM     c1 1858   2.426   1.079   3.716
  339TCM    cl1 1859   2.354   1.207   3.819
  339TCM    cl2 1860   2.366   1.096   3.548
  339TCM     h1 1861   2.534   1.087   3.717
  339TCM    cl3 1862   2.377   0.917   3.776
  340TCM     c1 1863   1.998   3.570   4.455
  340TCM    cl1 1864   2.045   3.403   4.409
  340TCM    cl2 1865   2.093   3.623   4.598
  340TCM     h1 1866   2.017   3.638   4.371
  340TCM    cl3 1867   1.823   3.574   4.495
  341TCM     c1 1868   3.991   3.910   2.952
  341TCM    cl1 1869   4.057   4.077   2.963
  341TCM    cl2 1870   3.817   3.913   2.995
  341TCM     h1 1871   4.002   3.873   2.850
  341TCM    cl3 1872   4.079   3.803   3.065
  342TCM     c1 1873   2.253   0.022   4.575
  342TCM    cl1 1874   2.324   0.171   4.506
  342TCM    cl2 1875   2.188  -0.080   4.443
  342TCM     h1 1876   2.330  -0.033   4.630
  342TCM    cl3 1877   2.119   0.065   4.687
  343TCM     c1 1878   3.036   1.781   4.869
  343TCM    cl1 1879   2.939   1.763   4.720
  343TCM    cl2 1880   2.928   1.762   5.011
  343TCM     h1 1881   3.115   1.705   4.872
  343TCM    cl3 1882   3.110   1.945   4.872
  344TCM     c1 1883   0.220   0.531   3.849
  344TCM    cl1 1884   0.248   0.502   4.024
  344TCM    cl2 1885   0.052   0.483   3.808
  344TCM     h1 1886   0.233   0.638   3.827
  344TCM    cl3 1887   0.335   0.434   3.752
  345TCM     c1 1888   3.248   0.745   1.734
  345TCM    cl1 1889   3.402   0.798   1.659
  345TCM    cl2 1890   3.284   0.654   1.885
  345TCM     h1 1891   3.187   0.832   1.757
  345TCM    cl3 1892   3.160   0.638   1.619
  346TCM     c1 1893   2.647   0.049   2.380
  346TCM    cl1 1894   2.804   0.132   2.405
  346TCM    cl2 1895   2.678  -0.127   2.360
  346TCM     h1 1896   2.583   0.065   2.467
  346TCM    cl3 1897   2.569   0.115   2.233
  347TCM     c1 1898   2.570   4.459   2.141
  347TCM    cl1 1899   2.553   4.421   2.315
  347TCM    cl2 1900   2.576   4.307   2.046
  347TCM     h1 1901   2.484   4.518   2.108
  347TCM    cl3 1902   2.721   4.552   2.115
  348TCM     c1 1903   0.575   0.948   2.301
  348TCM    cl1 1904   0.698   0.850   2.214
  348TCM    cl2 1905   0.415   0.922   2.224
  348TCM     h1 1906   0.571   0.918   2.406
  348TCM    cl3 1907   0.618   1.121   2.288
  349TCM     c1 1908   2.262   4.344   3.076
  349TCM    cl1 1909   2.091   4.398   3.068
  349TCM    cl2 1910   2.349   4.405   2.931
  349TCM     h1 1911   2.309   4.384   3.166
  349TCM    cl3 1912   2.270   4.165   3.078
  350TCM     c1 1913   4.053   1.960   4.826
  350TCM    cl1 1914   4.202   1.956   4.726
  350TCM    cl2 1915   3.912   1.922   4.722
  350TCM     h1 1916   4.061   1.885   4.905
  350TCM    cl3 1917   4.035   2.122   4.899
  351TCM     c1 1918   0.164   0.440   4.957
  351TCM    cl1 1919   0.176   0.532   5.111
  351TCM    cl2 1920   0.306   0.479   4.854
  351TCM     h1 1921   0.162   0.333   4.978
  351TCM    cl3 1922   0.014   0.486   4.871
  352TCM     c1 1923   3.519   3.576   0.290
  352TCM    cl1 1924   3.554   3.517   0.124
  352TCM    cl2 1925   3.628   3.495   0.407
  352TCM     h1 1926   3.535   3.684   0.294
  352TCM    cl3 1927   3.349   3.538   0.332
  353TCM     c1 1928   1.844   2.141   2.518
  353TCM    cl1 1929   1.750   2.186   2.372
  353TCM    cl2 1930   1.743   2.171   2.663
  353TCM     h1 1931   1.872   2.036   2.513
  353TCM    cl3 1932   1.992   2.243   2.526
  354TCM     c1 1933   1.854   4.058   1.579
  354TCM    cl1 1934   1.772   4.169   1.464
  354TCM    cl2 1935   1.891   4.146   1.731
  354TCM     h1 1936   1.789   3.973   1.601
  354TCM    cl3 1937   2.007   4.000   1.505
  355TCM     c1 1938   4.052   3.638   1.621
  355TCM    cl1 1939   4.185   3.532   1.563
  355TCM    cl2 1940   4.085   3.807   1.573
  355TCM     h1 1941   3.957   3.605   1.577
  355TCM    cl3 1942   4.041   3.628   1.800
  356TCM     c1 1943   2.485   4.493   0.605
  356TCM    cl1 1944   2.381   4.392   0.499
  356TCM    cl2 1945   2.409   4.506   0.767
  356TCM     h1 1946   2.584   4.448   0.614
  356TCM    cl3 1947   2.500   4.657   0.533
  357TCM     c1 1948   2.539   2.369   4.509
  357TCM    cl1 1949   2.393   2.343   4.609
  357TCM    cl2 1950   2.579   2.218   4.420
  357TCM     h1 1951   2.521   2.450   4.438
  357TCM    cl3 1952   2.677   2.413   4.615
  358TCM     c1 1953   1.672   3.122   2.511
  358TCM    cl1 1954   1.768   3.157   2.364
  358TCM    cl2 1955   1.692   3.256   2.628
  358TCM     h1 1956   1.566   3.112   2.484
  358TCM    cl3 1957   1.730   2.969   2.585
  359TCM     c1 1958   0.461   4.240   4.600
  359TCM    cl1 1959   0.573   4.215   4.738
  359TCM    cl2 1960   0.554   4.246   4.447
  359TCM     h1 1961   0.389   4.158   4.596
  359TCM    cl3 1962   0.373   4.394   4.622
  360TCM     c1 1963   4.960   2.178   1.517
  360TCM    cl1 1964   4.838   2.089   1.615
  360TCM    cl2 1965   4.876   2.265   1.384
  360TCM     h1 1966   5.013   2.250   1.580
  360TCM    cl3 1967   5.076   2.060   1.448
  361TCM     c1 1968   4.041   0.666   4.014
  361TCM    cl1 1969   3.867   0.666   4.060
  361TCM    cl2 1970   4.106   0.500   4.028
  361TCM     h1 1971   4.051   0.701   3.910
  361TCM    cl3 1972   4.133   0.775   4.123
  362TCM     c1 1973   4.106   1.004   0.121
  362TCM    cl1 1974   4.187   0.864   0.200
  362TCM    cl2 1975   4.072   1.130   0.244
  362TCM     h1 1976   4.171   1.044   0.044
  362TCM    cl3 1977   3.952   0.949   0.048
  363TCM     c1 1978   2.117   1.708   3.782
  363TCM    cl1 1979   2.111   1.886   3.764
  363TCM    cl2 1980   2.027   1.631   3.647
  363TCM     h1 1981   2.221   1.674   3.780
  363TCM    cl3 1982   2.042   1.660   3.938
  364TCM     c1 1983   0.200   1.662   1.810
  364TCM    cl1 1984   0.074   1.693   1.686
  364TCM    cl2 1985   0.326   1.555   1.741
  364TCM     h1 1986   0.245   1.757   1.841
  364TCM    cl3 1987   0.125   1.582   1.952
  365TCM     c1 1988   1.398   0.468   3.258
  365TCM    cl1 1989   1.543   0.466   3.153
  365TCM    cl2 1990   1.252   0.500   3.158
  365TCM     h1 1991   1.388   0.372   3.309
  365TCM    cl3 1992   1.414   0.599   3.380
  366TCM     c1 1993   2.173   4.089   0.986
  366TCM    cl1 1994   2.182   4.227   0.871
  366TCM    cl2 1995   2.060   3.966   0.921
  366TCM     h1 1996   2.272   4.045   0.998
  366TCM    cl3 1997   2.113   4.147   1.145
  367TCM     c1 1998   3.212   1.770   4.088
  367TCM    cl1 1999   3.067   1.692   4.160
  367TCM    cl2 2000   3.248   1.693   3.930
  367TCM     h1 2001   3.191   1.877   4.073
  367TCM    cl3 2002   3.352   1.751   4.198
  368TCM     c1 2003   2.157   3.617   3.908
  368TCM    cl1 2004   2.140   3.460   3.995
  368TCM    cl2 2005   2.077   3.746   4.004
  368TCM     h1 2006   2.263   3.640   3.896
  368TCM    cl3 2007   2.078   3.605   3.747
  369TCM     c1 2008   2.861   0.682   4.567
  369TCM    cl1 2009   2.723   0.568   4.558
  369TCM    cl2 2010   2.832   0.798   4.700
  369TCM     h1 2011   2.953   0.626   4.586
  369TCM    cl3 2012   2.876   0.771   4.411
  370TCM     c1 2013   2.890   2.683   2.302
  370TCM    cl1 2014   2.935   2.798   2.433
  370TCM    cl2 2015   2.928   2.756   2.143
  370TCM     h1 2016   2.946   2.590   2.314
  370TCM    cl3 2017   2.714   2.648   2.310
  371TCM     c1 2018   4.507   3.941   0.649
  371TCM    cl1 2019   4.601   3.859   0.519
  371TCM    cl2 2020   4.516   4.119   0.626
  371TCM     h1 2021   4.403   3.909   0.644
  371TCM    cl3 2022   4.577   3.897   0.809
  372TCM     c1 2023   1.839   2.692   4.218
  372TCM    cl1 2024   1.693   2.783   4.167
  372TCM    cl2 2025   1.967   2.807   4.270
  372TCM     h1 2026   1.813   2.626   4.302
  372TCM    cl3 2027   1.900   2.593   4.081
  373TCM     c1 2028   2.674   4.018   4.192
  373TCM    cl1 2029   2.794   4.151   4.191
  373TCM    cl2 2030   2.740   3.880   4.287
  373TCM     h1 2031   2.581   4.053   4.238
  373TCM    cl3 2032   2.642   3.964   4.024
  374TCM     c1 2033   4.177   4.904   2.670
  374TCM    cl1 2034   4.324   4.997   2.629
  374TCM    cl2 2035   4.066   5.009   2.765
  374TCM     h1 2036   4.126   4.873   2.579
  374TCM    cl3 2037   4.222   4.760   2.767
  375TCM     c1 2038   1.832   3.541   2.021
  375TCM    cl1 2039   1.841   3.451   1.866
  375TCM    cl2 2040   1.999   3.577   2.076
  375TCM     h1 2041   1.777   3.634   2.007
  375TCM    cl3 2042   1.749   3.440   2.144
  376TCM     c1 2043   3.131   0.527   0.765
  376TCM    cl1 2044   3.105   0.548   0.942
  376TCM    cl2 2045   3.084   0.360   0.718
  376TCM     h1 2046   3.070   0.599   0.710
  376TCM    cl3 2047   3.304   0.553   0.727
  377TCM     c1 2048   4.976   3.735   3.039
  377TCM    cl1 2049   4.825   3.687   2.955
  377TCM    cl2 2050   5.106   3.619   2.997
  377TCM     h1 2051   5.004   3.836   3.008
  377TCM    cl3 2052   4.948   3.732   3.216
  378TCM     c1 2053   2.538   2.781   4.747
  378TCM    cl1 2054   2.663   2.717   4.859
  378TCM    cl2 2055   2.391   2.678   4.758
  378TCM     h1 2056   2.513   2.884   4.775
  378TCM    cl3 2057   2.601   2.777   4.580
  379TCM     c1 2058   2.035   0.398   0.024
  379TCM    cl1 2059   2.079   0.571   0.031
  379TCM    cl2 2060   1.973   0.358  -0.139
  379TCM     h1 2061   2.123   0.336   0.046
  379TCM    cl3 2062   1.906   0.364   0.145
  380TCM     c1 2063   2.874   0.106   1.927
  380TCM    cl1 2064   2.799   0.191   1.788
  380TCM    cl2 2065   2.775  -0.037   1.972
  380TCM     h1 2066   2.974   0.073   1.898
  380TCM    cl3 2067   2.886   0.218   2.066
  381TCM     c1 2068   1.703   3.244   4.342
  381TCM    cl1 2069   1.762   3.170   4.189
  381TCM    cl2 2070   1.677   3.115   4.464
  381TCM     h1 2071   1.777   3.315   4.379
  381TCM    cl3 2072   1.549   3.329   4.310
  382TCM     c1 2073   0.478   2.557   0.539
  382TCM    cl1 2074   0.600   2.663   0.619
  382TCM    cl2 2075   0.313   2.618   0.577
  382TCM     h1 2076   0.494   2.558   0.431
  382TCM    cl3 2077   0.496   2.390   0.601
  383TCM     c1 2078   2.810   0.153   3.111
  383TCM    cl1 2079   2.881   0.261   2.987
  383TCM    cl2 2080   2.923   0.017   3.140
  383TCM     h1 2081   2.794   0.208   3.204
  383TCM    cl3 2082   2.654   0.088   3.051
  384TCM     c1 2083   2.010   3.024   0.769
  384TCM    cl1 2084   2.158   3.022   0.668
  384TCM    cl2 2085   2.009   2.877   0.873
  384TCM     h1 2086   2.009   3.114   0.832
  384TCM    cl3 2087   1.866   3.023   0.663
  385TCM     c1 2088   2.975   0.046   4.174
  385TCM    cl1 2089   2.872   0.150   4.071
  385TCM    cl2 2090   2.971  -0.122   4.113
  385TCM     h1 2091   3.078   0.083   4.173
  385TCM    cl3 2092   2.913   0.046   4.342
  386TCM     c1 2093   4.882   0.359   4.107
  386TCM    cl1 2094   5.012   0.284   4.206
  386TCM    cl2 2095   4.747   0.408   4.215
  386TCM     h1 2096   4.921   0.446   4.055
  386TCM    cl3 2097   4.822   0.238   3.989
  387TCM     c1 2098   2.262   2.690   3.832
  387TCM    cl1 2099   2.264   2.740   4.004
  387TCM    cl2 2100   2.401   2.582   3.800
  387TCM     h1 2101   2.168   2.637   3.811
  387TCM    cl3 2102   2.273   2.835   3.726
  388TCM     c1 2103   0.715   1.309   4.938
  388TCM    cl1 2104   0.874   1.317   4.854
  388TCM    cl2 2105   0.701   1.448   5.050
  388TCM     h1 2106   0.634   1.313   4.864
  388TCM    cl3 2107   0.705   1.156   5.031
  389TCM     c1 2108   4.415   2.920   1.813
  389TCM    cl1 2109   4.346   2.951   1.976
  389TCM    cl2 2110   4.594   2.916   1.823
  389TCM     h1 2111   4.378   2.824   1.775
  389TCM    cl3 2112   4.365   3.052   1.702
  390TCM     c1 2113   2.734   3.290   0.601
  390TCM    cl1 2114   2.880   3.388   0.564
  390TCM    cl2 2115   2.784   3.141   0.689
  390TCM     h1 2116   2.665   3.348   0.662
  390TCM    cl3 2117   2.655   3.245   0.447
  391TCM     c1 2118   2.471   4.664   1.664
  391TCM    cl1 2119   2.335   4.752   1.587
  391TCM    cl2 2120   2.542   4.552   1.544
  391TCM     h1 2121   2.547   4.736   1.697
  391TCM    cl3 2122   2.412   4.571   1.806
  392TCM     c1 2123   2.568   3.917   4.843
  392TCM    cl1 2124   2.663   3.818   4.727
  392TCM    cl2 2125   2.607   3.865   5.010
  392TCM     h1 2126   2.593   4.023   4.830
  392TCM    cl3 2127   2.393   3.892   4.812
  393TCM     c1 2128   3.812   3.962   2.540
  393TCM    cl1 2129   3.920   4.076   2.626
  393TCM    cl2 2130   3.777   3.822   2.647
  393TCM     h1 2131   3.719   4.012   2.513
  393TCM    cl3 2132   3.894   3.903   2.391
  394TCM     c1 2133   2.336   1.360   2.448
  394TCM    cl1 2134   2.317   1.453   2.601
  394TCM    cl2 2135   2.484   1.416   2.362
  394TCM     h1 2136   2.345   1.254   2.471
  394TCM    cl3 2137   2.193   1.389   2.343
  395TCM     c1 2138   4.593   2.172   0.685
  395TCM    cl1 2139   4.492   2.108   0.551
  395TCM    cl2 2140   4.504   2.301   0.771
  395TCM     h1 2141   4.616   2.091   0.754
  395TCM    cl3 2142   4.745   2.240   0.618
  396TCM     c1 2143   3.937   0.458   2.926
  396TCM    cl1 2144   3.846   0.429   3.078
  396TCM    cl2 2145   3.890   0.616   2.856
  396TCM     h1 2146   4.045   0.457   2.946
  396TCM    cl3 2147   3.898   0.330   2.806
  397TCM     c1 2148   4.834   2.177   0.070
  397TCM    cl1 2149   4.893   2.020   0.006
  397TCM    cl2 2150   4.761   2.271  -0.065
  397TCM     h1 2151   4.758   2.159   0.146
  397TCM    cl3 2152   4.970   2.269   0.141
  398TCM     c1 2153   3.136   1.060   1.095
  398TCM    cl1 2154   2.985   1.148   1.055
  398TCM    cl2 2155   3.272   1.178   1.103
  398TCM     h1 2156   3.125   1.011   1.192
  398TCM    cl3 2157   3.171   0.937   0.969
  399TCM     c1 2158   2.590   4.294   4.514
  399TCM    cl1 2159   2.505   4.349   4.663
  399TCM    cl2 2160   2.474   4.289   4.377
  399TCM     h1 2161   2.672   4.363   4.491
  399TCM    cl3 2162   2.656   4.130   4.543
  400TCM     c1 2163   1.267   0.234   0.328
  400TCM    cl1 2164   1.446   0.234   0.329
  400TCM    cl2 2165   1.206   0.093   0.421
  400TCM     h1 2166   1.231   0.327   0.373
  400TCM    cl3 2167   1.209   0.222   0.159
  401TCM     c1 2168   1.111   3.303   4.533
  401TCM    cl1 2169   1.146   3.399   4.680
  401TCM    cl2 2170   0.949   3.227   4.548
  401TCM     h1 2171   1.112   3.368   4.445
  401TCM    cl3 2172   1.236   3.175   4.513
  402TCM     c1 2173   0.947   2.199   2.141
  402TCM    cl1 2174   0.841   2.135   2.272
  402TCM    cl2 2175   1.100   2.106   2.140
  402TCM     h1 2176   0.896   2.188   2.044
  402TCM    cl3 2177   0.982   2.372   2.172
  403TCM     c1 2178   0.973   1.235   0.404
  403TCM    cl1 2179   0.967   1.328   0.250
  403TCM    cl2 2180   1.138   1.246   0.474
  403TCM     h1 2181   0.900   1.276   0.474
  403TCM    cl3 2182   0.933   1.064   0.369
  404TCM     c1 2183   0.231   0.219   3.243
  404TCM    cl1 2184   0.291   0.246   3.410
  404TCM    cl2 2185   0.169   0.374   3.176
  404TCM     h1 2186   0.312   0.182   3.180
  404TCM    cl3 2187   0.098   0.099   3.244
  405TCM     c1 2188   2.547   3.780   0.408
  405TCM    cl1 2189   2.665   3.908   0.363
  405TCM    cl2 2190   2.624   3.620   0.384
  405TCM     h1 2191   2.518   3.792   0.512
  405TCM    cl3 2192   2.403   3.793   0.302
  406TCM     c1 2193   0.008   1.949   0.814
  406TCM    cl1 2194   0.043   2.025   0.973
  406TCM    cl2 2195   0.065   2.057   0.683
  406TCM     h1 2196   0.059   1.853   0.808
  406TCM    cl3 2197  -0.169   1.924   0.798
  407TCM     c1 2198   3.049   4.580   3.923
  407TCM    cl1 2199   3.049   4.579   3.743
  407TCM    cl2 2200   3.203   4.650   3.982
  407TCM     h1 2201   2.965   4.640   3.959
  407TCM    cl3 2202   3.034   4.412   3.983
  408TCM     c1 2203   4.961   3.208   3.143
  408TCM    cl1 2204   4.854   3.104   3.043
  408TCM    cl2 2205   4.876   3.361   3.181
  408TCM     h1 2206   4.986   3.155   3.235
  408TCM    cl3 2207   5.112   3.243   3.052
  409TCM     c1 2208   2.779   0.573   2.014
  409TCM    cl1 2209   2.729   0.745   2.012
  409TCM    cl2 2210   2.933   0.556   1.924
  409TCM     h1 2211   2.793   0.540   2.117
  409TCM    cl3 2212   2.651   0.475   1.936
  410TCM     c1 2213   4.378   4.690   4.155
  410TCM    cl1 2214   4.283   4.818   4.071
  410TCM    cl2 2215   4.550   4.742   4.168
  410TCM     h1 2216   4.337   4.674   4.255
  410TCM    cl3 2217   4.369   4.538   4.060
  411TCM     c1 2218   3.692   1.002   1.980
  411TCM    cl1 2219   3.569   0.873   2.002
  411TCM    cl2 2220   3.663   1.088   1.825
  411TCM     h1 2221   3.686   1.072   2.063
  411TCM    cl3 2222   3.855   0.928   1.977
  412TCM     c1 2223   2.286   4.789   2.201
  412TCM    cl1 2224   2.306   4.894   2.344
  412TCM    cl2 2225   2.251   4.621   2.253
  412TCM     h1 2226   2.204   4.825   2.138
  412TCM    cl3 2227   2.439   4.789   2.106
  413TCM     c1 2228   2.072   2.484   0.839
  413TCM    cl1 2229   2.026   2.489   1.013
  413TCM    cl2 2230   1.950   2.391   0.747
  413TCM     h1 2231   2.079   2.586   0.800
  413TCM    cl3 2232   2.231   2.403   0.823
  414TCM     c1 2233   2.124   4.532   0.276
  414TCM    cl1 2234   2.020   4.448   0.156
  414TCM    cl2 2235   2.041   4.680   0.334
  414TCM     h1 2236   2.143   4.465   0.361
  414TCM    cl3 2237   2.278   4.578   0.198
  415TCM     c1 2238   3.188   1.059   2.047
  415TCM    cl1 2239   3.290   1.092   1.902
  415TCM    cl2 2240   3.294   1.014   2.184
  415TCM     h1 2241   3.131   1.149   2.072
  415TCM    cl3 2242   3.076   0.924   2.011
  416TCM     c1 2243   3.563   3.988   0.659
  416TCM    cl1 2244   3.560   3.865   0.529
  416TCM    cl2 2245   3.596   3.909   0.817
  416TCM     h1 2246   3.642   4.062   0.638
  416TCM    cl3 2247   3.404   4.070   0.667
  417TCM     c1 2248   1.846   3.959   2.164
  417TCM    cl1 2249   1.826   3.822   2.278
  417TCM    cl2 2250   1.735   3.937   2.025
  417TCM     h1 2251   1.823   4.053   2.215
  417TCM    cl3 2252   2.015   3.964   2.104
  418TCM     c1 2253   4.836   2.705   2.938
  418TCM    cl1 2254   5.003   2.740   2.996
  418TCM    cl2 2255   4.832   2.544   2.859
  418TCM     h1 2256   4.767   2.706   3.023
  418TCM    cl3 2257   4.788   2.831   2.820
  419TCM     c1 2258   1.371   1.247   2.121
  419TCM    cl1 2259   1.222   1.332   2.068
  419TCM    cl2 2260   1.327   1.095   2.204
  419TCM     h1 2261   1.433   1.225   2.034
  419TCM    cl3 2262   1.463   1.351   2.235
  420TCM     c1 2263   0.845   4.320   0.075
  420TCM    cl1 2264   0.899   4.273  -0.089
  420TCM    cl2 2265   0.742   4.467   0.065
  420TCM     h1 2266   0.788   4.238   0.120
  420TCM    cl3 2267   0.988   4.357   0.178
  421TCM     c1 2268   3.012   2.691   0.584
  421TCM    cl1 2269   3.064   2.704   0.413
  421TCM    cl2 2270   3.136   2.601   0.677
  421TCM     h1 2271   2.999   2.791   0.627
  421TCM    cl3 2272   2.856   2.603   0.590
  422TCM     c1 2273   0.536   1.909   2.366
  422TCM    cl1 2274   0.422   2.045   2.343
  422TCM    cl2 2275   0.465   1.760   2.295
  422TCM     h1 2276   0.630   1.931   2.316
  422TCM    cl3 2277   0.565   1.884   2.541
  423TCM     c1 2278   2.315   0.667   4.597
  423TCM    cl1 2279   2.367   0.530   4.493
  423TCM    cl2 2280   2.430   0.686   4.734
  423TCM     h1 2281   2.314   0.759   4.538
  423TCM    cl3 2282   2.151   0.634   4.662
  424TCM     c1 2283   4.845   4.142   3.944
  424TCM    cl1 2284   4.994   4.229   3.994
  424TCM    cl2 2285   4.751   4.095   4.090
  424TCM     h1 2286   4.784   4.207   3.881
  424TCM    cl3 2287   4.890   3.994   3.854
  425TCM     c1 2288   4.774   3.995   1.104
  425TCM    cl1 2289   4.762   3.961   1.279
  425TCM    cl2 2290   4.908   3.899   1.033
  425TCM     h1 2291   4.680   3.969   1.055
  425TCM    cl3 2292   4.809   4.170   1.080
  426TCM     c1 2293   2.405   2.265   0.022
  426TCM    cl1 2294   2.238   2.300  -0.032
  426TCM    cl2 2295   2.410   2.269   0.202
  426TCM     h1 2296   2.436   2.167  -0.013
  426TCM    cl3 2297   2.515   2.391  -0.042
  427TCM     c1 2298   3.149   2.384   2.121
  427TCM    cl1 2299   3.211   2.521   2.023
  427TCM    cl2 2300   2.970   2.385   2.119
  427TCM     h1 2301   3.186   2.289   2.079
  427TCM    cl3 2302   3.206   2.402   2.290
  428TCM     c1 2303   3.914   1.259   4.775
  428TCM    cl1 2304   3.884   1.306   4.945
  428TCM    cl2 2305   4.064   1.160   4.765
  428TCM     h1 2306   3.829   1.201   4.737
  428TCM    cl3 2307   3.934   1.407   4.676
  429TCM     c1 2308   0.691   1.810   4.363
  429TCM    cl1 2309   0.531   1.843   4.438
  429TCM    cl2 2310   0.705   1.636   4.323
  429TCM     h1 2311   0.701   1.870   4.272
  429TCM    cl3 2312   0.820   1.855   4.480
  430TCM     c1 2313   0.158   0.369   2.296
  430TCM    cl1 2314   0.238   0.301   2.150
  430TCM    cl2 2315   0.274   0.365   2.432
  430TCM     h1 2316   0.127   0.472   2.276
  430TCM    cl3 2317   0.015   0.269   2.336
  431TCM     c1 2318   3.498   0.277   0.868
  431TCM    cl1 2319   3.389   0.305   1.008
  431TCM    cl2 2320   3.407   0.196   0.737
  431TCM     h1 2321   3.536   0.373   0.833
  431TCM    cl3 2322   3.634   0.172   0.919
  432TCM     c1 2323   2.873   1.918   3.491
  432TCM    cl1 2324   3.041   1.873   3.538
  432TCM    cl2 2325   2.770   1.772   3.503
  432TCM     h1 2326   2.836   1.995   3.559
  432TCM    cl3 2327   2.871   1.978   3.322
  433TCM     c1 2328   3.473   3.045   3.394
  433TCM    cl1 2329   3.525   3.131   3.245
  433TCM    cl2 2330   3.604   3.051   3.516
  433TCM     h1 2331   3.384   3.094   3.434
  433TCM    cl3 2332   3.434   2.875   3.354
  434TCM     c1 2333   2.946   4.467   1.766
  434TCM    cl1 2334   2.817   4.591   1.765
  434TCM    cl2 2335   2.993   4.428   1.597
  434TCM     h1 2336   3.033   4.505   1.819
  434TCM    cl3 2337   2.887   4.320   1.849
  435TCM     c1 2338   0.322   1.015   4.041
  435TCM    cl1 2339   0.469   0.942   4.114
  435TCM    cl2 2340   0.201   0.886   4.011
  435TCM     h1 2341   0.280   1.090   4.109
  435TCM    cl3 2342   0.366   1.094   3.886
  436TCM     c1 2343   0.249   1.758   1.363
  436TCM    cl1 2344   0.377   1.821   1.472
  436TCM    cl2 2345   0.270   1.581   1.342
  436TCM     h1 2346   0.151   1.779   1.406
  436TCM    cl3 2347   0.262   1.838   1.203
  437TCM     c1 2348   4.795   2.625   1.206
  437TCM    cl1 2349   4.966   2.647   1.158
  437TCM    cl2 2350   4.699   2.765   1.147
  437TCM     h1 2351   4.756   2.532   1.163
  437TCM    cl3 2352   4.784   2.617   1.385
  438TCM     c1 2353   0.843   3.535   4.908
  438TCM    cl1 2354   0.699   3.576   5.006
  438TCM    cl2 2355   0.979   3.643   4.955
  438TCM     h1 2356   0.871   3.431   4.925
  438TCM    cl3 2357   0.806   3.560   4.734
  439TCM     c1 2358   3.486   1.137   1.394
  439TCM    cl1 2359   3.356   1.135   1.518
  439TCM    cl2 2360   3.522   0.969   1.342
  439TCM     h1 2361   3.453   1.195   1.308
  439TCM    cl3 2362   3.633   1.213   1.463
  440TCM     c1 2363   3.322   1.698   4.563
  440TCM    cl1 2364   3.209   1.574   4.501
  440TCM    cl2 2365   3.357   1.664   4.736
  440TCM     h1 2366   3.415   1.695   4.506
  440TCM    cl3 2367   3.248   1.860   4.548
  441TCM     c1 2368   0.245   3.986   4.241
  441TCM    cl1 2369   0.209   4.089   4.383
  441TCM    cl2 2370   0.323   4.086   4.114
  441TCM     h1 2371   0.312   3.905   4.270
  441TCM    cl3 2372   0.092   3.917   4.177
  442TCM     c1 2373   3.153   3.208   0.399
  442TCM    cl1 2374   3.297   3.186   0.505
  442TCM    cl2 2375   3.037   3.075   0.429
  442TCM     h1 2376   3.106   3.304   0.421
  442TCM    cl3 2377   3.205   3.203   0.227
  443TCM     c1 2378   0.788   2.106   1.444
  443TCM    cl1 2379   0.693   2.001   1.554
  443TCM    cl2 2380   0.945   2.027   1.408
  443TCM     h1 2381   0.732   2.121   1.351
  443TCM    cl3 2382   0.817   2.265   1.522
  444TCM     c1 2383   4.102   0.062   0.239
  444TCM    cl1 2384   4.002   0.166   0.344
  444TCM    cl2 2385   4.268   0.052   0.306
  444TCM     h1 2386   4.059  -0.038   0.234
  444TCM    cl3 2387   4.109   0.132   0.074
  445TCM     c1 2388   4.542   1.232   0.216
  445TCM    cl1 2389   4.589   1.362   0.101
  445TCM    cl2 2390   4.475   1.094   0.123
  445TCM     h1 2391   4.630   1.200   0.272
  445TCM    cl3 2392   4.417   1.294   0.329
  446TCM     c1 2393   2.988   0.571   3.316
  446TCM    cl1 2394   2.840   0.545   3.218
  446TCM    cl2 2395   2.959   0.703   3.434
  446TCM     h1 2396   3.013   0.479   3.369
  446TCM    cl3 2397   3.124   0.616   3.208
  447TCM     c1 2398   4.297   1.452   4.659
  447TCM    cl1 2399   4.453   1.462   4.748
  447TCM    cl2 2400   4.310   1.331   4.528
  447TCM     h1 2401   4.218   1.422   4.729
  447TCM    cl3 2402   4.258   1.613   4.589
  448TCM     c1 2403   0.110   2.018   3.638
  448TCM    cl1 2404   0.026   1.873   3.572
  448TCM    cl2 2405  -0.002   2.159   3.635
  448TCM     h1 2406   0.142   1.998   3.740
  448TCM    cl3 2407   0.253   2.054   3.535
  449TCM     c1 2408   4.573   4.856   3.716
  449TCM    cl1 2409   4.435   4.745   3.746
  449TCM    cl2 2410   4.710   4.763   3.646
  449TCM     h1 2411   4.542   4.934   3.646
  449TCM    cl3 2412   4.624   4.930   3.871
  450TCM     c1 2413   3.317   0.498   3.625
  450TCM    cl1 2414   3.143   0.458   3.621
  450TCM    cl2 2415   3.347   0.642   3.523
  450TCM     h1 2416   3.347   0.519   3.728
  450TCM    cl3 2417   3.412   0.358   3.563
  451TCM     c1 2418   3.632   3.747   1.528
  451TCM    cl1 2419   3.764   3.727   1.408
  451TCM    cl2 2420   3.697   3.711   1.692
  451TCM     h1 2421   3.595   3.850   1.525
  451TCM    cl3 2422   3.499   3.633   1.491
  452TCM     c1 2423   0.394   4.826   1.217
  452TCM    cl1 2424   0.500   4.959   1.274
  452TCM    cl2 2425   0.306   4.753   1.355
  452TCM     h1 2426   0.322   4.865   1.145
  452TCM    cl3 2427   0.494   4.700   1.137
  453TCM     c1 2428   2.185   3.667   3.309
  453TCM    cl1 2429   2.201   3.712   3.136
  453TCM    cl2 2430   2.222   3.493   3.330
  453TCM     h1 2431   2.254   3.727   3.369
  453TCM    cl3 2432   2.017   3.699   3.363
  454TCM     c1 2433   4.378   3.693   1.266
  454TCM    cl1 2434   4.429   3.775   1.417
  454TCM    cl2 2435   4.488   3.742   1.133
  454TCM     h1 2436   4.382   3.585   1.279
  454TCM    cl3 2437   4.210   3.742   1.225
  455TCM     c1 2438   2.983   3.817   4.567
  455TCM    cl1 2439   3.036   3.812   4.738
  455TCM    cl2 2440   3.059   3.681   4.477
  455TCM     h1 2441   2.874   3.808   4.561
  455TCM    cl3 2442   3.034   3.972   4.494
  456TCM     c1 2443   2.118   2.120   4.692
  456TCM    cl1 2444   1.980   2.068   4.794
  456TCM    cl2 2445   2.077   2.094   4.519
  456TCM     h1 2446   2.138   2.226   4.709
  456TCM    cl3 2447   2.263   2.023   4.734
  457TCM     c1 2448   1.464   3.112   1.942
  457TCM    cl1 2449   1.532   3.247   1.845
  457TCM    cl2 2450   1.501   3.138   2.116
  457TCM     h1 2451   1.356   3.109   1.928
  457TCM    cl3 2452   1.536   2.957   1.888
  458TCM     c1 2453   1.851   4.648   1.413
  458TCM    cl1 2454   2.011   4.726   1.388
  458TCM    cl2 2455   1.771   4.624   1.255
  458TCM     h1 2456   1.865   4.551   1.463
  458TCM    cl3 2457   1.750   4.755   1.516
  459TCM     c1 2458   4.000   4.418   3.441
  459TCM    cl1 2459   3.988   4.593   3.479
  459TCM    cl2 2460   3.948   4.323   3.585
  459TCM     h1 2461   3.935   4.394   3.357
  459TCM    cl3 2462   4.170   4.378   3.399
  460TCM     c1 2463   0.546   0.945   3.462
  460TCM    cl1 2464   0.573   1.039   3.312
  460TCM    cl2 2465   0.377   0.969   3.517
  460TCM     h1 2466   0.563   0.839   3.443
  460TCM    cl3 2467   0.659   1.001   3.591
  461TCM     c1 2468   1.715   4.340   0.332
  461TCM    cl1 2469   1.788   4.435   0.465
  461TCM    cl2 2470   1.536   4.339   0.348
  461TCM     h1 2471   1.742   4.385   0.236
  461TCM    cl3 2472   1.777   4.172   0.338
  462TCM     c1 2473   3.022   0.117   0.062
  462TCM    cl1 2474   2.851   0.141   0.014
  462TCM    cl2 2475   3.115   0.059  -0.080
  462TCM     h1 2476   3.064   0.212   0.097
  462TCM    cl3 2477   3.029  -0.003   0.194
  463TCM     c1 2478   3.487   0.688   3.062
  463TCM    cl1 2479   3.465   0.603   2.905
  463TCM    cl2 2480   3.635   0.789   3.054
  463TCM     h1 2481   3.400   0.751   3.082
  463TCM    cl3 2482   3.505   0.567   3.194
  464TCM     c1 2483   4.847   4.609   3.950
  464TCM    cl1 2484   4.980   4.576   3.834
  464TCM    cl2 2485   4.910   4.593   4.117
  464TCM     h1 2486   4.809   4.710   3.935
  464TCM    cl3 2487   4.715   4.491   3.924
  465TCM     c1 2488   4.216   1.524   0.064
  465TCM    cl1 2489   4.123   1.532   0.217
  465TCM    cl2 2490   4.125   1.611  -0.064
  465TCM     h1 2491   4.314   1.570   0.078
  465TCM    cl3 2492   4.236   1.353   0.014
  466TCM     c1 2493   0.579   0.519   2.565
  466TCM    cl1 2494   0.728   0.543   2.467
  466TCM    cl2 2495   0.479   0.667   2.555
  466TCM     h1 2496   0.523   0.434   2.525
  466TCM    cl3 2497   0.622   0.486   2.736
  467TCM     c1 2498   0.169   2.058   2.003
  467TCM    cl1 2499   0.189   1.904   2.093
  467TCM    cl2 2500   0.134   2.022   1.831
  467TCM     h1 2501   0.086   2.115   2.046
  467TCM    cl3 2502   0.320   2.154   2.014
  468TCM     c1 2503   3.092   2.267   1.598
  468TCM    cl1 2504   2.971   2.143   1.550
  468TCM    cl2 2505   3.080   2.295   1.775
  468TCM     h1 2506   3.192   2.232   1.573
  468TCM    cl3 2507   3.059   2.421   1.511
  469TCM     c1 2508   2.626   0.828   4.131
  469TCM    cl1 2509   2.583   0.714   4.000
  469TCM    cl2 2510   2.523   0.795   4.275
  469TCM     h1 2511   2.731   0.814   4.159
  469TCM    cl3 2512   2.601   0.996   4.074
  470TCM     c1 2513   4.401   2.436   4.805
  470TCM    cl1 2514   4.471   2.523   4.945
  470TCM    cl2 2515   4.381   2.263   4.847
  470TCM     h1 2516   4.303   2.479   4.781
  470TCM    cl3 2517   4.510   2.451   4.664
  471TCM     c1 2518   3.671   0.790   2.648
  471TCM    cl1 2519   3.511   0.840   2.583
  471TCM    cl2 2520   3.760   0.934   2.708
  471TCM     h1 2521   3.656   0.719   2.730
  471TCM    cl3 2522   3.765   0.712   2.517
  472TCM     c1 2523   3.127   1.749   3.122
  472TCM    cl1 2524   3.235   1.637   3.034
  472TCM    cl2 2525   3.225   1.870   3.211
  472TCM     h1 2526   3.061   1.801   3.052
  472TCM    cl3 2527   3.028   1.655   3.239
  473TCM     c1 2528   3.477   1.594   1.243
  473TCM    cl1 2529   3.426   1.762   1.285
  473TCM    cl2 2530   3.372   1.477   1.329
  473TCM     h1 2531   3.468   1.579   1.135
  473TCM    cl3 2532   3.648   1.569   1.292
  474TCM     c1 2533   0.196   3.257   1.411
  474TCM    cl1 2534   0.018   3.265   1.397
  474TCM    cl2 2535   0.263   3.155   1.280
  474TCM     h1 2536   0.238   3.358   1.403
  474TCM    cl3 2537   0.241   3.187   1.570
  475TCM     c1 2538   2.432   3.717   4.382
  475TCM    cl1 2539   2.445   3.600   4.517
  475TCM    cl2 2540   2.415   3.883   4.447
  475TCM     h1 2541   2.522   3.710   4.320
  475TCM    cl3 2542   2.289   3.679   4.282
  476TCM     c1 2543   1.729   1.378   1.819
  476TCM    cl1 2544   1.851   1.425   1.941
  476TCM    cl2 2545   1.770   1.453   1.661
  476TCM     h1 2546   1.728   1.270   1.808
  476TCM    cl3 2547   1.568   1.435   1.872
  477TCM     c1 2548   4.422   2.399   0.279
  477TCM    cl1 2549   4.591   2.338   0.281
  477TCM    cl2 2550   4.370   2.438   0.446
  477TCM     h1 2551   4.417   2.489   0.217
  477TCM    cl3 2552   4.313   2.274   0.210
  478TCM     c1 2553   2.926   4.549   3.390
  478TCM    cl1 2554   2.864   4.693   3.301
  478TCM    cl2 2555   2.986   4.428   3.273
  478TCM     h1 2556   3.007   4.580   3.457
  478TCM    cl3 2557   2.792   4.477   3.487
  479TCM     c1 2558   4.940   3.791   0.133
  479TCM    cl1 2559   4.942   3.612   0.145
  479TCM    cl2 2560   4.917   3.862   0.296
  479TCM     h1 2561   5.035   3.826   0.091
  479TCM    cl3 2562   4.805   3.843   0.026
  480TCM     c1 2563   0.938   2.294   2.569
  480TCM    cl1 2564   0.812   2.410   2.513
  480TCM    cl2 2565   0.858   2.147   2.635
  480TCM     h1 2566   1.002   2.266   2.485
  480TCM    cl3 2567   1.037   2.370   2.697
  481TCM     c1 2568   2.400   2.585   1.104
  481TCM    cl1 2569   2.332   2.724   1.012
  481TCM    cl2 2570   2.320   2.575   1.264
  481TCM     h1 2571   2.383   2.493   1.048
  481TCM    cl3 2572   2.576   2.610   1.127
  482TCM     c1 2573   4.669   3.573   3.376
  482TCM    cl1 2574   4.577   3.590   3.222
  482TCM    cl2 2575   4.611   3.429   3.464
  482TCM     h1 2576   4.776   3.563   3.354
  482TCM    cl3 2577   4.643   3.719   3.477
  483TCM     c1 2578   2.256   4.834   3.026
  483TCM    cl1 2579   2.413   4.757   3.069
  483TCM    cl2 2580   2.155   4.847   3.173
  483TCM     h1 2581   2.274   4.933   2.985
  483TCM    cl3 2582   2.171   4.733   2.904
  484TCM     c1 2583   4.837   2.728   4.315
  484TCM    cl1 2584   4.950   2.612   4.238
  484TCM    cl2 2585   4.808   2.866   4.204
  484TCM     h1 2586   4.743   2.678   4.337
  484TCM    cl3 2587   4.908   2.790   4.468
  485TCM     c1 2588   2.469   2.097   3.391
  485TCM    cl1 2589   2.533   2.077   3.558
  485TCM    cl2 2590   2.496   1.946   3.298
  485TCM     h1 2591   2.362   2.120   3.395
  485TCM    cl3 2592   2.557   2.231   3.311
  486TCM     c1 2593   1.829   0.767   3.816
  486TCM    cl1 2594   1.786   0.688   3.972
  486TCM    cl2 2595   1.699   0.881   3.769
  486TCM     h1 2596   1.922   0.822   3.828
  486TCM    cl3 2597   1.849   0.642   3.689
  487TCM     c1 2598   0.847   0.088   0.475
  487TCM    cl1 2599   0.710   0.126   0.584
  487TCM    cl2 2600   0.832   0.181   0.322
  487TCM     h1 2601   0.942   0.114   0.523
  487TCM    cl3 2602   0.845  -0.087   0.437
  488TCM     c1 2603   3.789   0.968   3.392
  488TCM    cl1 2604   3.723   1.118   3.466
  488TCM    cl2 2605   3.683   0.829   3.434
  488TCM     h1 2606   3.793   0.979   3.284
  488TCM    cl3 2607   3.954   0.940   3.457
  489TCM     c1 2608   3.231   4.762   3.052
  489TCM    cl1 2609   3.090   4.655   3.024
  489TCM    cl2 2610   3.226   4.822   3.221
  489TCM     h1 2611   3.324   4.706   3.035
  489TCM    cl3 2612   3.222   4.902   2.940
  490TCM     c1 2613   2.158   1.874   2.907
  490TCM    cl1 2614   2.071   1.962   2.777
  490TCM    cl2 2615   2.214   1.991   3.031
  490TCM     h1 2616   2.091   1.801   2.952
  490TCM    cl3 2617   2.300   1.789   2.837
  491TCM     c1 2618   1.276   0.619   4.902
  491TCM    cl1 2619   1.371   0.754   4.973
  491TCM    cl2 2620   1.175   0.681   4.767
  491TCM     h1 2621   1.343   0.541   4.865
  491TCM    cl3 2622   1.169   0.552   5.029
  492TCM     c1 2623   2.146   4.170   4.110
  492TCM    cl1 2624   2.180   4.275   3.968
  492TCM    cl2 2625   2.109   4.274   4.251
  492TCM     h1 2626   2.059   4.106   4.088
  492TCM    cl3 2627   2.289   4.068   4.146
  493TCM     c1 2628   0.491   3.821   4.761
  493TCM    cl1 2629   0.480   3.887   4.594
  493TCM    cl2 2630   0.451   3.647   4.757
  493TCM     h1 2631   0.592   3.835   4.800
  493TCM    cl3 2632   0.374   3.907   4.867
  494TCM     c1 2633   4.889   2.914   1.551
  494TCM    cl1 2634   4.768   2.992   1.445
  494TCM    cl2 2635   4.926   3.022   1.690
  494TCM     h1 2636   4.849   2.819   1.588
  494TCM    cl3 2637   5.039   2.882   1.458
  495TCM     c1 2638   3.229   0.974   3.406
  495TCM    cl1 2639   3.367   1.045   3.496
  495TCM    cl2 2640   3.275   0.948   3.235
  495TCM     h1 2641   3.201   0.878   3.452
  495TCM    cl3 2642   3.089   1.086   3.415
  496TCM     c1 2643   4.894   1.320   1.876
  496TCM    cl1 2644   4.835   1.152   1.850
  496TCM    cl2 2645   4.854   1.372   2.042
  496TCM     h1 2646   5.002   1.322   1.862
  496TCM    cl3 2647   4.816   1.430   1.758
  497TCM     c1 2648   1.153   4.946   0.894
  497TCM    cl1 2649   1.056   5.024   0.765
  497TCM    cl2 2650   1.054   4.821   0.975
  497TCM     h1 2651   1.242   4.900   0.850
  497TCM    cl3 2652   1.202   5.071   1.013
  498TCM     c1 2653   2.564   3.048   3.808
  498TCM    cl1 2654   2.629   2.882   3.833
  498TCM    cl2 2655   2.701   3.164   3.809
  498TCM     h1 2656   2.511   3.053   3.713
  498TCM    cl3 2657   2.452   3.089   3.942
  499TCM     c1 2658   4.840   3.065   0.997
  499TCM    cl1 2659   4.911   3.153   0.858
  499TCM    cl2 2660   4.710   3.164   1.072
  499TCM     h1 2661   4.799   2.970   0.963
  499TCM    cl3 2662   4.968   3.032   1.119
  500TCM     c1 2663   1.634   0.094   0.052
  500TCM    cl1 2664   1.477   0.009   0.028
  500TCM    cl2 2665   1.735   0.075  -0.095
  500TCM     h1 2666   1.615   0.200   0.071
  500TCM    cl3 2667   1.721   0.022   0.192
  501TCM     c1 2668   0.653   1.696   2.880
  501TCM    cl1 2669   0.702   1.530   2.832
  501TCM    cl2 2670   0.780   1.812   2.830
  501TCM     h1 2671   0.558   1.722   2.832
  501TCM    cl3 2672   0.633   1.702   3.058
  502TCM     c1 2673   2.527   3.836   2.295
  502TCM    cl1 2674   2.666   3.744   2.230
  502TCM    cl2 2675   2.548   4.011   2.258
  502TCM     h1 2676   2.434   3.801   2.249
  502TCM    cl3 2677   2.519   3.813   2.473
  503TCM     c1 2678   1.416   0.459   2.670
  503TCM    cl1 2679   1.341   0.614   2.620
  503TCM    cl2 2680   1.351   0.412   2.830
  503TCM     h1 2681   1.393   0.382   2.597
  503TCM    cl3 2682   1.594   0.481   2.683
  504TCM     c1 2683   4.754   0.013   2.745
  504TCM    cl1 2684   4.633  -0.111   2.792
  504TCM    cl2 2685   4.782   0.125   2.882
  504TCM     h1 2686   4.848  -0.036   2.718
  504TCM    cl3 2687   4.694   0.106   2.603
  505TCM     c1 2688   2.526   3.837   2.891
  505TCM    cl1 2689   2.390   3.918   2.807
  505TCM    cl2 2690   2.677   3.858   2.796
  505TCM     h1 2691   2.540   3.882   2.990
  505TCM    cl3 2692   2.491   3.662   2.908
  506TCM     c1 2693   0.111   4.820   4.875
  506TCM    cl1 2694  -0.047   4.837   4.793
  506TCM    cl2 2695   0.131   4.651   4.932
  506TCM     h1 2696   0.192   4.846   4.805
  506TCM    cl3 2697   0.117   4.930   5.016
  507TCM     c1 2698   1.415   4.146   4.944
  507TCM    cl1 2699   1.337   4.000   4.876
  507TCM    cl2 2700   1.547   4.095   5.055
  507TCM     h1 2701   1.456   4.208   4.864
  507TCM    cl3 2702   1.294   4.240   5.036
  508TCM     c1 2703   0.324   1.685   3.317
  508TCM    cl1 2704   0.160   1.612   3.305
  508TCM    cl2 2705   0.367   1.707   3.490
  508TCM     h1 2706   0.397   1.618   3.270
  508TCM    cl3 2707   0.324   1.843   3.233
  509TCM     c1 2708   4.297   4.979   4.628
  509TCM    cl1 2709   4.335   5.116   4.738
  509TCM    cl2 2710   4.244   5.041   4.468
  509TCM     h1 2711   4.386   4.918   4.615
  509TCM    cl3 2712   4.166   4.879   4.700
  510TCM     c1 2713   4.111   2.406   2.392
  510TCM    cl1 2714   4.146   2.242   2.458
  510TCM    cl2 2715   4.151   2.530   2.515
  510TCM     h1 2716   4.172   2.422   2.302
  510TCM    cl3 2717   3.937   2.416   2.350
  511TCM     c1 2718   3.186   4.701   1.449
  511TCM    cl1 2719   3.205   4.598   1.303
  511TCM    cl2 2720   3.209   4.873   1.404
  511TCM     h1 2721   3.086   4.687   1.490
  511TCM    cl3 2722   3.308   4.655   1.572
  512TCM     c1 2723   4.982   4.836   0.686
  512TCM    cl1 2724   4.956   5.006   0.736
  512TCM    cl2 2725   4.825   4.761   0.642
  512TCM     h1 2726   5.049   4.833   0.600
  512TCM    cl3 2727   5.054   4.744   0.822
  513TCM     c1 2728   3.720   0.004   0.034
  513TCM    cl1 2729   3.776  -0.090   0.176
  513TCM    cl2 2730   3.825  -0.032  -0.107
  513TCM     h1 2731   3.617  -0.023   0.010
  513TCM    cl3 2732   3.730   0.180   0.072
  514TCM     c1 2733   0.654   0.154   2.134
  514TCM    cl1 2734   0.605   0.260   2.269
  514TCM    cl2 2735   0.736   0.251   2.007
  514TCM     h1 2736   0.723   0.077   2.170
  514TCM    cl3 2737   0.508   0.075   2.064
  515TCM     c1 2738   2.556   4.985   4.198
  515TCM    cl1 2739   2.385   5.017   4.156
  515TCM    cl2 2740   2.620   4.855   4.093
  515TCM     h1 2741   2.615   5.076   4.182
  515TCM    cl3 2742   2.568   4.935   4.370
  516TCM     c1 2743   4.220   4.075   1.373
  516TCM    cl1 2744   4.082   4.090   1.259
  516TCM    cl2 2745   4.191   4.182   1.514
  516TCM     h1 2746   4.228   3.972   1.407
  516TCM    cl3 2747   4.372   4.123   1.292
  517TCM     c1 2748   2.891   3.609   0.133
  517TCM    cl1 2749   3.005   3.519   0.238
  517TCM    cl2 2750   2.912   3.556  -0.037
  517TCM     h1 2751   2.788   3.589   0.165
  517TCM    cl3 2752   2.926   3.784   0.146
  518TCM     c1 2753   2.619   0.419   4.228
  518TCM    cl1 2754   2.630   0.293   4.355
  518TCM    cl2 2755   2.558   0.345   4.077
  518TCM     h1 2756   2.552   0.498   4.261
  518TCM    cl3 2757   2.783   0.487   4.199
  519TCM     c1 2758   2.962   3.473   1.868
  519TCM    cl1 2759   3.141   3.473   1.852
  519TCM    cl2 2760   2.913   3.594   1.991
  519TCM     h1 2761   2.916   3.497   1.772
  519TCM    cl3 2762   2.907   3.310   1.922
  520TCM     c1 2763   4.727   2.994   3.386
  520TCM    cl1 2764   4.846   2.873   3.327
  520TCM    cl2 2765   4.812   3.120   3.480
  520TCM     h1 2766   4.676   3.040   3.301
  520TCM    cl3 2767   4.607   2.911   3.491
  521TCM     c1 2768   2.024   3.366   2.949
  521TCM    cl1 2769   2.202   3.383   2.967
  521TCM    cl2 2770   1.973   3.435   2.792
  521TCM     h1 2771   1.997   3.260   2.953
  521TCM    cl3 2772   1.941   3.454   3.082
  522TCM     c1 2773   2.563   4.061   1.721
  522TCM    cl1 2774   2.500   3.979   1.575
  522TCM    cl2 2775   2.445   4.040   1.855
  522TCM     h1 2776   2.659   4.018   1.749
  522TCM    cl3 2777   2.583   4.236   1.686
  523TCM     c1 2778   0.033   1.556   2.790
  523TCM    cl1 2779  -0.091   1.665   2.721
  523TCM    cl2 2780   0.064   1.420   2.678
  523TCM     h1 2781   0.126   1.612   2.806
  523TCM    cl3 2782  -0.025   1.491   2.947
  524TCM     c1 2783   4.501   3.294   2.740
  524TCM    cl1 2784   4.616   3.388   2.840
  524TCM    cl2 2785   4.337   3.306   2.811
  524TCM     h1 2786   4.500   3.333   2.638
  524TCM    cl3 2787   4.552   3.122   2.737
  525TCM     c1 2788   2.468   4.660   2.589
  525TCM    cl1 2789   2.597   4.559   2.663
  525TCM    cl2 2790   2.463   4.820   2.672
  525TCM     h1 2791   2.490   4.675   2.483
  525TCM    cl3 2792   2.310   4.578   2.607
  526TCM     c1 2793   2.782   3.163   2.296
  526TCM    cl1 2794   2.695   3.043   2.194
  526TCM    cl2 2795   2.959   3.146   2.267
  526TCM     h1 2796   2.750   3.264   2.270
  526TCM    cl3 2797   2.747   3.131   2.469
  527TCM     c1 2798   2.010   3.086   3.942
  527TCM    cl1 2799   2.096   3.141   3.794
  527TCM    cl2 2800   2.121   3.095   4.083
  527TCM     h1 2801   1.923   3.149   3.960
  527TCM    cl3 2802   1.957   2.916   3.919
  528TCM     c1 2803   4.914   1.852   0.331
  528TCM    cl1 2804   4.833   1.727   0.231
  528TCM    cl2 2805   4.979   1.776   0.479
  528TCM     h1 2806   4.995   1.897   0.274
  528TCM    cl3 2807   4.795   1.978   0.377
  529TCM     c1 2808   2.024   3.112   2.009
  529TCM    cl1 2809   2.083   3.228   2.133
  529TCM    cl2 2810   2.090   3.158   1.849
  529TCM     h1 2811   2.055   3.011   2.035
  529TCM    cl3 2812   1.845   3.120   2.003
  530TCM     c1 2813   1.663   0.474   4.739
  530TCM    cl1 2814   1.547   0.589   4.664
  530TCM    cl2 2815   1.660   0.320   4.648
  530TCM     h1 2816   1.764   0.517   4.736
  530TCM    cl3 2817   1.614   0.444   4.909
  531TCM     c1 2818   0.156   4.976   3.968
  531TCM    cl1 2819   0.178   4.974   4.146
  531TCM    cl2 2820   0.178   5.143   3.907
  531TCM     h1 2821   0.229   4.910   3.921
  531TCM    cl3 2822  -0.010   4.922   3.928
  532TCM     c1 2823   1.531   4.421   1.658
  532TCM    cl1 2824   1.523   4.447   1.481
  532TCM    cl2 2825   1.698   4.452   1.716
  532TCM     h1 2826   1.462   4.490   1.708
  532TCM    cl3 2827   1.485   4.252   1.697
  533TCM     c1 2828   4.657   0.658   3.885
  533TCM    cl1 2829   4.523   0.636   4.002
  533TCM    cl2 2830   4.684   0.506   3.795
  533TCM     h1 2831   4.631   0.738   3.815
  533TCM    cl3 2832   4.807   0.702   3.973
  534TCM     c1 2833   1.967   2.908   0.183
  534TCM    cl1 2834   2.016   2.900   0.011
  534TCM    cl2 2835   1.839   3.032   0.202
  534TCM     h1 2836   1.929   2.811   0.215
  534TCM    cl3 2837   2.109   2.952   0.284
  535TCM     c1 2838   2.540   4.237   1.236
  535TCM    cl1 2839   2.686   4.330   1.283
  535TCM    cl2 2840   2.474   4.299   1.082
  535TCM     h1 2841   2.566   4.131   1.225
  535TCM    cl3 2842   2.414   4.254   1.363
  536TCM     c1 2843   1.374   0.611   3.914
  536TCM    cl1 2844   1.463   0.532   4.048
  536TCM    cl2 2845   1.467   0.594   3.761
  536TCM     h1 2846   1.276   0.564   3.902
  536TCM    cl3 2847   1.351   0.785   3.951
  537TCM     c1 2848   1.185   0.945   2.993
  537TCM    cl1 2849   1.258   1.073   2.891
  537TCM    cl2 2850   1.214   0.785   2.918
  537TCM     h1 2851   1.230   0.948   3.092
  537TCM    cl3 2852   1.008   0.973   3.006
  538TCM     c1 2853   2.131   3.061   3.382
  538TCM    cl1 2854   2.193   2.903   3.323
  538TCM    cl2 2855   2.067   3.153   3.242
  538TCM     h1 2856   2.052   3.045   3.455
  538TCM    cl3 2857   2.265   3.152   3.458
  539TCM     c1 2858   3.689   4.269   2.844
  539TCM    cl1 2859   3.725   4.255   3.019
  539TCM    cl2 2860   3.614   4.429   2.812
  539TCM     h1 2861   3.782   4.261   2.788
  539TCM    cl3 2862   3.577   4.138   2.795
  540TCM     c1 2863   2.490   0.071   0.204
  540TCM    cl1 2864   2.625   0.116   0.313
  540TCM    cl2 2865   2.386   0.215   0.175
  540TCM     h1 2866   2.531   0.036   0.109
  540TCM    cl3 2867   2.393  -0.059   0.280
  541TCM     c1 2868   1.716   3.514   3.975
  541TCM    cl1 2869   1.803   3.540   4.130
  541TCM    cl2 2870   1.802   3.388   3.880
  541TCM     h1 2871   1.614   3.482   3.995
  541TCM    cl3 2872   1.714   3.667   3.881
  542TCM     c1 2873   2.259   2.099   1.032
  542TCM    cl1 2874   2.245   2.227   1.157
  542TCM    cl2 2875   2.100   2.076   0.952
  542TCM     h1 2876   2.334   2.129   0.957
  542TCM    cl3 2877   2.309   1.946   1.110
  543TCM     c1 2878   2.946   0.026   3.656
  543TCM    cl1 2879   3.068   0.133   3.732
  543TCM    cl2 2880   2.905  -0.106   3.771
  543TCM     h1 2881   2.856   0.083   3.633
  543TCM    cl3 2882   3.014  -0.045   3.506
  544TCM     c1 2883   1.894   1.038   2.020
  544TCM    cl1 2884   1.926   1.054   1.844
  544TCM    cl2 2885   1.726   1.093   2.054
  544TCM     h1 2886   1.905   0.934   2.050
  544TCM    cl3 2887   2.011   1.140   2.110
  545TCM     c1 2888   2.080   2.609   0.405
  545TCM    cl1 2889   2.018   2.697   0.548
  545TCM    cl2 2890   1.941   2.550   0.308
  545TCM     h1 2891   2.141   2.677   0.344
  545TCM    cl3 2892   2.179   2.470   0.457
  546TCM     c1 2893   2.933   2.140   4.385
  546TCM    cl1 2894   2.943   2.102   4.560
  546TCM    cl2 2895   3.055   2.043   4.294
  546TCM     h1 2896   2.833   2.116   4.348
  546TCM    cl3 2897   2.966   2.314   4.360
  547TCM     c1 2898   0.534   0.580   1.998
  547TCM    cl1 2899   0.459   0.451   1.899
  547TCM    cl2 2900   0.472   0.573   2.166
  547TCM     h1 2901   0.643   0.567   1.999
  547TCM    cl3 2902   0.494   0.739   1.926
  548TCM     c1 2903   4.893   2.821   3.717
  548TCM    cl1 2904   4.821   2.951   3.816
  548TCM    cl2 2905   4.908   2.673   3.818
  548TCM     h1 2906   4.829   2.800   3.631
  548TCM    cl3 2907   5.056   2.871   3.660
  549TCM     c1 2908   4.121   4.629   0.561
  549TCM    cl1 2909   4.024   4.615   0.712
  549TCM    cl2 2910   4.040   4.744   0.450
  549TCM     h1 2911   4.221   4.666   0.586
  549TCM    cl3 2912   4.133   4.468   0.484
  550TCM     c1 2913   0.026   3.931   0.692
  550TCM    cl1 2914  -0.029   3.765   0.653
  550TCM    cl2 2915  -0.113   4.045   0.686
  550TCM     h1 2916   0.068   3.932   0.793
  550TCM    cl3 2917   0.150   3.984   0.574
  551TCM     c1 2918   2.060   2.298   3.755
  551TCM    cl1 2919   1.971   2.439   3.688
  551TCM    cl2 2920   2.137   2.345   3.910
  551TCM     h1 2921   1.990   2.216   3.773
  551TCM    cl3 2922   2.186   2.246   3.639
  552TCM     c1 2923   0.363   3.831   0.908
  552TCM    cl1 2924   0.222   3.725   0.939
  552TCM    cl2 2925   0.311   4.002   0.920
  552TCM     h1 2926   0.441   3.811   0.981
  552TCM    cl3 2927   0.425   3.799   0.743
  553TCM     c1 2928   1.306   3.983   0.319
  553TCM    cl1 2929   1.224   4.128   0.385
  553TCM    cl2 2930   1.206   3.837   0.352
  553TCM     h1 2931   1.319   3.995   0.211
  553TCM    cl3 2932   1.467   3.963   0.396
  554TCM     c1 2933   3.106   2.009   2.348
  554TCM    cl1 2934   3.209   2.040   2.205
  554TCM    cl2 2935   2.941   2.073   2.317
  554TCM     h1 2936   3.101   1.902   2.367
  554TCM    cl3 2937   3.176   2.092   2.491
  555TCM     c1 2938   1.770   2.615   2.466
  555TCM    cl1 2939   1.776   2.555   2.635
  555TCM    cl2 2940   1.636   2.533   2.378
  555TCM     h1 2941   1.753   2.723   2.466
  555TCM    cl3 2942   1.925   2.579   2.384
  556TCM     c1 2943   3.168   4.815   1.894
  556TCM    cl1 2944   3.068   4.858   1.752
  556TCM    cl2 2945   3.074   4.708   2.003
  556TCM     h1 2946   3.259   4.764   1.861
  556TCM    cl3 2947   3.212   4.964   1.983
  557TCM     c1 2948   0.750   2.224   4.432
  557TCM    cl1 2949   0.812   2.392   4.450
  557TCM    cl2 2950   0.813   2.154   4.279
  557TCM     h1 2951   0.783   2.164   4.517
  557TCM    cl3 2952   0.571   2.227   4.426
  558TCM     c1 2953   4.568   3.534   4.929
  558TCM    cl1 2954   4.573   3.569   5.105
  558TCM    cl2 2955   4.730   3.484   4.871
  558TCM     h1 2956   4.496   3.453   4.911
  558TCM    cl3 2957   4.515   3.681   4.841
  559TCM     c1 2958   0.004   1.958   4.171
  559TCM    cl1 2959   0.017   1.782   4.199
  559TCM    cl2 2960  -0.035   1.989   3.998
  559TCM     h1 2961  -0.076   1.999   4.234
  559TCM    cl3 2962   0.159   2.038   4.212
  560TCM     c1 2963   3.868   2.056   2.613
  560TCM    cl1 2964   3.825   2.228   2.641
  560TCM    cl2 2965   3.733   1.974   2.528
  560TCM     h1 2966   3.958   2.050   2.551
  560TCM    cl3 2967   3.897   1.975   2.770
  561TCM     c1 2968   1.125   2.645   4.917
  561TCM    cl1 2969   1.216   2.616   4.765
  561TCM    cl2 2970   0.963   2.711   4.878
  561TCM     h1 2971   1.114   2.551   4.972
  561TCM    cl3 2972   1.216   2.764   5.016
  562TCM     c1 2973   3.417   1.963   2.753
  562TCM    cl1 2974   3.258   1.965   2.836
  562TCM    cl2 2975   3.491   1.800   2.771
  562TCM     h1 2976   3.404   1.985   2.647
  562TCM    cl3 2977   3.526   2.085   2.826
  563TCM     c1 2978   2.697   4.727   0.933
  563TCM    cl1 2979   2.567   4.830   0.864
  563TCM    cl2 2980   2.765   4.622   0.804
  563TCM     h1 2981   2.776   4.790   0.974
  563TCM    cl3 2982   2.629   4.624   1.063
  564TCM     c1 2983   1.654   3.984   0.712
  564TCM    cl1 2984   1.667   3.943   0.887
  564TCM    cl2 2985   1.809   3.941   0.631
  564TCM     h1 2986   1.572   3.928   0.667
  564TCM    cl3 2987   1.624   4.160   0.694
  565TCM     c1 2988   4.842   3.173   0.068
  565TCM    cl1 2989   4.771   3.276   0.196
  565TCM    cl2 2990   4.733   3.034   0.036
  565TCM     h1 2991   4.854   3.232  -0.023
  565TCM    cl3 2992   5.001   3.111   0.123
  566TCM     c1 2993   2.873   4.829   2.810
  566TCM    cl1 2994   2.797   4.970   2.730
  566TCM    cl2 2995   2.926   4.710   2.686
  566TCM     h1 2996   2.960   4.862   2.868
  566TCM    cl3 2997   2.755   4.752   2.921
  567TCM     c1 2998   4.332   3.893   3.507
  567TCM    cl1 2999   4.252   3.774   3.615
  567TCM    cl2 3000   4.248   4.051   3.519
  567TCM     h1 3001   4.436   3.905   3.536
  567TCM    cl3 3002   4.320   3.835   3.338
  568TCM     c1 3003   1.580   0.752   2.928
  568TCM    cl1 3004   1.551   0.868   2.795
  568TCM    cl2 3005   1.527   0.826   3.083
  568TCM     h1 3006   1.525   0.660   2.910
  568TCM    cl3 3007   1.756   0.718   2.937
  569TCM     c1 3008   2.947   2.648   4.640
  569TCM    cl1 3009   3.053   2.510   4.683
  569TCM    cl2 3010   2.953   2.675   4.463
  569TCM     h1 3011   2.844   2.625   4.669
  569TCM    cl3 3012   3.002   2.796   4.726
  570TCM     c1 3013   2.180   4.010   0.574
  570TCM    cl1 3014   2.132   4.070   0.412
  570TCM    cl2 3015   2.354   4.043   0.601
  570TCM     h1 3016   2.120   4.060   0.651
  570TCM    cl3 3017   2.153   3.832   0.583
  571TCM     c1 3018   3.226   1.756   0.280
  571TCM    cl1 3019   3.180   1.918   0.218
  571TCM    cl2 3020   3.257   1.645   0.142
  571TCM     h1 3021   3.316   1.764   0.342
  571TCM    cl3 3022   3.091   1.690   0.379
  572TCM     c1 3023   2.474   1.558   3.547
  572TCM    cl1 3024   2.421   1.725   3.586
  572TCM    cl2 3025   2.329   1.457   3.520
  572TCM     h1 3026   2.537   1.558   3.458
  572TCM    cl3 3027   2.568   1.491   3.686
  573TCM     c1 3028   1.009   0.942   2.629
  573TCM    cl1 3029   1.166   0.948   2.543
  573TCM    cl2 3030   0.885   0.870   2.520
  573TCM     h1 3031   1.018   0.881   2.719
  573TCM    cl3 3032   0.958   1.108   2.673
  574TCM     c1 3033   2.450   4.265   0.081
  574TCM    cl1 3034   2.431   4.161   0.226
  574TCM    cl2 3035   2.330   4.216  -0.043
  574TCM     h1 3036   2.434   4.369   0.108
  574TCM    cl3 3037   2.616   4.245   0.016
  575TCM     c1 3038   2.171   4.413   1.572
  575TCM    cl1 3039   2.071   4.521   1.675
  575TCM    cl2 3040   2.073   4.361   1.431
  575TCM     h1 3041   2.260   4.466   1.538
  575TCM    cl3 3042   2.219   4.269   1.668
  576TCM     c1 3043   0.624   2.577   4.886
  576TCM    cl1 3044   0.461   2.586   4.959
  576TCM    cl2 3045   0.609   2.558   4.708
  576TCM     h1 3046   0.679   2.669   4.908
  576TCM    cl3 3047   0.713   2.436   4.953
  577TCM     c1 3048   1.317   1.117   1.714
  577TCM    cl1 3049   1.277   1.291   1.694
  577TCM    cl2 3050   1.218   1.048   1.847
  577TCM     h1 3051   1.295   1.064   1.621
  577TCM    cl3 3052   1.491   1.100   1.755
  578TCM     c1 3053   0.156   3.413   3.478
  578TCM    cl1 3054  -0.009   3.476   3.511
  578TCM    cl2 3055   0.217   3.487   3.327
  578TCM     h1 3056   0.222   3.439   3.561
  578TCM    cl3 3057   0.150   3.235   3.459
  579TCM     c1 3058   2.200   0.025   1.329
  579TCM    cl1 3059   2.189   0.074   1.502
  579TCM    cl2 3060   2.330   0.118   1.248
  579TCM     h1 3061   2.221  -0.082   1.323
  579TCM    cl3 3062   2.043   0.060   1.248
  580TCM     c1 3063   4.894   0.203   3.622
  580TCM    cl1 3064   4.986   0.052   3.592
  580TCM    cl2 3065   4.719   0.169   3.612
  580TCM     h1 3066   4.919   0.242   3.721
  580TCM    cl3 3067   4.938   0.326   3.498
  581TCM     c1 3068   4.212   0.019   3.134
  581TCM    cl1 3069   4.122   0.171   3.103
  581TCM    cl2 3070   4.346   0.004   3.017
  581TCM     h1 3071   4.252   0.021   3.236
  581TCM    cl3 3072   4.100  -0.120   3.118
  582TCM     c1 3073   2.934   4.001   1.410
  582TCM    cl1 3074   2.908   4.069   1.574
  582TCM    cl2 3075   3.012   4.125   1.306
  582TCM     h1 3076   2.999   3.913   1.417
  582TCM    cl3 3077   2.776   3.955   1.339
  583TCM     c1 3078   4.439   4.333   3.760
  583TCM    cl1 3079   4.516   4.171   3.775
  583TCM    cl2 3080   4.261   4.316   3.768
  583TCM     h1 3081   4.473   4.397   3.842
  583TCM    cl3 3082   4.486   4.407   3.603
  584TCM     c1 3083   0.866   3.921   0.152
  584TCM    cl1 3084   0.825   4.017   0.298
  584TCM    cl2 3085   1.020   3.981   0.083
  584TCM     h1 3086   0.877   3.816   0.179
  584TCM    cl3 3087   0.735   3.938   0.031
  585TCM     c1 3088   0.275   2.256   4.889
  585TCM    cl1 3089   0.244   2.094   4.961
  585TCM    cl2 3090   0.131   2.304   4.792
  585TCM     h1 3091   0.292   2.329   4.968
  585TCM    cl3 3092   0.419   2.246   4.782
  586TCM     c1 3093   0.971   0.273   2.449
  586TCM    cl1 3094   0.844   0.198   2.551
  586TCM    cl2 3095   0.984   0.183   2.294
  586TCM     h1 3096   0.946   0.377   2.429
  586TCM    cl3 3097   1.129   0.266   2.536
  587TCM     c1 3098   0.671   1.293   4.151
  587TCM    cl1 3099   0.729   1.209   4.004
  587TCM    cl2 3100   0.690   1.185   4.293
  587TCM     h1 3101   0.728   1.384   4.167
  587TCM    cl3 3102   0.498   1.334   4.130
  588TCM     c1 3103   3.316   2.296   4.531
  588TCM    cl1 3104   3.383   2.176   4.415
  588TCM    cl2 3105   3.439   2.422   4.563
  588TCM     h1 3106   3.226   2.341   4.488
  588TCM    cl3 3107   3.274   2.214   4.685
  589TCM     c1 3108   2.055   3.227   4.855
  589TCM    cl1 3109   2.212   3.244   4.771
  589TCM    cl2 3110   1.935   3.338   4.782
  589TCM     h1 3111   2.019   3.124   4.845
  589TCM    cl3 3112   2.075   3.267   5.029
  590TCM     c1 3113   0.900   0.485   0.638
  590TCM    cl1 3114   1.029   0.400   0.546
  590TCM    cl2 3115   0.874   0.399   0.793
  590TCM     h1 3116   0.932   0.588   0.657
  590TCM    cl3 3117   0.748   0.486   0.542
  591TCM     c1 3118   0.381   3.806   0.361
  591TCM    cl1 3119   0.537   3.750   0.291
  591TCM    cl2 3120   0.287   3.664   0.418
  591TCM     h1 3121   0.400   3.873   0.445
  591TCM    cl3 3122   0.288   3.892   0.234
  592TCM     c1 3123   3.009   1.346   3.062
  592TCM    cl1 3124   2.952   1.442   2.922
  592TCM    cl2 3125   3.107   1.207   3.005
  592TCM     h1 3126   3.070   1.409   3.127
  592TCM    cl3 3127   2.867   1.287   3.155
  593TCM     c1 3128   2.680   4.639   0.058
  593TCM    cl1 3129   2.648   4.558   0.215
  593TCM    cl2 3130   2.696   4.815   0.084
  593TCM     h1 3131   2.772   4.600   0.015
  593TCM    cl3 3132   2.543   4.607  -0.053
  594TCM     c1 3133   3.679   3.530   2.987
  594TCM    cl1 3134   3.835   3.556   2.902
  594TCM    cl2 3135   3.608   3.373   2.938
  594TCM     h1 3136   3.696   3.531   3.095
  594TCM    cl3 3137   3.564   3.661   2.943
  595TCM     c1 3138   2.737   4.050   0.832
  595TCM    cl1 3139   2.679   4.211   0.778
  595TCM    cl2 3140   2.684   3.925   0.716
  595TCM     h1 3141   2.846   4.051   0.838
  595TCM    cl3 3142   2.668   4.013   0.993
  596TCM     c1 3143   4.299   4.225   0.956
  596TCM    cl1 3144   4.477   4.246   0.965
  596TCM    cl2 3145   4.261   4.050   0.934
  596TCM     h1 3146   4.253   4.260   1.049
  596TCM    cl3 3147   4.235   4.319   0.817
  597TCM     c1 3148   4.373   2.823   0.216
  597TCM    cl1 3149   4.233   2.711   0.228
  597TCM    cl2 3150   4.398   2.868   0.045
  597TCM     h1 3151   4.353   2.913   0.275
  597TCM    cl3 3152   4.521   2.742   0.277
  598TCM     c1 3153   2.612   1.078   2.022
  598TCM    cl1 3154   2.605   1.074   1.843
  598TCM    cl2 3155   2.494   1.198   2.083
  598TCM     h1 3156   2.587   0.979   2.062
  598TCM    cl3 3157   2.777   1.125   2.074
  599TCM     c1 3158   3.214   4.404   2.774
  599TCM    cl1 3159   3.273   4.349   2.934
  599TCM    cl2 3160   3.266   4.287   2.648
  599TCM     h1 3161   3.105   4.410   2.776
  599TCM    cl3 3162   3.283   4.565   2.736
  600TCM     c1 3163   3.770   3.532   3.643
  600TCM    cl1 3164   3.714   3.404   3.756
  600TCM    cl2 3165   3.928   3.596   3.699
  600TCM     h1 3166   3.782   3.490   3.543
  600TCM    cl3 3167   3.649   3.665   3.639
  601TCM     c1 3168   3.954   0.326   4.791
  601TCM    cl1 3169   4.084   0.450   4.778
  601TCM    cl2 3170   3.979   0.203   4.663
  601TCM     h1 3171   3.958   0.278   4.889
  601TCM    cl3 3172   3.794   0.403   4.768
  602TCM     c1 3173   3.023   3.220   3.242
  602TCM    cl1 3174   2.952   3.346   3.349
  602TCM    cl2 3175   2.891   3.128   3.162
  602TCM     h1 3176   3.085   3.268   3.166
  602TCM    cl3 3177   3.124   3.109   3.340
  603TCM     c1 3178   0.495   2.323   1.702
  603TCM    cl1 3179   0.385   2.200   1.632
  603TCM    cl2 3180   0.609   2.246   1.818
  603TCM     h1 3181   0.552   2.371   1.621
  603TCM    cl3 3182   0.398   2.448   1.788
  604TCM     c1 3183   4.880   4.192   2.969
  604TCM    cl1 3184   5.008   4.264   2.867
  604TCM    cl2 3185   4.952   4.126   3.120
  604TCM     h1 3186   4.806   4.268   2.995
  604TCM    cl3 3187   4.800   4.059   2.879
  605TCM     c1 3188   2.149   3.387   1.307
  605TCM    cl1 3189   2.323   3.348   1.289
  605TCM    cl2 3190   2.072   3.265   1.414
  605TCM     h1 3191   2.138   3.486   1.351
  605TCM    cl3 3192   2.068   3.384   1.147
  606TCM     c1 3193   4.948   1.615   2.299
  606TCM    cl1 3194   4.830   1.513   2.388
  606TCM    cl2 3195   5.115   1.563   2.338
  606TCM     h1 3196   4.930   1.604   2.191
  606TCM    cl3 3197   4.925   1.786   2.347
  607TCM     c1 3198   3.952   3.190   3.301
  607TCM    cl1 3199   3.878   3.298   3.178
  607TCM    cl2 3200   3.891   3.023   3.278
  607TCM     h1 3201   4.060   3.191   3.290
  607TCM    cl3 3202   3.907   3.249   3.464
  608TCM     c1 3203   1.809   3.412   3.427
  608TCM    cl1 3204   1.926   3.325   3.532
  608TCM    cl2 3205   1.700   3.510   3.530
  608TCM     h1 3206   1.863   3.477   3.358
  608TCM    cl3 3207   1.712   3.293   3.335
  609TCM     c1 3208   2.389   3.318   2.475
  609TCM    cl1 3209   2.429   3.245   2.633
  609TCM    cl2 3210   2.379   3.190   2.350
  609TCM     h1 3211   2.293   3.369   2.482
  609TCM    cl3 3212   2.516   3.436   2.428
  610TCM     c1 3213   1.564   2.666   4.945
  610TCM    cl1 3214   1.549   2.504   4.870
  610TCM    cl2 3215   1.568   2.791   4.816
  610TCM     h1 3216   1.479   2.684   5.012
  610TCM    cl3 3217   1.717   2.675   5.039
  611TCM     c1 3218   4.552   0.834   2.680
  611TCM    cl1 3219   4.437   0.722   2.600
  611TCM    cl2 3220   4.466   0.929   2.806
  611TCM     h1 3221   4.633   0.777   2.726
  611TCM    cl3 3222   4.619   0.947   2.558
  612TCM     c1 3223   4.608   1.871   1.139
  612TCM    cl1 3224   4.671   1.716   1.077
  612TCM    cl2 3225   4.524   1.959   1.007
  612TCM     h1 3226   4.539   1.852   1.221
  612TCM    cl3 3227   4.745   1.971   1.198
  613TCM     c1 3228   3.022   3.896   0.476
  613TCM    cl1 3229   3.029   4.014   0.611
  613TCM    cl2 3230   2.949   3.743   0.535
  613TCM     h1 3231   2.961   3.937   0.395
  613TCM    cl3 3232   3.188   3.864   0.417
  614TCM     c1 3233   2.580   4.020   3.368
  614TCM    cl1 3234   2.465   3.917   3.278
  614TCM    cl2 3235   2.567   3.986   3.544
  614TCM     h1 3236   2.682   4.000   3.334
  614TCM    cl3 3237   2.541   4.193   3.339
  615TCM     c1 3238   1.975   4.406   1.988
  615TCM    cl1 3239   1.857   4.315   2.089
  615TCM    cl2 3240   2.141   4.348   2.023
  615TCM     h1 3241   1.952   4.389   1.882
  615TCM    cl3 3242   1.963   4.581   2.025
  616TCM     c1 3243   1.137   1.686   0.578
  616TCM    cl1 3244   1.097   1.621   0.416
  616TCM    cl2 3245   1.142   1.552   0.697
  616TCM     h1 3246   1.235   1.736   0.574
  616TCM    cl3 3247   1.012   1.804   0.627
  617TCM     c1 3248   0.166   2.946   4.197
  617TCM    cl1 3249   0.271   3.091   4.182
  617TCM    cl2 3250   0.236   2.834   4.318
  617TCM     h1 3251   0.066   2.977   4.228
  617TCM    cl3 3252   0.156   2.863   4.038
  618TCM     c1 3253   0.263   1.439   4.481
  618TCM    cl1 3254   0.442   1.425   4.482
  618TCM    cl2 3255   0.197   1.352   4.339
  618TCM     h1 3256   0.223   1.395   4.572
  618TCM    cl3 3257   0.218   1.612   4.473
  619TCM     c1 3258   4.811   2.659   0.689
  619TCM    cl1 3259   4.700   2.596   0.563
  619TCM    cl2 3260   4.813   2.546   0.829
  619TCM     h1 3261   4.912   2.669   0.648
  619TCM    cl3 3262   4.752   2.819   0.745
  620TCM     c1 3263   2.101   3.991   4.590
  620TCM    cl1 3264   1.956   3.998   4.696
  620TCM    cl2 3265   2.183   4.151   4.591
  620TCM     h1 3266   2.170   3.915   4.628
  620TCM    cl3 3267   2.051   3.949   4.423
  621TCM     c1 3268   3.064   3.536   2.937
  621TCM    cl1 3269   2.911   3.463   2.997
  621TCM    cl2 3270   3.191   3.410   2.930
  621TCM     h1 3271   3.048   3.578   2.837
  621TCM    cl3 3272   3.115   3.666   3.049
  622TCM     c1 3273   2.884   4.307   0.341
  622TCM    cl1 3274   2.940   4.167   0.243
  622TCM    cl2 3275   3.006   4.346   0.466
  622TCM     h1 3276   2.870   4.393   0.276
  622TCM    cl3 3277   2.729   4.266   0.421
  623TCM     c1 3278   3.383   4.340   0.422
  623TCM    cl1 3279   3.353   4.503   0.352
  623TCM    cl2 3280   3.560   4.313   0.436
  623TCM     h1 3281   3.337   4.334   0.521
  623TCM    cl3 3282   3.312   4.215   0.315
  624TCM     c1 3283   2.327   3.642   0.839
  624TCM    cl1 3284   2.415   3.584   0.693
  624TCM    cl2 3285   2.383   3.807   0.880
  624TCM     h1 3286   2.220   3.644   0.818
  624TCM    cl3 3287   2.359   3.533   0.977
  625TCM     c1 3288   3.933   3.903   3.403
  625TCM    cl1 3289   3.808   3.793   3.337
  625TCM    cl2 3290   3.896   3.938   3.575
  625TCM     h1 3291   4.031   3.857   3.395
  625TCM    cl3 3292   3.932   4.058   3.312
  626TCM     c1 3293   3.863   0.089   3.367
  626TCM    cl1 3294   4.026   0.096   3.442
  626TCM    cl2 3295   3.748   0.183   3.468
  626TCM     h1 3296   3.867   0.132   3.266
  626TCM    cl3 3297   3.810  -0.082   3.357
  627TCM     c1 3298   2.251   2.543   3.301
  627TCM    cl1 3299   2.419   2.583   3.252
  627TCM    cl2 3300   2.232   2.573   3.477
  627TCM     h1 3301   2.181   2.607   3.246
  627TCM    cl3 3302   2.217   2.371   3.266
  628TCM     c1 3303   4.654   4.522   2.820
  628TCM    cl1 3304   4.730   4.548   2.980
  628TCM    cl2 3305   4.591   4.354   2.811
  628TCM     h1 3306   4.571   4.593   2.806
  628TCM    cl3 3307   4.777   4.547   2.692
  629TCM     c1 3308   2.260   0.747   1.927
  629TCM    cl1 3309   2.084   0.708   1.933
  629TCM    cl2 3310   2.347   0.642   2.043
  629TCM     h1 3311   2.298   0.730   1.826
  629TCM    cl3 3312   2.284   0.918   1.974
  630TCM     c1 3313   0.193   2.406   3.062
  630TCM    cl1 3314   0.180   2.410   2.883
  630TCM    cl2 3315   0.281   2.258   3.112
  630TCM     h1 3316   0.246   2.495   3.097
  630TCM    cl3 3317   0.028   2.404   3.134
  631TCM     c1 3318   1.123   3.930   0.773
  631TCM    cl1 3319   1.011   3.981   0.643
  631TCM    cl2 3320   1.291   3.937   0.714
  631TCM     h1 3321   1.112   3.996   0.860
  631TCM    cl3 3322   1.083   3.761   0.821
  632TCM     c1 3323   2.519   2.781   0.612
  632TCM    cl1 3324   2.490   2.939   0.532
  632TCM    cl2 3325   2.362   2.708   0.657
  632TCM     h1 3326   2.573   2.715   0.544
  632TCM    cl3 3327   2.616   2.808   0.761
  633TCM     c1 3328   0.383   0.011   0.733
  633TCM    cl1 3329   0.343  -0.128   0.628
  633TCM    cl2 3330   0.314  -0.016   0.896
  633TCM     h1 3331   0.492   0.022   0.740
  633TCM    cl3 3332   0.313   0.161   0.663
  634TCM     c1 3333   0.032   2.003   3.093
  634TCM    cl1 3334  -0.031   2.067   3.248
  634TCM    cl2 3335  -0.030   2.101   2.956
  634TCM     h1 3336   0.141   2.005   3.094
  634TCM    cl3 3337  -0.026   1.834   3.072
  635TCM     c1 3338   2.339   0.757   3.387
  635TCM    cl1 3339   2.313   0.671   3.232
  635TCM    cl2 3340   2.512   0.742   3.434
  635TCM     h1 3341   2.313   0.862   3.375
  635TCM    cl3 3342   2.236   0.683   3.514
  636TCM     c1 3343   4.761   0.939   2.225
  636TCM    cl1 3344   4.829   1.094   2.286
  636TCM    cl2 3345   4.890   0.847   2.141
  636TCM     h1 3346   4.722   0.881   2.309
  636TCM    cl3 3347   4.627   0.974   2.110
  637TCM     c1 3348   3.854   0.246   4.335
  637TCM    cl1 3349   3.700   0.276   4.423
  637TCM    cl2 3350   3.838   0.307   4.167
  637TCM     h1 3351   3.936   0.299   4.385
  637TCM    cl3 3352   3.888   0.070   4.332
  638TCM     c1 3353   0.017   0.931   4.762
  638TCM    cl1 3354   0.038   0.982   4.591
  638TCM    cl2 3355   0.169   0.855   4.821
  638TCM     h1 3356  -0.006   1.018   4.823
  638TCM    cl3 3357  -0.117   0.813   4.771
  639TCM     c1 3358   2.740   0.734   1.598
  639TCM    cl1 3359   2.859   0.837   1.684
  639TCM    cl2 3360   2.584   0.734   1.686
  639TCM     h1 3361   2.725   0.773   1.497
  639TCM    cl3 3362   2.803   0.566   1.587
  640TCM     c1 3363   1.953   1.111   3.644
  640TCM    cl1 3364   2.015   1.084   3.810
  640TCM    cl2 3365   2.002   0.972   3.541
  640TCM     h1 3366   1.844   1.119   3.646
  640TCM    cl3 3367   2.023   1.261   3.576
   5.00000   5.00000   5.00000
