FOO
 3367
    1POP     C1    1   2.987   4.413   0.219
    1POP     O2    2   3.073   4.364   0.147
    1POP     C3    3   3.030   4.477   0.345
    1POP     C4    4   2.999   4.612   0.372
    1POP     C5    5   3.046   4.674   0.489
    1POP     C6    6   3.124   4.602   0.582
    1POP     C7    7   3.177   4.669   0.704
    1POP     C8    8   3.168   4.611   0.835
    1POP     C9    9   3.229   4.678   0.944
    1POP    C10   10   3.293   4.801   0.928
    1POP    O11   11   3.345   4.860   1.043
    1POP    C12   12   3.410   4.989   1.030
    1POP    C13   13   3.301   4.859   0.799
    1POP    C14   14   3.244   4.792   0.689
    1POP    C15   15   3.090   4.487   0.864
    1POP    C16   16   3.141   4.389   0.952
    1POP    C17   17   3.064   4.277   0.989
    1POP    C18   18   2.932   4.262   0.939
    1POP    C19   19   2.882   4.358   0.848
    1POP    C20   20   2.959   4.470   0.812
    1POP    C21   21   2.842   4.145   0.979
    1POP    N22   22   2.858   4.040   0.877
    1POP    C23   23   2.873   4.086   1.119
    1POP    C24   24   3.155   4.466   0.556
    1POP    C25   25   3.108   4.404   0.438
    1POP    H26   26   2.940   4.670   0.301
    1POP    H27   27   3.022   4.778   0.508
    1POP    H28   28   3.223   4.636   1.044
    1POP    H29   29   3.442   5.021   1.129
    1POP    H30   30   3.339   5.062   0.990
    1POP    H31   31   3.497   4.979   0.965
    1POP    H32   32   3.350   4.954   0.781
    1POP    H33   33   3.252   4.837   0.590
    1POP    H34   34   3.242   4.400   0.993
    1POP    H35   35   3.107   4.204   1.057
    1POP    H36   36   2.782   4.346   0.807
    1POP    H37   37   2.918   4.544   0.744
    1POP    H38   38   2.739   4.182   0.981
    1POP    H39   39   2.952   4.007   0.859
    1POP    H40   40   2.797   4.011   1.143
    1POP    H41   41   2.868   4.166   1.193
    1POP    H42   42   2.971   4.039   1.120
    1POP    H43   43   3.216   4.410   0.626
    1POP    H44   44   3.133   4.300   0.419
    2POP    C45   45   2.754   3.969   0.821
    2POP    O46   46   2.640   3.986   0.862
    2POP    C47   47   2.781   3.866   0.717
    2POP    C48   48   2.904   3.863   0.646
    2POP    C49   49   2.926   3.769   0.544
    2POP    C50   50   2.826   3.674   0.513
    2POP    C51   51   2.842   3.581   0.401
    2POP    C52   52   2.861   3.442   0.423
    2POP    C53   53   2.855   3.353   0.314
    2POP    C54   54   2.832   3.399   0.183
    2POP    O55   55   2.828   3.303   0.083
    2POP    C56   56   2.802   3.348  -0.052
    2POP    C57   57   2.814   3.538   0.161
    2POP    C58   58   2.818   3.627   0.270
    2POP    C59   59   2.890   3.388   0.558
    2POP    C60   60   2.798   3.302   0.622
    2POP    C61   61   2.830   3.243   0.746
    2POP    C62   62   2.956   3.268   0.806
    2POP    C63   63   3.047   3.356   0.743
    2POP    C64   64   3.013   3.417   0.620
    2POP    C65   65   2.997   3.197   0.935
    2POP    N66   66   2.905   3.234   1.044
    2POP    C67   67   2.996   3.044   0.914
    2POP    C68   68   2.706   3.673   0.586
    2POP    C69   69   2.682   3.769   0.686
    2POP    H70   70   2.982   3.936   0.667
    2POP    H71   71   3.019   3.770   0.488
    2POP    H72   72   2.870   3.246   0.331
    2POP    H73   73   2.800   3.261  -0.118
    2POP    H74   74   2.881   3.417  -0.084
    2POP    H75   75   2.704   3.397  -0.056
    2POP    H76   76   2.794   3.578   0.063
    2POP    H77   77   2.799   3.733   0.252
    2POP    H78   78   2.703   3.278   0.574
    2POP    H79   79   2.759   3.175   0.792
    2POP    H80   80   3.144   3.375   0.787
    2POP    H81   81   3.084   3.482   0.570
    2POP    H82   82   3.099   3.227   0.961
    2POP    H83   83   2.807   3.248   1.022
    2POP    H84   84   3.028   2.996   1.006
    2POP    H85   85   3.067   3.019   0.834
    2POP    H86   86   2.896   3.010   0.886
    2POP    H87   87   2.629   3.599   0.563
    2POP    H88   88   2.586   3.769   0.737
    3POP    C89   89   2.941   3.240   1.177
    3POP    O90   90   3.055   3.208   1.210
    3POP    C91   91   2.848   3.294   1.279
    3POP    C92   92   2.753   3.394   1.245
    3POP    C93   93   2.670   3.451   1.344
    3POP    C94   94   2.681   3.411   1.479
    3POP    C95   95   2.602   3.482   1.585
    3POP    C96   96   2.547   3.415   1.700
    3POP    C97   97   2.485   3.492   1.801
    3POP    C98   98   2.470   3.631   1.790
    3POP    O99   99   2.405   3.696   1.895
    3POP   C100  100   2.382   3.839   1.881
    3POP   C101  101   2.520   3.696   1.675
    3POP   C102  102   2.585   3.622   1.574
    3POP   C103  103   2.544   3.267   1.715
    3POP   C104  104   2.584   3.208   1.837
    3POP   C105  105   2.572   3.069   1.857
    3POP   C106  106   2.518   2.986   1.756
    3POP   C107  107   2.479   3.045   1.633
    3POP   C108  108   2.492   3.184   1.613
    3POP   C109  109   2.494   2.836   1.777
    3POP   N110  110   2.582   2.760   1.687
    3POP   C111  111   2.520   2.786   1.922
    3POP   C112  112   2.775   3.311   1.513
    3POP   C113  113   2.858   3.253   1.414
    3POP   H114  114   2.744   3.429   1.142
    3POP   H115  115   2.599   3.527   1.315
    3POP   H116  116   2.443   3.442   1.888
    3POP   H117  117   2.327   3.874   1.970
    3POP   H118  118   2.322   3.859   1.792
    3POP   H119  119   2.478   3.891   1.876
    3POP   H120  120   2.511   3.803   1.661
    3POP   H121  121   2.625   3.676   1.489
    3POP   H122  122   2.624   3.269   1.917
    3POP   H123  123   2.604   3.029   1.953
    3POP   H124  124   2.436   2.983   1.555
    3POP   H125  125   2.459   3.228   1.519
    3POP   H126  126   2.389   2.816   1.754
    3POP   H127  127   2.679   2.788   1.681
    3POP   H128  128   2.494   2.680   1.928
    3POP   H129  129   2.457   2.843   1.991
    3POP   H130  130   2.626   2.799   1.946
    3POP   H131  131   2.788   3.280   1.616
    3POP   H132  132   2.931   3.178   1.443
    4POP   C133  133   2.547   2.638   1.632
    4POP   O134  134   2.436   2.592   1.653
    4POP   C135  135   2.644   2.563   1.547
    4POP   C136  136   2.754   2.627   1.485
    4POP   C137  137   2.845   2.553   1.406
    4POP   C138  138   2.829   2.414   1.389
    4POP   C139  139   2.924   2.335   1.304
    4POP   C140  140   2.967   2.203   1.339
    4POP   C141  141   3.045   2.130   1.246
    4POP   C142  142   3.087   2.186   1.124
    4POP   O143  143   3.168   2.107   1.043
    4POP   C144  144   3.209   2.163   0.915
    4POP   C145  145   3.050   2.319   1.094
    4POP   C146  146   2.969   2.392   1.183
    4POP   C147  147   2.948   2.146   1.476
    4POP   C148  148   2.902   2.013   1.493
    4POP   C149  149   2.891   1.957   1.622
    4POP   C150  150   2.928   2.033   1.736
    4POP   C151  151   2.975   2.165   1.719
    4POP   C152  152   2.984   2.221   1.590
    4POP   C153  153   2.925   1.973   1.877
    4POP   N154  154   2.802   1.893   1.899
    4POP   C155  155   3.047   1.881   1.897
    4POP   C156  156   2.718   2.350   1.450
    4POP   C157  157   2.627   2.423   1.528
    4POP   H158  158   2.769   2.734   1.496
    4POP   H159  159   2.929   2.605   1.361
    4POP   H160  160   3.078   2.029   1.270
    4POP   H161  161   3.266   2.087   0.862
    4POP   H162  162   3.273   2.250   0.932
    4POP   H163  163   3.122   2.189   0.856
    4POP   H164  164   3.082   2.368   1.003
    4POP   H165  165   2.938   2.492   1.154
    4POP   H166  166   2.873   1.954   1.406
    4POP   H167  167   2.856   1.855   1.633
    4POP   H168  168   3.004   2.225   1.805
    4POP   H169  169   3.021   2.323   1.579
    4POP   H170  170   2.931   2.054   1.949
    4POP   H171  171   2.789   1.808   1.847
    4POP   H172  172   3.048   1.846   2.001
    4POP   H173  173   3.138   1.937   1.877
    4POP   H174  174   3.040   1.795   1.830
    4POP   H175  175   2.700   2.244   1.437
    4POP   H176  176   2.542   2.372   1.574
    5CAP   C177  177   2.819   4.353   0.060
    5CAP   O178  178   2.853   4.414   0.188
    5CAP   H179  179   2.866   4.409  -0.022
    5CAP   H180  180   2.711   4.355   0.047
    5CAP   H181  181   2.853   4.249   0.058
    6CAP   C182  182   2.448   1.683   2.121
    6CAP   C183  183   2.535   1.810   2.137
    6CAP   C184  184   2.441   1.933   2.127
    6CAP   C185  185   2.604   1.800   2.276
    6CAP   O186  186   2.631   1.802   2.027
    6CAP   C187  187   2.719   1.905   2.008
    6CAP   O188  188   2.732   2.003   2.080
    6CAP   H189  189   2.370   1.682   2.197
    6CAP   H190  190   2.403   1.683   2.022
    6CAP   H191  191   2.511   1.594   2.133
    6CAP   H192  192   2.408   1.945   2.023
    6CAP   H193  193   2.493   2.023   2.160
    6CAP   H194  194   2.354   1.918   2.191
    6CAP   H195  195   2.672   1.715   2.278
    6CAP   H196  196   2.660   1.892   2.297
    6CAP   H197  197   2.527   1.788   2.353
    7TCM     c1  198   4.212   0.455   2.598
    7TCM    cl1  199   4.339   0.421   2.476
    7TCM    cl2  200   4.083   0.556   2.524
    7TCM     h1  201   4.168   0.361   2.632
    7TCM    cl3  202   4.285   0.543   2.736
    8TCM     c1  203   1.534   2.397   4.419
    8TCM    cl1  204   1.445   2.272   4.326
    8TCM    cl2  205   1.470   2.559   4.375
    8TCM     h1  206   1.519   2.379   4.526
    8TCM    cl3  207   1.708   2.388   4.379
    9TCM     c1  208   1.542   1.895   0.911
    9TCM    cl1  209   1.530   1.767   0.785
    9TCM    cl2  210   1.476   2.048   0.847
    9TCM     h1  211   1.485   1.864   0.999
    9TCM    cl3  212   1.715   1.917   0.956
   10TCM     c1  213   2.739   0.359   3.710
   10TCM    cl1  214   2.793   0.284   3.557
   10TCM    cl2  215   2.680   0.231   3.821
   10TCM     h1  216   2.822   0.413   3.757
   10TCM    cl3  217   2.605   0.473   3.677
   11TCM     c1  218   2.114   1.417   2.728
   11TCM    cl1  219   2.003   1.497   2.612
   11TCM    cl2  220   2.041   1.421   2.892
   11TCM     h1  221   2.130   1.313   2.697
   11TCM    cl3  222   2.271   1.503   2.731
   12TCM     c1  223   4.865   1.261   0.093
   12TCM    cl1  224   4.969   1.362  -0.013
   12TCM    cl2  225   4.920   1.277   0.262
   12TCM     h1  226   4.761   1.295   0.084
   12TCM    cl3  227   4.876   1.090   0.042
   13TCM     c1  228   2.715   0.631   2.374
   13TCM    cl1  229   2.560   0.685   2.447
   13TCM    cl2  230   2.681   0.553   2.216
   13TCM     h1  231   2.781   0.717   2.360
   13TCM    cl3  232   2.795   0.512   2.483
   14TCM     c1  233   3.397   3.760   4.583
   14TCM    cl1  234   3.340   3.760   4.413
   14TCM    cl2  235   3.392   3.928   4.646
   14TCM     h1  236   3.332   3.696   4.644
   14TCM    cl3  237   3.565   3.698   4.589
   15TCM     c1  238   0.422   3.960   3.433
   15TCM    cl1  239   0.262   3.879   3.439
   15TCM    cl2  240   0.547   3.841   3.384
   15TCM     h1  241   0.419   4.043   3.362
   15TCM    cl3  242   0.461   4.023   3.597
   16TCM     c1  243   3.718   1.153   2.646
   16TCM    cl1  244   3.848   1.247   2.727
   16TCM    cl2  245   3.789   1.058   2.512
   16TCM     h1  246   3.670   1.087   2.718
   16TCM    cl3  247   3.596   1.266   2.577
   17TCM     c1  248   4.863   2.826   4.341
   17TCM    cl1  249   4.749   2.689   4.319
   17TCM    cl2  250   5.019   2.764   4.404
   17TCM     h1  251   4.879   2.876   4.245
   17TCM    cl3  252   4.794   2.942   4.459
   18TCM     c1  253   0.408   2.566   1.348
   18TCM    cl1  254   0.260   2.641   1.414
   18TCM    cl2  255   0.386   2.534   1.173
   18TCM     h1  256   0.493   2.633   1.363
   18TCM    cl3  257   0.440   2.411   1.433
   19TCM     c1  258   1.266   1.748   2.140
   19TCM    cl1  259   1.094   1.727   2.184
   19TCM    cl2  260   1.294   1.671   1.980
   19TCM     h1  261   1.290   1.854   2.134
   19TCM    cl3  262   1.369   1.669   2.264
   20TCM     c1  263   4.321   4.176   0.514
   20TCM    cl1  264   4.447   4.290   0.574
   20TCM    cl2  265   4.398   4.020   0.472
   20TCM     h1  266   4.246   4.161   0.591
   20TCM    cl3  267   4.243   4.245   0.368
   21TCM     c1  268   2.571   4.876   3.929
   21TCM    cl1  269   2.560   4.710   3.996
   21TCM    cl2  270   2.524   4.993   4.056
   21TCM     h1  271   2.673   4.895   3.897
   21TCM    cl3  272   2.459   4.893   3.790
   22TCM     c1  273   2.671   1.861   2.752
   22TCM    cl1  274   2.776   1.718   2.724
   22TCM    cl2  275   2.505   1.805   2.791
   22TCM     h1  276   2.711   1.920   2.834
   22TCM    cl3  277   2.668   1.959   2.602
   23TCM     c1  278   0.774   2.796   4.897
   23TCM    cl1  279   0.899   2.902   4.823
   23TCM    cl2  280   0.736   2.663   4.783
   23TCM     h1  281   0.811   2.755   4.991
   23TCM    cl3  282   0.626   2.892   4.926
   24TCM     c1  283   4.324   3.293   2.093
   24TCM    cl1  284   4.314   3.471   2.069
   24TCM    cl2  285   4.162   3.228   2.136
   24TCM     h1  286   4.360   3.246   2.001
   24TCM    cl3  287   4.439   3.258   2.227
   25TCM     c1  288   0.201   3.637   4.634
   25TCM    cl1  289   0.062   3.530   4.594
   25TCM    cl2  290   0.144   3.806   4.652
   25TCM     h1  291   0.248   3.604   4.727
   25TCM    cl3  292   0.320   3.628   4.500
   26TCM     c1  293   2.205   1.117   3.210
   26TCM    cl1  294   2.302   1.216   3.097
   26TCM    cl2  295   2.243   0.943   3.185
   26TCM     h1  296   2.229   1.145   3.313
   26TCM    cl3  297   2.031   1.147   3.179
   27TCM     c1  298   1.066   1.869   2.546
   27TCM    cl1  299   1.099   1.694   2.561
   27TCM    cl2  300   0.912   1.893   2.457
   27TCM     h1  301   1.058   1.914   2.646
   27TCM    cl3  302   1.200   1.947   2.456
   28TCM     c1  303   3.210   4.360   4.630
   28TCM    cl1  304   3.184   4.231   4.508
   28TCM    cl2  305   3.320   4.300   4.758
   28TCM     h1  306   3.254   4.448   4.582
   28TCM    cl3  307   3.052   4.404   4.704
   29TCM     c1  308   2.638   2.285   1.938
   29TCM    cl1  309   2.591   2.180   1.800
   29TCM    cl2  310   2.491   2.362   2.006
   29TCM     h1  311   2.686   2.225   2.015
   29TCM    cl3  312   2.751   2.412   1.880
   30TCM     c1  313   2.700   2.038   4.933
   30TCM    cl1  314   2.738   1.908   5.051
   30TCM    cl2  315   2.776   2.192   4.986
   30TCM     h1  316   2.739   2.011   4.834
   30TCM    cl3  317   2.522   2.059   4.924
   31TCM     c1  318   4.964   4.920   1.208
   31TCM    cl1  319   4.882   4.760   1.206
   31TCM    cl2  320   4.960   4.987   1.374
   31TCM     h1  321   5.068   4.908   1.176
   31TCM    cl3  322   4.879   5.031   1.097
   32TCM     c1  323   3.018   0.546   1.108
   32TCM    cl1  324   2.847   0.497   1.083
   32TCM    cl2  325   3.038   0.616   1.272
   32TCM     h1  326   3.083   0.458   1.099
   32TCM    cl3  327   3.064   0.668   0.986
   33TCM     c1  328   3.623   3.114   1.833
   33TCM    cl1  329   3.788   3.185   1.849
   33TCM    cl2  330   3.625   2.986   1.708
   33TCM     h1  331   3.593   3.072   1.929
   33TCM    cl3  332   3.508   3.243   1.785
   34TCM     c1  333   1.118   0.761   3.530
   34TCM    cl1  334   1.012   0.787   3.387
   34TCM    cl2  335   1.095   0.894   3.648
   34TCM     h1  336   1.091   0.666   3.577
   34TCM    cl3  337   1.290   0.755   3.478
   35TCM     c1  338   0.739   0.161   3.882
   35TCM    cl1  339   0.725   0.219   4.052
   35TCM    cl2  340   0.792  -0.011   3.883
   35TCM     h1  341   0.642   0.169   3.832
   35TCM    cl3  342   0.861   0.259   3.797
   36TCM     c1  343   2.699   3.442   3.302
   36TCM    cl1  344   2.828   3.330   3.359
   36TCM    cl2  345   2.774   3.589   3.231
   36TCM     h1  346   2.637   3.393   3.227
   36TCM    cl3  347   2.598   3.492   3.442
   37TCM     c1  348   0.311   1.048   2.573
   37TCM    cl1  349   0.186   1.114   2.683
   37TCM    cl2  350   0.249   0.900   2.492
   37TCM     h1  351   0.338   1.123   2.498
   37TCM    cl3  352   0.456   1.005   2.670
   38TCM     c1  353   4.856   1.861   2.051
   38TCM    cl1  354   4.990   1.833   2.166
   38TCM    cl2  355   4.874   2.024   1.978
   38TCM     h1  356   4.858   1.785   1.972
   38TCM    cl3  357   4.699   1.852   2.137
   39TCM     c1  358   1.306   3.347   2.153
   39TCM    cl1  359   1.356   3.175   2.147
   39TCM    cl2  360   1.259   3.401   1.989
   39TCM     h1  361   1.221   3.358   2.221
   39TCM    cl3  362   1.443   3.447   2.212
   40TCM     c1  363   3.556   1.337   1.996
   40TCM    cl1  364   3.450   1.204   1.939
   40TCM    cl2  365   3.568   1.331   2.175
   40TCM     h1  366   3.656   1.326   1.952
   40TCM    cl3  367   3.486   1.494   1.945
   41TCM     c1  368   0.802   1.881   2.043
   41TCM    cl1  369   0.833   2.043   2.113
   41TCM    cl2  370   0.707   1.900   1.892
   41TCM     h1  371   0.897   1.832   2.020
   41TCM    cl3  372   0.712   1.782   2.162
   42TCM     c1  373   2.137   3.515   1.705
   42TCM    cl1  374   2.208   3.424   1.568
   42TCM    cl2  375   1.981   3.440   1.749
   42TCM     h1  376   2.206   3.513   1.791
   42TCM    cl3  377   2.110   3.685   1.654
   43TCM     c1  378   0.646   4.430   1.032
   43TCM    cl1  379   0.555   4.396   0.881
   43TCM    cl2  380   0.809   4.356   1.020
   43TCM     h1  381   0.655   4.538   1.046
   43TCM    cl3  382   0.558   4.359   1.171
   44TCM     c1  383   0.319   1.132   4.825
   44TCM    cl1  384   0.146   1.122   4.776
   44TCM    cl2  385   0.333   1.228   4.975
   44TCM     h1  386   0.358   1.031   4.841
   44TCM    cl3  387   0.413   1.212   4.695
   45TCM     c1  388   1.289   3.457   4.781
   45TCM    cl1  389   1.296   3.510   4.610
   45TCM    cl2  390   1.436   3.511   4.868
   45TCM     h1  391   1.201   3.501   4.829
   45TCM    cl3  392   1.277   3.278   4.788
   46TCM     c1  393   0.195   0.454   4.482
   46TCM    cl1  394   0.368   0.477   4.523
   46TCM    cl2  395   0.152   0.280   4.493
   46TCM     h1  396   0.133   0.512   4.551
   46TCM    cl3  397   0.166   0.511   4.314
   47TCM     c1  398   0.821   4.136   2.068
   47TCM    cl1  399   0.752   4.287   2.137
   47TCM    cl2  400   0.718   4.080   1.932
   47TCM     h1  401   0.922   4.156   2.031
   47TCM    cl3  402   0.827   4.009   2.194
   48TCM     c1  403   3.625   4.047   4.958
   48TCM    cl1  404   3.725   3.960   4.837
   48TCM    cl2  405   3.721   4.071   5.107
   48TCM     h1  406   3.595   4.145   4.917
   48TCM    cl3  407   3.480   3.950   4.996
   49TCM     c1  408   1.405   1.450   1.149
   49TCM    cl1  409   1.415   1.403   1.322
   49TCM    cl2  410   1.485   1.610   1.128
   49TCM     h1  411   1.456   1.376   1.088
   49TCM    cl3  412   1.233   1.463   1.100
   50TCM     c1  413   3.168   0.473   2.305
   50TCM    cl1  414   3.041   0.534   2.195
   50TCM    cl2  415   3.126   0.306   2.356
   50TCM     h1  416   3.264   0.472   2.253
   50TCM    cl3  417   3.179   0.579   2.449
   51TCM     c1  418   4.989   0.326   1.840
   51TCM    cl1  419   4.894   0.382   1.983
   51TCM    cl2  420   5.153   0.398   1.847
   51TCM     h1  421   4.996   0.217   1.842
   51TCM    cl3  422   4.906   0.379   1.690
   52TCM     c1  423   3.394   2.267   1.284
   52TCM    cl1  424   3.565   2.239   1.329
   52TCM    cl2  425   3.385   2.412   1.178
   52TCM     h1  426   3.355   2.180   1.231
   52TCM    cl3  427   3.298   2.297   1.432
   53TCM     c1  428   3.945   4.902   0.565
   53TCM    cl1  429   3.938   4.758   0.460
   53TCM    cl2  430   3.843   5.032   0.495
   53TCM     h1  431   3.908   4.877   0.665
   53TCM    cl3  432   4.115   4.959   0.577
   54TCM     c1  433   4.746   1.592   3.198
   54TCM    cl1  434   4.611   1.709   3.174
   54TCM    cl2  435   4.702   1.436   3.122
   54TCM     h1  436   4.837   1.631   3.151
   54TCM    cl3  437   4.774   1.567   3.373
   55TCM     c1  438   1.981   3.248   2.433
   55TCM    cl1  439   1.985   3.115   2.313
   55TCM    cl2  440   2.130   3.345   2.417
   55TCM     h1  441   1.893   3.312   2.416
   55TCM    cl3  442   1.973   3.178   2.598
   56TCM     c1  443   0.325   4.994   4.696
   56TCM    cl1  444   0.204   5.008   4.827
   56TCM    cl2  445   0.415   4.840   4.713
   56TCM     h1  446   0.275   4.996   4.599
   56TCM    cl3  447   0.439   5.132   4.707
   57TCM     c1  448   4.399   0.347   4.362
   57TCM    cl1  449   4.423   0.516   4.305
   57TCM    cl2  450   4.250   0.340   4.462
   57TCM     h1  451   4.389   0.281   4.276
   57TCM    cl3  452   4.541   0.298   4.460
   58TCM     c1  453   3.459   4.223   1.352
   58TCM    cl1  454   3.581   4.348   1.393
   58TCM    cl2  455   3.319   4.301   1.270
   58TCM     h1  456   3.504   4.149   1.285
   58TCM    cl3  457   3.402   4.143   1.502
   59TCM     c1  458   4.516   4.428   4.708
   59TCM    cl1  459   4.441   4.347   4.850
   59TCM    cl2  460   4.669   4.344   4.666
   59TCM     h1  461   4.447   4.424   4.623
   59TCM    cl3  462   4.551   4.600   4.749
   60TCM     c1  463   3.813   3.988   1.560
   60TCM    cl1  464   3.694   3.952   1.430
   60TCM    cl2  465   3.810   3.856   1.682
   60TCM     h1  466   3.913   3.995   1.516
   60TCM    cl3  467   3.770   4.142   1.640
   61TCM     c1  468   3.580   3.807   3.212
   61TCM    cl1  469   3.573   3.676   3.335
   61TCM    cl2  470   3.737   3.892   3.226
   61TCM     h1  471   3.570   3.764   3.112
   61TCM    cl3  472   3.446   3.923   3.241
   62TCM     c1  473   0.468   0.676   3.056
   62TCM    cl1  474   0.457   0.854   3.039
   62TCM    cl2  475   0.389   0.624   3.208
   62TCM     h1  476   0.418   0.628   2.971
   62TCM    cl3  477   0.641   0.626   3.059
   63TCM     c1  478   2.957   2.298   2.819
   63TCM    cl1  479   3.015   2.336   2.984
   63TCM    cl2  480   2.919   2.450   2.732
   63TCM     h1  481   3.033   2.243   2.764
   63TCM    cl3  482   2.807   2.199   2.830
   64TCM     c1  483   3.514   2.074   2.317
   64TCM    cl1  484   3.541   2.013   2.151
   64TCM    cl2  485   3.356   2.014   2.376
   64TCM     h1  486   3.594   2.039   2.383
   64TCM    cl3  487   3.512   2.254   2.316
   65TCM     c1  488   4.976   0.475   2.348
   65TCM    cl1  489   4.964   0.307   2.412
   65TCM    cl2  490   5.123   0.488   2.245
   65TCM     h1  491   4.887   0.497   2.288
   65TCM    cl3  492   4.989   0.591   2.483
   66TCM     c1  493   0.133   0.259   2.933
   66TCM    cl1  494   0.217   0.101   2.933
   66TCM    cl2  495   0.035   0.276   2.783
   66TCM     h1  496   0.067   0.266   3.020
   66TCM    cl3  497   0.255   0.391   2.940
   67TCM     c1  498   4.957   3.460   1.042
   67TCM    cl1  499   4.815   3.457   0.932
   67TCM    cl2  500   4.920   3.568   1.180
   67TCM     h1  501   4.978   3.359   1.078
   67TCM    cl3  502   5.100   3.523   0.954
   68TCM     c1  503   1.314   3.350   0.692
   68TCM    cl1  504   1.386   3.446   0.826
   68TCM    cl2  505   1.445   3.273   0.597
   68TCM     h1  506   1.248   3.273   0.733
   68TCM    cl3  507   1.219   3.458   0.584
   69TCM     c1  508   2.819   4.253   4.019
   69TCM    cl1  509   2.662   4.330   4.057
   69TCM    cl2  510   2.872   4.305   3.856
   69TCM     h1  511   2.893   4.284   4.093
   69TCM    cl3  512   2.802   4.074   4.024
   70TCM     c1  513   4.613   1.503   0.391
   70TCM    cl1  514   4.605   1.339   0.463
   70TCM    cl2  515   4.476   1.601   0.451
   70TCM     h1  516   4.707   1.551   0.420
   70TCM    cl3  517   4.603   1.490   0.213
   71TCM     c1  518   2.887   4.555   4.334
   71TCM    cl1  519   2.870   4.379   4.358
   71TCM    cl2  520   2.879   4.593   4.159
   71TCM     h1  521   2.807   4.608   4.387
   71TCM    cl3  522   3.046   4.607   4.399
   72TCM     c1  523   3.626   3.888   2.001
   72TCM    cl1  524   3.530   4.032   1.953
   72TCM    cl2  525   3.546   3.806   2.139
   72TCM     h1  526   3.634   3.819   1.916
   72TCM    cl3  527   3.791   3.940   2.051
   73TCM     c1  528   0.877   0.201   3.391
   73TCM    cl1  529   0.756   0.110   3.485
   73TCM    cl2  530   0.806   0.356   3.334
   73TCM     h1  531   0.964   0.223   3.454
   73TCM    cl3  532   0.930   0.103   3.250
   74TCM     c1  533   0.679   1.402   2.422
   74TCM    cl1  534   0.565   1.467   2.300
   74TCM    cl2  535   0.588   1.341   2.564
   74TCM     h1  536   0.737   1.320   2.378
   74TCM    cl3  537   0.789   1.533   2.475
   75TCM     c1  538   0.962   0.601   2.131
   75TCM    cl1  539   0.799   0.578   2.202
   75TCM    cl2  540   0.948   0.688   1.975
   75TCM     h1  541   1.024   0.658   2.200
   75TCM    cl3  542   1.035   0.440   2.102
   76TCM     c1  543   2.923   0.878   3.819
   76TCM    cl1  544   2.800   0.957   3.922
   76TCM    cl2  545   2.898   0.927   3.648
   76TCM     h1  546   3.022   0.908   3.852
   76TCM    cl3  547   2.906   0.699   3.834
   77TCM     c1  548   4.524   4.833   0.620
   77TCM    cl1  549   4.640   4.970   0.626
   77TCM    cl2  550   4.464   4.799   0.785
   77TCM     h1  551   4.440   4.860   0.555
   77TCM    cl3  552   4.606   4.686   0.554
   78TCM     c1  553   0.480   4.085   0.218
   78TCM    cl1  554   0.326   4.097   0.309
   78TCM    cl2  555   0.461   4.164   0.058
   78TCM     h1  556   0.560   4.134   0.274
   78TCM    cl3  557   0.522   3.912   0.193
   79TCM     c1  558   2.202   3.216   2.028
   79TCM    cl1  559   2.189   3.394   2.043
   79TCM    cl2  560   2.352   3.163   2.112
   79TCM     h1  561   2.115   3.168   2.074
   79TCM    cl3  562   2.211   3.172   1.855
   80TCM     c1  563   0.343   2.851   1.019
   80TCM    cl1  564   0.419   2.894   1.176
   80TCM    cl2  565   0.385   2.976   0.898
   80TCM     h1  566   0.380   2.754   0.986
   80TCM    cl3  567   0.165   2.844   1.039
   81TCM     c1  568   3.468   3.274   0.987
   81TCM    cl1  569   3.384   3.196   1.124
   81TCM    cl2  570   3.462   3.452   1.007
   81TCM     h1  571   3.572   3.241   0.984
   81TCM    cl3  572   3.387   3.229   0.833
   82TCM     c1  573   2.984   2.927   0.068
   82TCM    cl1  574   2.990   2.782   0.173
   82TCM    cl2  575   3.045   3.069   0.159
   82TCM     h1  576   3.046   2.911  -0.020
   82TCM    cl3  577   2.814   2.956   0.017
   83TCM     c1  578   1.050   1.241   1.859
   83TCM    cl1  579   1.210   1.299   1.802
   83TCM    cl2  580   1.069   1.087   1.950
   83TCM     h1  581   1.005   1.316   1.924
   83TCM    cl3  582   0.943   1.214   1.717
   84TCM     c1  583   1.874   2.502   4.739
   84TCM    cl1  584   1.863   2.665   4.665
   84TCM    cl2  585   1.989   2.403   4.644
   84TCM     h1  586   1.909   2.511   4.843
   84TCM    cl3  587   1.713   2.424   4.736
   85TCM     c1  588   2.146   3.912   3.868
   85TCM    cl1  589   2.237   3.865   3.721
   85TCM    cl2  590   2.214   3.826   4.010
   85TCM     h1  591   2.154   4.020   3.883
   85TCM    cl3  592   1.974   3.865   3.848
   86TCM     c1  593   0.652   0.093   5.000
   86TCM    cl1  594   0.763   0.045   4.868
   86TCM    cl2  595   0.748   0.137   5.146
   86TCM     h1  596   0.594   0.180   4.967
   86TCM    cl3  597   0.541  -0.042   5.039
   87TCM     c1  598   0.911   0.423   2.807
   87TCM    cl1  599   0.969   0.591   2.825
   87TCM    cl2  600   0.741   0.424   2.749
   87TCM     h1  601   0.973   0.371   2.734
   87TCM    cl3  602   0.920   0.338   2.965
   88TCM     c1  603   4.447   2.930   3.059
   88TCM    cl1  604   4.418   2.763   3.000
   88TCM    cl2  605   4.616   2.978   3.022
   88TCM     h1  606   4.378   2.999   3.011
   88TCM    cl3  607   4.422   2.934   3.237
   89TCM     c1  608   3.207   4.601   4.980
   89TCM    cl1  609   3.289   4.655   5.130
   89TCM    cl2  610   3.299   4.660   4.838
   89TCM     h1  611   3.202   4.492   4.978
   89TCM    cl3  612   3.041   4.668   4.975
   90TCM     c1  613   1.815   4.975   3.607
   90TCM    cl1  614   1.655   5.041   3.559
   90TCM    cl2  615   1.800   4.892   3.765
   90TCM     h1  616   1.849   4.904   3.531
   90TCM    cl3  617   1.934   5.108   3.620
   91TCM     c1  618   0.832   0.687   3.870
   91TCM    cl1  619   0.869   0.566   3.997
   91TCM    cl2  620   0.665   0.748   3.896
   91TCM     h1  621   0.903   0.770   3.876
   91TCM    cl3  622   0.843   0.609   3.709
   92TCM     c1  623   1.967   0.021   2.432
   92TCM    cl1  624   1.797   0.078   2.420
   92TCM    cl2  625   2.002  -0.091   2.296
   92TCM     h1  626   2.035   0.106   2.427
   92TCM    cl3  627   1.989  -0.066   2.588
   93TCM     c1  628   1.088   1.353   2.271
   93TCM    cl1  629   1.068   1.186   2.334
   93TCM    cl2  630   0.939   1.399   2.182
   93TCM     h1  631   1.104   1.422   2.354
   93TCM    cl3  632   1.227   1.358   2.158
   94TCM     c1  633   1.195   1.467   0.168
   94TCM    cl1  634   1.272   1.618   0.110
   94TCM    cl2  635   1.285   1.406   0.311
   94TCM     h1  636   1.091   1.487   0.195
   94TCM    cl3  637   1.200   1.343   0.038
   95TCM     c1  638   4.143   2.908   2.328
   95TCM    cl1  639   4.263   3.004   2.420
   95TCM    cl2  640   4.002   2.872   2.433
   95TCM     h1  641   4.109   2.964   2.240
   95TCM    cl3  642   4.218   2.753   2.276
   96TCM     c1  643   2.931   4.626   1.160
   96TCM    cl1  644   2.801   4.740   1.113
   96TCM    cl2  645   2.859   4.474   1.223
   96TCM     h1  646   2.992   4.603   1.072
   96TCM    cl3  647   3.034   4.701   1.286
   97TCM     c1  648   4.292   2.348   2.804
   97TCM    cl1  649   4.412   2.387   2.931
   97TCM    cl2  650   4.132   2.314   2.878
   97TCM     h1  651   4.283   2.433   2.735
   97TCM    cl3  652   4.345   2.203   2.713
   98TCM     c1  653   3.910   0.506   3.509
   98TCM    cl1  654   4.002   0.445   3.651
   98TCM    cl2  655   3.998   0.465   3.358
   98TCM     h1  656   3.811   0.460   3.508
   98TCM    cl3  657   3.894   0.684   3.522
   99TCM     c1  658   3.959   0.907   3.056
   99TCM    cl1  659   3.824   1.015   3.010
   99TCM    cl2  660   3.901   0.786   3.175
   99TCM     h1  661   3.997   0.855   2.967
   99TCM    cl3  662   4.090   1.004   3.130
  100TCM     c1  663   2.023   0.085   3.147
  100TCM    cl1  664   1.949   0.226   3.064
  100TCM    cl2  665   2.076  -0.035   3.024
  100TCM     h1  666   2.110   0.119   3.204
  100TCM    cl3  667   1.904   0.009   3.257
  101TCM     c1  668   0.108   4.307   3.428
  101TCM    cl1  669   0.113   4.416   3.570
  101TCM    cl2  670   0.035   4.150   3.476
  101TCM     h1  671   0.048   4.353   3.348
  101TCM    cl3  672   0.275   4.279   3.369
  102TCM     c1  673   0.212   1.595   4.641
  102TCM    cl1  674   0.202   1.602   4.820
  102TCM    cl2  675   0.143   1.440   4.583
  102TCM     h1  676   0.157   1.678   4.598
  102TCM    cl3  677   0.385   1.605   4.592
  103TCM     c1  678   0.928   4.749   0.149
  103TCM    cl1  679   1.062   4.860   0.105
  103TCM    cl2  680   0.824   4.725   0.005
  103TCM     h1  681   0.969   4.653   0.181
  103TCM    cl3  682   0.831   4.820   0.282
  104TCM     c1  683   0.769   2.283   1.025
  104TCM    cl1  684   0.665   2.305   1.170
  104TCM    cl2  685   0.790   2.107   0.996
  104TCM     h1  686   0.723   2.330   0.938
  104TCM    cl3  687   0.929   2.358   1.057
  105TCM     c1  688   4.736   1.467   2.240
  105TCM    cl1  689   4.788   1.584   2.366
  105TCM    cl2  690   4.778   1.300   2.294
  105TCM     h1  691   4.629   1.474   2.225
  105TCM    cl3  692   4.822   1.502   2.087
  106TCM     c1  693   2.915   1.044   2.478
  106TCM    cl1  694   2.748   1.002   2.527
  106TCM    cl2  695   2.912   1.180   2.361
  106TCM     h1  696   2.973   1.073   2.566
  106TCM    cl3  697   2.992   0.902   2.400
  107TCM     c1  698   3.036   0.212   2.720
  107TCM    cl1  699   3.078   0.100   2.853
  107TCM    cl2  700   3.108   0.373   2.752
  107TCM     h1  701   3.074   0.173   2.625
  107TCM    cl3  702   2.857   0.228   2.710
  108TCM     c1  703   2.210   4.556   0.831
  108TCM    cl1  704   2.194   4.593   1.006
  108TCM    cl2  705   2.198   4.708   0.736
  108TCM     h1  706   2.306   4.509   0.813
  108TCM    cl3  707   2.079   4.444   0.780
  109TCM     c1  708   0.277   3.174   3.882
  109TCM    cl1  709   0.187   3.310   3.956
  109TCM    cl2  710   0.344   3.227   3.723
  109TCM     h1  711   0.359   3.144   3.948
  109TCM    cl3  712   0.166   3.036   3.856
  110TCM     c1  713   2.335   4.794   1.879
  110TCM    cl1  714   2.296   4.903   2.016
  110TCM    cl2  715   2.187   4.703   1.833
  110TCM     h1  716   2.369   4.852   1.793
  110TCM    cl3  717   2.463   4.678   1.928
  111TCM     c1  718   2.541   4.587   3.554
  111TCM    cl1  719   2.376   4.591   3.624
  111TCM    cl2  720   2.659   4.550   3.683
  111TCM     h1  721   2.546   4.510   3.476
  111TCM    cl3  722   2.578   4.748   3.483
  112TCM     c1  723   3.471   3.440   4.921
  112TCM    cl1  724   3.410   3.608   4.910
  112TCM    cl2  725   3.646   3.440   4.880
  112TCM     h1  726   3.457   3.402   5.022
  112TCM    cl3  727   3.383   3.335   4.804
  113TCM     c1  728   1.479   4.835   4.491
  113TCM    cl1  729   1.368   4.715   4.566
  113TCM    cl2  730   1.439   4.853   4.317
  113TCM     h1  731   1.468   4.932   4.541
  113TCM    cl3  732   1.649   4.778   4.508
  114TCM     c1  733   3.309   3.644   1.720
  114TCM    cl1  734   3.374   3.577   1.873
  114TCM    cl2  735   3.387   3.803   1.687
  114TCM     h1  736   3.330   3.575   1.637
  114TCM    cl3  737   3.132   3.667   1.736
  115TCM     c1  738   4.892   2.430   2.020
  115TCM    cl1  739   4.942   2.596   2.068
  115TCM    cl2  740   5.003   2.370   1.893
  115TCM     h1  741   4.897   2.363   2.107
  115TCM    cl3  742   4.725   2.434   1.957
  116TCM     c1  743   1.883   0.710   3.444
  116TCM    cl1  744   1.911   0.801   3.292
  116TCM    cl2  745   1.984   0.562   3.444
  116TCM     h1  746   1.910   0.773   3.529
  116TCM    cl3  747   1.710   0.666   3.455
  117TCM     c1  748   1.438   4.511   3.492
  117TCM    cl1  749   1.289   4.466   3.580
  117TCM    cl2  750   1.396   4.560   3.324
  117TCM     h1  751   1.487   4.594   3.543
  117TCM    cl3  752   1.550   4.370   3.487
  118TCM     c1  753   1.371   3.067   3.219
  118TCM    cl1  754   1.364   2.945   3.350
  118TCM    cl2  755   1.532   3.058   3.141
  118TCM     h1  756   1.293   3.047   3.145
  118TCM    cl3  757   1.348   3.231   3.288
  119TCM     c1  758   4.682   2.117   2.420
  119TCM    cl1  759   4.701   2.196   2.260
  119TCM    cl2  760   4.658   2.243   2.546
  119TCM     h1  761   4.595   2.051   2.418
  119TCM    cl3  762   4.829   2.023   2.458
  120TCM     c1  763   2.465   1.294   1.855
  120TCM    cl1  764   2.457   1.278   2.034
  120TCM    cl2  765   2.504   1.464   1.814
  120TCM     h1  766   2.543   1.228   1.816
  120TCM    cl3  767   2.306   1.249   1.785
  121TCM     c1  768   1.268   0.020   3.574
  121TCM    cl1  769   1.099   0.026   3.634
  121TCM    cl2  770   1.278   0.113   3.421
  121TCM     h1  771   1.336   0.063   3.649
  121TCM    cl3  772   1.316  -0.150   3.543
  122TCM     c1  773   4.211   3.658   2.459
  122TCM    cl1  774   4.349   3.658   2.573
  122TCM    cl2  775   4.172   3.488   2.415
  122TCM     h1  776   4.124   3.705   2.505
  122TCM    cl3  777   4.257   3.750   2.311
  123TCM     c1  778   3.943   0.952   3.844
  123TCM    cl1  779   4.076   0.851   3.779
  123TCM    cl2  780   3.963   0.971   4.021
  123TCM     h1  781   3.945   1.051   3.796
  123TCM    cl3  782   3.785   0.874   3.810
  124TCM     c1  783   3.591   1.666   2.426
  124TCM    cl1  784   3.504   1.717   2.575
  124TCM    cl2  785   3.722   1.783   2.391
  124TCM     h1  786   3.634   1.566   2.441
  124TCM    cl3  787   3.476   1.662   2.289
  125TCM     c1  788   4.637   4.001   3.296
  125TCM    cl1  789   4.729   3.903   3.415
  125TCM    cl2  790   4.641   3.919   3.136
  125TCM     h1  791   4.533   4.011   3.329
  125TCM    cl3  792   4.712   4.163   3.283
  126TCM     c1  793   0.309   1.688   0.231
  126TCM    cl1  794   0.266   1.718   0.403
  126TCM    cl2  795   0.224   1.808   0.128
  126TCM     h1  796   0.417   1.698   0.218
  126TCM    cl3  797   0.257   1.522   0.185
  127TCM     c1  798   3.347   1.567   3.435
  127TCM    cl1  799   3.178   1.607   3.477
  127TCM    cl2  800   3.385   1.624   3.269
  127TCM     h1  801   3.415   1.615   3.507
  127TCM    cl3  802   3.369   1.389   3.442
  128TCM     c1  803   1.461   2.256   2.646
  128TCM    cl1  804   1.367   2.322   2.508
  128TCM    cl2  805   1.363   2.132   2.731
  128TCM     h1  806   1.553   2.210   2.609
  128TCM    cl3  807   1.502   2.389   2.759
  129TCM     c1  808   0.437   2.631   0.140
  129TCM    cl1  809   0.566   2.705   0.239
  129TCM    cl2  810   0.331   2.532   0.246
  129TCM     h1  811   0.379   2.709   0.091
  129TCM    cl3  812   0.513   2.527   0.015
  130TCM     c1  813   0.559   4.524   4.874
  130TCM    cl1  814   0.552   4.509   5.053
  130TCM    cl2  815   0.411   4.454   4.802
  130TCM     h1  816   0.567   4.630   4.847
  130TCM    cl3  817   0.703   4.435   4.814
  131TCM     c1  818   4.759   4.370   0.203
  131TCM    cl1  819   4.759   4.379   0.024
  131TCM    cl2  820   4.902   4.277   0.258
  131TCM     h1  821   4.762   4.471   0.245
  131TCM    cl3  822   4.610   4.286   0.258
  132TCM     c1  823   0.520   1.304   0.570
  132TCM    cl1  824   0.647   1.212   0.657
  132TCM    cl2  825   0.555   1.303   0.394
  132TCM     h1  826   0.423   1.258   0.589
  132TCM    cl3  827   0.519   1.473   0.631
  133TCM     c1  828   2.284   0.121   3.508
  133TCM    cl1  829   2.209   0.259   3.422
  133TCM    cl2  830   2.461   0.147   3.520
  133TCM     h1  831   2.241   0.112   3.609
  133TCM    cl3  832   2.253  -0.031   3.417
  134TCM     c1  833   0.406   1.267   2.947
  134TCM    cl1  834   0.365   1.301   3.118
  134TCM    cl2  835   0.581   1.231   2.932
  134TCM     h1  836   0.347   1.182   2.911
  134TCM    cl3  837   0.367   1.412   2.848
  135TCM     c1  838   0.093   4.078   4.993
  135TCM    cl1  839   0.161   4.151   4.844
  135TCM    cl2  840   0.176   3.922   5.027
  135TCM     h1  841   0.107   4.146   5.077
  135TCM    cl3  842  -0.082   4.047   4.970
  136TCM     c1  843   4.016   1.059   2.067
  136TCM    cl1  844   4.177   1.139   2.067
  136TCM    cl2  845   3.889   1.182   2.036
  136TCM     h1  846   4.013   0.982   1.990
  136TCM    cl3  847   3.988   0.984   2.228
  137TCM     c1  848   1.291   0.525   1.856
  137TCM    cl1  849   1.326   0.350   1.873
  137TCM    cl2  850   1.321   0.576   1.687
  137TCM     h1  851   1.186   0.544   1.882
  137TCM    cl3  852   1.397   0.619   1.967
  138TCM     c1  853   2.116   1.597   3.196
  138TCM    cl1  854   2.223   1.677   3.075
  138TCM    cl2  855   2.027   1.724   3.286
  138TCM     h1  856   2.045   1.532   3.145
  138TCM    cl3  857   2.216   1.502   3.310
  139TCM     c1  858   2.536   3.678   3.840
  139TCM    cl1  859   2.563   3.745   4.004
  139TCM    cl2  860   2.401   3.560   3.844
  139TCM     h1  861   2.511   3.760   3.771
  139TCM    cl3  862   2.685   3.596   3.784
  140TCM     c1  863   0.565   1.261   3.581
  140TCM    cl1  864   0.612   1.303   3.413
  140TCM    cl2  865   0.415   1.350   3.625
  140TCM     h1  866   0.547   1.153   3.588
  140TCM    cl3  867   0.696   1.307   3.694
  141TCM     c1  868   0.631   4.343   1.688
  141TCM    cl1  869   0.571   4.417   1.536
  141TCM    cl2  870   0.582   4.446   1.827
  141TCM     h1  871   0.588   4.243   1.700
  141TCM    cl3  872   0.810   4.332   1.682
  142TCM     c1  873   3.455   4.082   2.479
  142TCM    cl1  874   3.592   4.102   2.365
  142TCM    cl2  875   3.403   3.910   2.478
  142TCM     h1  876   3.487   4.110   2.580
  142TCM    cl3  877   3.318   4.185   2.428
  143TCM     c1  878   0.453   2.361   3.310
  143TCM    cl1  879   0.525   2.374   3.147
  143TCM    cl2  880   0.356   2.210   3.321
  143TCM     h1  881   0.533   2.358   3.385
  143TCM    cl3  882   0.346   2.501   3.340
  144TCM     c1  883   1.755   3.651   1.553
  144TCM    cl1  884   1.679   3.765   1.438
  144TCM    cl2  885   1.671   3.493   1.546
  144TCM     h1  886   1.861   3.637   1.527
  144TCM    cl3  887   1.743   3.717   1.720
  145TCM     c1  888   1.472   1.331   2.503
  145TCM    cl1  889   1.316   1.413   2.537
  145TCM    cl2  890   1.443   1.191   2.396
  145TCM     h1  891   1.540   1.401   2.454
  145TCM    cl3  892   1.543   1.274   2.658
  146TCM     c1  893   4.005   4.967   3.770
  146TCM    cl1  894   4.063   4.818   3.688
  146TCM    cl2  895   4.126   5.098   3.748
  146TCM     h1  896   3.909   4.997   3.728
  146TCM    cl3  897   3.986   4.933   3.945
  147TCM     c1  898   0.007   4.521   4.620
  147TCM    cl1  899   0.162   4.594   4.565
  147TCM    cl2  900  -0.129   4.622   4.561
  147TCM     h1  901  -0.002   4.420   4.580
  147TCM    cl3  902   0.005   4.515   4.799
  148TCM     c1  903   0.914   1.455   0.877
  148TCM    cl1  904   0.756   1.476   0.959
  148TCM    cl2  905   0.892   1.490   0.702
  148TCM     h1  906   0.988   1.524   0.920
  148TCM    cl3  907   0.970   1.286   0.896
  149TCM     c1  908   2.626   2.624   0.108
  149TCM    cl1  909   2.538   2.712  -0.021
  149TCM    cl2  910   2.555   2.461   0.127
  149TCM     h1  911   2.732   2.615   0.081
  149TCM    cl3  912   2.612   2.715   0.263
  150TCM     c1  913   3.477   1.305   3.102
  150TCM    cl1  914   3.304   1.320   3.061
  150TCM    cl2  915   3.576   1.339   2.956
  150TCM     h1  916   3.503   1.376   3.180
  150TCM    cl3  917   3.510   1.138   3.159
  151TCM     c1  918   3.201   0.202   1.954
  151TCM    cl1  919   3.326   0.323   1.996
  151TCM    cl2  920   3.254   0.107   1.811
  151TCM     h1  921   3.185   0.134   2.039
  151TCM    cl3  922   3.047   0.286   1.916
  152TCM     c1  923   3.530   2.504   1.621
  152TCM    cl1  924   3.421   2.433   1.745
  152TCM    cl2  925   3.666   2.589   1.702
  152TCM     h1  926   3.570   2.424   1.557
  152TCM    cl3  927   3.439   2.621   1.520
  153TCM     c1  928   2.904   4.094   2.572
  153TCM    cl1  929   2.791   4.136   2.705
  153TCM    cl2  930   3.050   4.016   2.642
  153TCM     h1  931   2.855   4.025   2.503
  153TCM    cl3  932   2.952   4.243   2.483
  154TCM     c1  933   4.242   0.954   2.655
  154TCM    cl1  934   4.075   0.917   2.709
  154TCM    cl2  935   4.274   0.873   2.498
  154TCM     h1  936   4.253   1.062   2.643
  154TCM    cl3  937   4.359   0.895   2.778
  155TCM     c1  938   0.914   1.822   4.970
  155TCM    cl1  939   0.880   1.907   5.125
  155TCM    cl2  940   0.922   1.646   5.000
  155TCM     h1  941   0.834   1.844   4.898
  155TCM    cl3  942   1.071   1.879   4.904
  156TCM     c1  943   2.363   4.480   4.357
  156TCM    cl1  944   2.534   4.497   4.408
  156TCM    cl2  945   2.297   4.328   4.425
  156TCM     h1  946   2.305   4.565   4.393
  156TCM    cl3  947   2.357   4.474   4.178
  157TCM     c1  948   2.180   4.893   0.199
  157TCM    cl1  949   2.303   5.022   0.215
  157TCM    cl2  950   2.230   4.779   0.069
  157TCM     h1  951   2.169   4.839   0.294
  157TCM    cl3  952   2.023   4.966   0.153
  158TCM     c1  953   1.980   0.990   2.804
  158TCM    cl1  954   1.859   1.115   2.847
  158TCM    cl2  955   1.972   0.855   2.922
  158TCM     h1  956   1.959   0.952   2.704
  158TCM    cl3  957   2.144   1.062   2.808
  159TCM     c1  958   1.823   2.116   0.054
  159TCM    cl1  959   1.812   2.149   0.230
  159TCM    cl2  960   1.933   2.235  -0.023
  159TCM     h1  961   1.861   2.015   0.038
  159TCM    cl3  962   1.659   2.129  -0.018
  160TCM     c1  963   2.176   1.764   1.793
  160TCM    cl1  964   2.130   1.804   1.962
  160TCM    cl2  965   2.157   1.587   1.767
  160TCM     h1  966   2.110   1.817   1.724
  160TCM    cl3  967   2.346   1.811   1.762
  161TCM     c1  968   2.492   2.402   0.617
  161TCM    cl1  969   2.642   2.311   0.579
  161TCM    cl2  970   2.420   2.464   0.465
  161TCM     h1  971   2.421   2.336   0.667
  161TCM    cl3  972   2.532   2.539   0.724
  162TCM     c1  973   2.806   1.529   2.023
  162TCM    cl1  974   2.857   1.559   1.854
  162TCM    cl2  975   2.920   1.609   2.136
  162TCM     h1  976   2.705   1.570   2.038
  162TCM    cl3  977   2.804   1.353   2.054
  163TCM     c1  978   4.515   4.506   2.518
  163TCM    cl1  979   4.452   4.451   2.677
  163TCM    cl2  980   4.687   4.459   2.503
  163TCM     h1  981   4.457   4.459   2.438
  163TCM    cl3  982   4.500   4.685   2.507
  164TCM     c1  983   3.031   0.175   4.647
  164TCM    cl1  984   3.093   0.261   4.791
  164TCM    cl2  985   3.044   0.284   4.505
  164TCM     h1  986   3.090   0.084   4.630
  164TCM    cl3  987   2.859   0.130   4.673
  165TCM     c1  988   3.650   3.905   3.782
  165TCM    cl1  989   3.489   3.847   3.834
  165TCM    cl2  990   3.677   4.072   3.842
  165TCM     h1  991   3.728   3.839   3.822
  165TCM    cl3  992   3.659   3.905   3.603
  166TCM     c1  993   1.875   1.136   2.390
  166TCM    cl1  994   1.772   1.037   2.499
  166TCM    cl2  995   2.035   1.161   2.468
  166TCM     h1  996   1.888   1.085   2.295
  166TCM    cl3  997   1.798   1.296   2.363
  167TCM     c1  998   2.528   0.110   4.905
  167TCM    cl1  999   2.511  -0.068   4.917
  167TCM    cl2 1000   2.589   0.175   5.061
  167TCM     h1 1001   2.598   0.135   4.825
  167TCM    cl3 1002   2.367   0.182   4.869
  168TCM     c1 1003   2.313   2.665   2.201
  168TCM    cl1 1004   2.266   2.836   2.226
  168TCM    cl2 1005   2.185   2.582   2.108
  168TCM     h1 1006   2.408   2.660   2.146
  168TCM    cl3 1007   2.334   2.586   2.361
  169TCM     c1 1008   0.945   4.608   1.492
  169TCM    cl1 1009   0.836   4.717   1.584
  169TCM    cl2 1010   1.093   4.697   1.444
  169TCM     h1 1011   0.972   4.523   1.555
  169TCM    cl3 1012   0.859   4.550   1.346
  170TCM     c1 1013   3.785   2.292   4.439
  170TCM    cl1 1014   3.706   2.325   4.596
  170TCM    cl2 1015   3.755   2.122   4.390
  170TCM     h1 1016   3.745   2.360   4.363
  170TCM    cl3 1017   3.962   2.320   4.455
  171TCM     c1 1018   1.604   4.814   4.876
  171TCM    cl1 1019   1.428   4.801   4.908
  171TCM    cl2 1020   1.694   4.789   5.029
  171TCM     h1 1021   1.634   4.738   4.803
  171TCM    cl3 1022   1.639   4.977   4.810
  172TCM     c1 1023   3.423   3.611   0.587
  172TCM    cl1 1024   3.378   3.453   0.515
  172TCM    cl2 1025   3.569   3.591   0.689
  172TCM     h1 1026   3.444   3.683   0.507
  172TCM    cl3 1027   3.288   3.670   0.688
  173TCM     c1 1028   4.776   0.986   0.565
  173TCM    cl1 1029   4.893   1.118   0.599
  173TCM    cl2 1030   4.737   0.982   0.390
  173TCM     h1 1031   4.820   0.890   0.595
  173TCM    cl3 1032   4.626   1.014   0.660
  174TCM     c1 1033   3.873   1.630   1.927
  174TCM    cl1 1034   3.848   1.490   1.817
  174TCM    cl2 1035   4.049   1.668   1.935
  174TCM     h1 1036   3.819   1.717   1.889
  174TCM    cl3 1037   3.814   1.588   2.091
  175TCM     c1 1038   3.739   1.544   4.971
  175TCM    cl1 1039   3.687   1.410   4.865
  175TCM    cl2 1040   3.637   1.547   5.119
  175TCM     h1 1041   3.844   1.530   4.999
  175TCM    cl3 1042   3.721   1.699   4.883
  176TCM     c1 1043   3.700   3.105   4.744
  176TCM    cl1 1044   3.854   3.044   4.676
  176TCM    cl2 1045   3.703   3.088   4.923
  176TCM     h1 1046   3.687   3.211   4.717
  176TCM    cl3 1047   3.563   3.010   4.678
  177TCM     c1 1048   1.185   0.390   3.748
  177TCM    cl1 1049   1.184   0.554   3.822
  177TCM    cl2 1050   1.352   0.326   3.747
  177TCM     h1 1051   1.121   0.324   3.806
  177TCM    cl3 1052   1.125   0.401   3.580
  178TCM     c1 1053   3.414   0.133   1.439
  178TCM    cl1 1054   3.273   0.030   1.398
  178TCM    cl2 1055   3.413   0.279   1.334
  178TCM     h1 1056   3.408   0.163   1.544
  178TCM    cl3 1057   3.565   0.041   1.410
  179TCM     c1 1058   1.081   0.131   4.096
  179TCM    cl1 1059   1.112   0.307   4.099
  179TCM    cl2 1060   1.108   0.062   4.260
  179TCM     h1 1061   0.978   0.112   4.065
  179TCM    cl3 1062   1.193   0.054   3.979
  180TCM     c1 1063   3.175   0.139   3.240
  180TCM    cl1 1064   3.182   0.296   3.153
  180TCM    cl2 1065   3.083   0.158   3.392
  180TCM     h1 1066   3.126   0.066   3.176
  180TCM    cl3 1067   3.341   0.084   3.279
  181TCM     c1 1068   1.951   0.613   4.198
  181TCM    cl1 1069   1.958   0.763   4.100
  181TCM    cl2 1070   1.791   0.600   4.278
  181TCM     h1 1071   1.966   0.526   4.134
  181TCM    cl3 1072   2.079   0.618   4.323
  182TCM     c1 1073   3.047   0.433   0.193
  182TCM    cl1 1074   3.208   0.403   0.119
  182TCM    cl2 1075   3.029   0.329   0.338
  182TCM     h1 1076   3.038   0.538   0.222
  182TCM    cl3 1077   2.917   0.392   0.076
  183TCM     c1 1078   1.612   1.830   2.487
  183TCM    cl1 1079   1.488   1.785   2.609
  183TCM    cl2 1080   1.774   1.825   2.563
  183TCM     h1 1081   1.608   1.759   2.404
  183TCM    cl3 1082   1.579   1.996   2.426
  184TCM     c1 1083   4.831   3.916   4.529
  184TCM    cl1 1084   4.915   3.889   4.372
  184TCM    cl2 1085   4.654   3.931   4.500
  184TCM     h1 1086   4.850   3.832   4.596
  184TCM    cl3 1087   4.892   4.067   4.604
  185TCM     c1 1088   0.845   0.908   2.678
  185TCM    cl1 1089   0.822   1.065   2.594
  185TCM    cl2 1090   0.764   0.778   2.584
  185TCM     h1 1091   0.952   0.886   2.687
  185TCM    cl3 1092   0.772   0.916   2.842
  186TCM     c1 1093   4.401   0.681   3.592
  186TCM    cl1 1094   4.358   0.584   3.737
  186TCM    cl2 1095   4.261   0.688   3.481
  186TCM     h1 1096   4.428   0.782   3.622
  186TCM    cl3 1097   4.539   0.604   3.508
  187TCM     c1 1098   0.064   4.412   0.565
  187TCM    cl1 1099   0.097   4.432   0.741
  187TCM    cl2 1100   0.214   4.444   0.473
  187TCM     h1 1101   0.030   4.310   0.546
  187TCM    cl3 1102  -0.063   4.529   0.516
  188TCM     c1 1103   0.626   3.126   0.210
  188TCM    cl1 1104   0.648   3.268   0.318
  188TCM    cl2 1105   0.468   3.050   0.245
  188TCM     h1 1106   0.629   3.158   0.106
  188TCM    cl3 1107   0.758   3.008   0.241
  189TCM     c1 1108   1.270   2.366   4.784
  189TCM    cl1 1109   1.353   2.316   4.935
  189TCM    cl2 1110   1.279   2.232   4.664
  189TCM     h1 1111   1.165   2.388   4.805
  189TCM    cl3 1112   1.350   2.512   4.717
  190TCM     c1 1113   0.746   3.088   0.626
  190TCM    cl1 1114   0.742   3.102   0.805
  190TCM    cl2 1115   0.631   2.959   0.575
  190TCM     h1 1116   0.716   3.183   0.581
  190TCM    cl3 1117   0.912   3.047   0.573
  191TCM     c1 1118   4.027   1.347   2.342
  191TCM    cl1 1119   4.134   1.467   2.263
  191TCM    cl2 1120   3.884   1.430   2.412
  191TCM     h1 1121   3.992   1.275   2.267
  191TCM    cl3 1122   4.117   1.260   2.470
  192TCM     c1 1123   2.072   0.109   4.250
  192TCM    cl1 1124   2.043   0.043   4.086
  192TCM    cl2 1125   1.966   0.251   4.277
  192TCM     h1 1126   2.050   0.032   4.325
  192TCM    cl3 1127   2.244   0.159   4.266
  193TCM     c1 1128   0.402   4.964   2.608
  193TCM    cl1 1129   0.435   4.850   2.743
  193TCM    cl2 1130   0.484   5.120   2.643
  193TCM     h1 1131   0.441   4.922   2.515
  193TCM    cl3 1132   0.225   4.990   2.593
  194TCM     c1 1133   1.690   4.412   4.325
  194TCM    cl1 1134   1.689   4.244   4.262
  194TCM    cl2 1135   1.753   4.412   4.493
  194TCM     h1 1136   1.754   4.475   4.262
  194TCM    cl3 1137   1.522   4.476   4.324
  195TCM     c1 1138   4.104   4.326   1.271
  195TCM    cl1 1139   4.055   4.383   1.108
  195TCM    cl2 1140   4.273   4.266   1.265
  195TCM     h1 1141   4.096   4.408   1.342
  195TCM    cl3 1142   3.995   4.192   1.321
  196TCM     c1 1143   0.961   2.404   0.307
  196TCM    cl1 1144   1.128   2.400   0.243
  196TCM    cl2 1145   0.903   2.236   0.332
  196TCM     h1 1146   0.961   2.457   0.403
  196TCM    cl3 1147   0.854   2.489   0.191
  197TCM     c1 1148   1.148   0.825   4.178
  197TCM    cl1 1149   0.974   0.843   4.217
  197TCM    cl2 1150   1.176   0.876   4.008
  197TCM     h1 1151   1.207   0.887   4.245
  197TCM    cl3 1152   1.197   0.653   4.196
  198TCM     c1 1153   1.498   1.351   0.611
  198TCM    cl1 1154   1.559   1.503   0.536
  198TCM    cl2 1155   1.477   1.376   0.788
  198TCM     h1 1156   1.402   1.324   0.566
  198TCM    cl3 1157   1.617   1.220   0.583
  199TCM     c1 1158   1.154   4.345   1.157
  199TCM    cl1 1159   1.312   4.285   1.095
  199TCM    cl2 1160   1.131   4.515   1.105
  199TCM     h1 1161   1.073   4.283   1.117
  199TCM    cl3 1162   1.154   4.337   1.336
  200TCM     c1 1163   4.965   2.467   2.560
  200TCM    cl1 1164   5.021   2.308   2.621
  200TCM    cl2 1165   4.906   2.446   2.392
  200TCM     h1 1166   4.884   2.505   2.623
  200TCM    cl3 1167   5.102   2.582   2.559
  201TCM     c1 1168   0.556   2.106   0.301
  201TCM    cl1 1169   0.544   1.946   0.221
  201TCM    cl2 1170   0.401   2.142   0.384
  201TCM     h1 1171   0.638   2.105   0.373
  201TCM    cl3 1172   0.587   2.230   0.175
  202TCM     c1 1173   3.530   4.417   3.367
  202TCM    cl1 1174   3.536   4.471   3.196
  202TCM    cl2 1175   3.592   4.249   3.378
  202TCM     h1 1176   3.592   4.483   3.428
  202TCM    cl3 1177   3.360   4.424   3.425
  203TCM     c1 1178   2.180   0.805   2.353
  203TCM    cl1 1179   2.303   0.934   2.329
  203TCM    cl2 1180   2.036   0.840   2.252
  203TCM     h1 1181   2.223   0.709   2.325
  203TCM    cl3 1182   2.131   0.802   2.526
  204TCM     c1 1183   0.582   4.383   4.300
  204TCM    cl1 1184   0.489   4.466   4.430
  204TCM    cl2 1185   0.545   4.461   4.143
  204TCM     h1 1186   0.689   4.390   4.320
  204TCM    cl3 1187   0.534   4.210   4.292
  205TCM     c1 1188   2.027   4.553   3.691
  205TCM    cl1 1189   2.065   4.613   3.855
  205TCM    cl2 1190   2.042   4.687   3.572
  205TCM     h1 1191   2.096   4.472   3.664
  205TCM    cl3 1192   1.859   4.490   3.687
  206TCM     c1 1193   0.976   4.851   1.106
  206TCM    cl1 1194   0.856   4.747   1.022
  206TCM    cl2 1195   0.900   4.927   1.249
  206TCM     h1 1196   1.061   4.790   1.138
  206TCM    cl3 1197   1.031   4.979   0.993
  207TCM     c1 1198   2.572   3.020   1.124
  207TCM    cl1 1199   2.572   3.071   1.295
  207TCM    cl2 1200   2.719   2.921   1.095
  207TCM     h1 1201   2.483   2.960   1.103
  207TCM    cl3 1202   2.574   3.166   1.019
  208TCM     c1 1203   0.862   3.513   0.752
  208TCM    cl1 1204   0.823   3.449   0.589
  208TCM    cl2 1205   0.968   3.397   0.838
  208TCM     h1 1206   0.913   3.609   0.742
  208TCM    cl3 1207   0.710   3.535   0.845
  209TCM     c1 1208   3.678   2.135   1.839
  209TCM    cl1 1209   3.705   2.275   1.946
  209TCM    cl2 1210   3.792   2.003   1.882
  209TCM     h1 1211   3.575   2.099   1.850
  209TCM    cl3 1212   3.706   2.184   1.668
  210TCM     c1 1213   2.712   2.197   1.031
  210TCM    cl1 1214   2.615   2.135   1.169
  210TCM    cl2 1215   2.679   2.372   1.010
  210TCM     h1 1216   2.818   2.181   1.052
  210TCM    cl3 1217   2.666   2.109   0.882
  211TCM     c1 1218   2.693   3.386   4.220
  211TCM    cl1 1219   2.689   3.434   4.393
  211TCM    cl2 1220   2.806   3.493   4.132
  211TCM     h1 1221   2.727   3.282   4.213
  211TCM    cl3 1222   2.529   3.400   4.149
  212TCM     c1 1223   1.105   2.608   4.411
  212TCM    cl1 1224   1.046   2.663   4.571
  212TCM    cl2 1225   0.996   2.669   4.282
  212TCM     h1 1226   1.206   2.645   4.394
  212TCM    cl3 1227   1.106   2.428   4.408
  213TCM     c1 1228   1.647   2.721   3.165
  213TCM    cl1 1229   1.504   2.617   3.194
  213TCM    cl2 1230   1.672   2.738   2.988
  213TCM     h1 1231   1.631   2.819   3.210
  213TCM    cl3 1232   1.793   2.646   3.238
  214TCM     c1 1233   3.736   4.500   3.756
  214TCM    cl1 1234   3.583   4.410   3.729
  214TCM    cl2 1235   3.709   4.631   3.876
  214TCM     h1 1236   3.813   4.431   3.793
  214TCM    cl3 1237   3.790   4.572   3.601
  215TCM     c1 1238   0.297   3.249   0.675
  215TCM    cl1 1239   0.467   3.304   0.664
  215TCM    cl2 1240   0.277   3.097   0.582
  215TCM     h1 1241   0.271   3.231   0.780
  215TCM    cl3 1242   0.188   3.375   0.608
  216TCM     c1 1243   1.368   2.046   0.214
  216TCM    cl1 1244   1.459   1.904   0.274
  216TCM    cl2 1245   1.434   2.195   0.290
  216TCM     h1 1246   1.378   2.053   0.105
  216TCM    cl3 1247   1.195   2.028   0.257
  217TCM     c1 1248   0.091   1.874   2.665
  217TCM    cl1 1249   0.062   1.747   2.541
  217TCM    cl2 1250   0.197   2.001   2.597
  217TCM     h1 1251  -0.005   1.919   2.695
  217TCM    cl3 1252   0.171   1.801   2.808
  218TCM     c1 1253   3.505   0.087   4.727
  218TCM    cl1 1254   3.369   0.050   4.617
  218TCM    cl2 1255   3.537  -0.055   4.832
  218TCM     h1 1256   3.595   0.110   4.669
  218TCM    cl3 1257   3.462   0.228   4.829
  219TCM     c1 1258   1.683   2.315   2.078
  219TCM    cl1 1259   1.569   2.449   2.113
  219TCM    cl2 1260   1.840   2.385   2.024
  219TCM     h1 1261   1.698   2.255   2.168
  219TCM    cl3 1262   1.614   2.212   1.948
  220TCM     c1 1263   3.669   0.361   3.896
  220TCM    cl1 1264   3.746   0.215   3.825
  220TCM    cl2 1265   3.511   0.317   3.968
  220TCM     h1 1266   3.734   0.403   3.973
  220TCM    cl3 1267   3.644   0.482   3.766
  221TCM     c1 1268   0.237   3.682   1.326
  221TCM    cl1 1269   0.368   3.794   1.378
  221TCM    cl2 1270   0.139   3.635   1.468
  221TCM     h1 1271   0.174   3.731   1.252
  221TCM    cl3 1272   0.310   3.534   1.254
  222TCM     c1 1273   0.070   1.430   0.666
  222TCM    cl1 1274  -0.077   1.522   0.619
  222TCM    cl2 1275   0.177   1.534   0.765
  222TCM     h1 1276   0.041   1.342   0.724
  222TCM    cl3 1277   0.158   1.378   0.519
  223TCM     c1 1278   3.320   2.431   2.591
  223TCM    cl1 1279   3.290   2.582   2.497
  223TCM    cl2 1280   3.206   2.304   2.537
  223TCM     h1 1281   3.423   2.398   2.573
  223TCM    cl3 1282   3.296   2.463   2.766
  224TCM     c1 1283   0.251   4.579   2.941
  224TCM    cl1 1284   0.273   4.416   2.868
  224TCM    cl2 1285   0.195   4.561   3.111
  224TCM     h1 1286   0.346   4.632   2.940
  224TCM    cl3 1287   0.129   4.670   2.847
  225TCM     c1 1288   0.158   4.515   2.496
  225TCM    cl1 1289   0.048   4.656   2.488
  225TCM    cl2 1290   0.324   4.570   2.535
  225TCM     h1 1291   0.123   4.446   2.574
  225TCM    cl3 1292   0.159   4.431   2.337
  226TCM     c1 1293   0.223   2.312   2.294
  226TCM    cl1 1294   0.109   2.177   2.259
  226TCM    cl2 1295   0.282   2.379   2.139
  226TCM     h1 1296   0.172   2.390   2.351
  226TCM    cl3 1297   0.361   2.251   2.391
  227TCM     c1 1298   0.306   3.812   3.008
  227TCM    cl1 1299   0.299   3.686   3.135
  227TCM    cl2 1300   0.420   3.761   2.880
  227TCM     h1 1301   0.207   3.826   2.965
  227TCM    cl3 1302   0.363   3.967   3.079
  228TCM     c1 1303   2.304   0.392   3.882
  228TCM    cl1 1304   2.219   0.444   4.031
  228TCM    cl2 1305   2.227   0.470   3.740
  228TCM     h1 1306   2.409   0.420   3.888
  228TCM    cl3 1307   2.289   0.214   3.865
  229TCM     c1 1308   1.786   1.829   2.105
  229TCM    cl1 1309   1.612   1.858   2.075
  229TCM    cl2 1310   1.806   1.692   2.218
  229TCM     h1 1311   1.837   1.807   2.011
  229TCM    cl3 1312   1.857   1.977   2.177
  230TCM     c1 1313   1.013   3.095   2.324
  230TCM    cl1 1314   1.113   3.200   2.430
  230TCM    cl2 1315   0.984   3.180   2.168
  230TCM     h1 1316   1.066   3.002   2.305
  230TCM    cl3 1317   0.857   3.061   2.404
  231TCM     c1 1318   4.576   3.616   2.905
  231TCM    cl1 1319   4.659   3.741   2.806
  231TCM    cl2 1320   4.559   3.466   2.809
  231TCM     h1 1321   4.635   3.595   2.995
  231TCM    cl3 1322   4.414   3.676   2.952
  232TCM     c1 1323   4.114   0.716   4.423
  232TCM    cl1 1324   4.167   0.697   4.594
  232TCM    cl2 1325   4.041   0.878   4.401
  232TCM     h1 1326   4.200   0.704   4.357
  232TCM    cl3 1327   3.991   0.590   4.385
  233TCM     c1 1328   0.173   2.683   4.751
  233TCM    cl1 1329   0.348   2.716   4.736
  233TCM    cl2 1330   0.083   2.839   4.764
  233TCM     h1 1331   0.138   2.629   4.663
  233TCM    cl3 1332   0.143   2.585   4.898
  234TCM     c1 1333   0.722   1.778   0.535
  234TCM    cl1 1334   0.555   1.829   0.575
  234TCM    cl2 1335   0.822   1.924   0.504
  234TCM     h1 1336   0.765   1.723   0.619
  234TCM    cl3 1337   0.720   1.674   0.389
  235TCM     c1 1338   1.771   1.882   1.690
  235TCM    cl1 1339   1.596   1.908   1.716
  235TCM    cl2 1340   1.816   1.717   1.747
  235TCM     h1 1341   1.794   1.891   1.584
  235TCM    cl3 1342   1.866   2.003   1.783
  236TCM     c1 1343   2.464   4.238   3.782
  236TCM    cl1 1344   2.301   4.307   3.811
  236TCM    cl2 1345   2.487   4.210   3.606
  236TCM     h1 1346   2.540   4.307   3.818
  236TCM    cl3 1347   2.476   4.082   3.869
  237TCM     c1 1348   2.979   0.317   1.477
  237TCM    cl1 1349   2.885   0.201   1.577
  237TCM    cl2 1350   3.003   0.248   1.313
  237TCM     h1 1351   2.924   0.411   1.469
  237TCM    cl3 1352   3.138   0.346   1.553
  238TCM     c1 1353   2.229   4.556   4.768
  238TCM    cl1 1354   2.109   4.537   4.636
  238TCM    cl2 1355   2.366   4.656   4.709
  238TCM     h1 1356   2.182   4.606   4.854
  238TCM    cl3 1357   2.290   4.395   4.818
  239TCM     c1 1358   2.568   1.637   3.122
  239TCM    cl1 1359   2.531   1.687   3.290
  239TCM    cl2 1360   2.560   1.459   3.109
  239TCM     h1 1361   2.496   1.682   3.053
  239TCM    cl3 1362   2.733   1.692   3.080
  240TCM     c1 1363   0.550   1.541   4.926
  240TCM    cl1 1364   0.598   1.493   5.092
  240TCM    cl2 1365   0.657   1.460   4.807
  240TCM     h1 1366   0.446   1.511   4.908
  240TCM    cl3 1367   0.564   1.719   4.911
  241TCM     c1 1368   3.005   0.693   2.894
  241TCM    cl1 1369   3.176   0.721   2.941
  241TCM    cl2 1370   2.982   0.740   2.722
  241TCM     h1 1371   2.979   0.587   2.907
  241TCM    cl3 1372   2.897   0.794   2.997
  242TCM     c1 1373   3.420   0.602   1.520
  242TCM    cl1 1374   3.550   0.724   1.499
  242TCM    cl2 1375   3.264   0.687   1.548
  242TCM     h1 1376   3.412   0.541   1.430
  242TCM    cl3 1377   3.458   0.498   1.662
  243TCM     c1 1378   0.460   0.176   0.400
  243TCM    cl1 1379   0.537   0.261   0.538
  243TCM    cl2 1380   0.283   0.202   0.407
  243TCM     h1 1381   0.500   0.216   0.306
  243TCM    cl3 1382   0.494   0.000   0.410
  244TCM     c1 1383   0.485   3.659   3.693
  244TCM    cl1 1384   0.632   3.729   3.769
  244TCM    cl2 1385   0.377   3.596   3.821
  244TCM     h1 1386   0.433   3.735   3.635
  244TCM    cl3 1387   0.533   3.523   3.585
  245TCM     c1 1388   0.100   4.226   4.317
  245TCM    cl1 1389   0.187   4.235   4.474
  245TCM    cl2 1390   0.201   4.302   4.190
  245TCM     h1 1391   0.081   4.122   4.292
  245TCM    cl3 1392  -0.056   4.313   4.330
  246TCM     c1 1393   3.582   1.542   0.606
  246TCM    cl1 1394   3.417   1.583   0.548
  246TCM    cl2 1395   3.576   1.513   0.783
  246TCM     h1 1396   3.617   1.452   0.555
  246TCM    cl3 1397   3.692   1.679   0.571
  247TCM     c1 1398   3.185   4.147   3.590
  247TCM    cl1 1399   3.086   4.044   3.698
  247TCM    cl2 1400   3.145   4.109   3.419
  247TCM     h1 1401   3.164   4.252   3.610
  247TCM    cl3 1402   3.358   4.112   3.619
  248TCM     c1 1403   1.761   4.575   3.257
  248TCM    cl1 1404   1.878   4.450   3.312
  248TCM    cl2 1405   1.828   4.663   3.115
  248TCM     h1 1406   1.668   4.526   3.228
  248TCM    cl3 1407   1.731   4.691   3.390
  249TCM     c1 1408   2.463   0.182   2.312
  249TCM    cl1 1409   2.470   0.312   2.436
  249TCM    cl2 1410   2.431   0.254   2.151
  249TCM     h1 1411   2.558   0.129   2.310
  249TCM    cl3 1412   2.331   0.068   2.354
  250TCM     c1 1413   3.080   1.894   4.043
  250TCM    cl1 1414   3.164   1.891   4.202
  250TCM    cl2 1415   3.192   1.832   3.917
  250TCM     h1 1416   2.990   1.832   4.047
  250TCM    cl3 1417   3.035   2.064   4.005
  251TCM     c1 1418   2.949   2.322   0.375
  251TCM    cl1 1419   2.900   2.438   0.247
  251TCM    cl2 1420   3.111   2.367   0.437
  251TCM     h1 1421   2.876   2.325   0.456
  251TCM    cl3 1422   2.954   2.157   0.305
  252TCM     c1 1423   1.272   0.128   4.833
  252TCM    cl1 1424   1.262   0.069   4.664
  252TCM    cl2 1425   1.110   0.183   4.888
  252TCM     h1 1426   1.307   0.048   4.899
  252TCM    cl3 1427   1.387   0.266   4.839
  253TCM     c1 1428   0.761   1.529   1.786
  253TCM    cl1 1429   0.624   1.551   1.900
  253TCM    cl2 1430   0.914   1.578   1.867
  253TCM     h1 1431   0.767   1.424   1.756
  253TCM    cl3 1432   0.734   1.631   1.641
  254TCM     c1 1433   4.976   2.884   0.510
  254TCM    cl1 1434   5.008   2.745   0.401
  254TCM    cl2 1435   4.970   2.825   0.679
  254TCM     h1 1436   5.055   2.959   0.499
  254TCM    cl3 1437   4.818   2.958   0.468
  255TCM     c1 1438   0.313   1.542   4.018
  255TCM    cl1 1439   0.428   1.406   3.994
  255TCM    cl2 1440   0.348   1.625   4.173
  255TCM     h1 1441   0.323   1.613   3.935
  255TCM    cl3 1442   0.146   1.478   4.021
  256TCM     c1 1443   0.795   0.545   0.298
  256TCM    cl1 1444   0.638   0.475   0.248
  256TCM    cl2 1445   0.898   0.417   0.371
  256TCM     h1 1446   0.846   0.587   0.211
  256TCM    cl3 1447   0.766   0.674   0.419
  257TCM     c1 1448   3.502   4.726   4.535
  257TCM    cl1 1449   3.553   4.560   4.581
  257TCM    cl2 1450   3.386   4.716   4.399
  257TCM     h1 1451   3.454   4.774   4.621
  257TCM    cl3 1452   3.645   4.822   4.485
  258TCM     c1 1453   3.096   3.757   3.465
  258TCM    cl1 1454   2.994   3.625   3.532
  258TCM    cl2 1455   3.103   3.743   3.286
  258TCM     h1 1456   3.054   3.854   3.492
  258TCM    cl3 1457   3.262   3.743   3.531
  259TCM     c1 1458   2.685   4.191   3.077
  259TCM    cl1 1459   2.655   4.339   2.980
  259TCM    cl2 1460   2.585   4.196   3.226
  259TCM     h1 1461   2.659   4.102   3.018
  259TCM    cl3 1462   2.859   4.184   3.122
  260TCM     c1 1463   3.246   1.015   2.731
  260TCM    cl1 1464   3.260   1.097   2.572
  260TCM    cl2 1465   3.113   1.093   2.823
  260TCM     h1 1466   3.224   0.909   2.716
  260TCM    cl3 1467   3.401   1.033   2.820
  261TCM     c1 1468   4.345   1.882   0.048
  261TCM    cl1 1469   4.330   1.855   0.224
  261TCM    cl2 1470   4.185   1.855  -0.030
  261TCM     h1 1471   4.379   1.984   0.028
  261TCM    cl3 1472   4.464   1.765  -0.019
  262TCM     c1 1473   2.977   1.898   0.698
  262TCM    cl1 1474   2.949   2.069   0.649
  262TCM    cl2 1475   2.957   1.884   0.876
  262TCM     h1 1476   2.905   1.834   0.647
  262TCM    cl3 1477   3.143   1.850   0.652
  263TCM     c1 1478   4.569   4.543   1.017
  263TCM    cl1 1479   4.587   4.462   0.859
  263TCM    cl2 1480   4.650   4.445   1.144
  263TCM     h1 1481   4.615   4.643   1.013
  263TCM    cl3 1482   4.395   4.558   1.056
  264TCM     c1 1483   4.376   0.531   3.147
  264TCM    cl1 1484   4.302   0.370   3.125
  264TCM    cl2 1485   4.254   0.657   3.110
  264TCM     h1 1486   4.411   0.542   3.250
  264TCM    cl3 1487   4.515   0.548   3.034
  265TCM     c1 1488   3.438   1.939   0.429
  265TCM    cl1 1489   3.581   2.034   0.478
  265TCM    cl2 1490   3.479   1.840   0.285
  265TCM     h1 1491   3.407   1.873   0.511
  265TCM    cl3 1492   3.304   2.050   0.387
  266TCM     c1 1493   1.674   0.041   2.766
  266TCM    cl1 1494   1.713  -0.032   2.925
  266TCM    cl2 1495   1.722   0.214   2.766
  266TCM     h1 1496   1.728  -0.012   2.688
  266TCM    cl3 1497   1.498   0.029   2.737
  267TCM     c1 1498   1.071   4.408   4.913
  267TCM    cl1 1499   1.165   4.561   4.907
  267TCM    cl2 1500   0.976   4.405   5.065
  267TCM     h1 1501   1.004   4.402   4.827
  267TCM    cl3 1502   1.186   4.270   4.912
  268TCM     c1 1503   4.878   0.002   4.434
  268TCM    cl1 1504   4.854  -0.093   4.284
  268TCM    cl2 1505   5.024  -0.058   4.518
  268TCM     h1 1506   4.890   0.108   4.410
  268TCM    cl3 1507   4.736  -0.020   4.542
  269TCM     c1 1508   4.183   4.480   0.096
  269TCM    cl1 1509   4.052   4.523   0.210
  269TCM    cl2 1510   4.341   4.537   0.162
  269TCM     h1 1511   4.186   4.372   0.082
  269TCM    cl3 1512   4.151   4.560  -0.062
  270TCM     c1 1513   0.313   2.264   3.704
  270TCM    cl1 1514   0.470   2.343   3.667
  270TCM    cl2 1515   0.268   2.300   3.874
  270TCM     h1 1516   0.236   2.301   3.637
  270TCM    cl3 1517   0.330   2.086   3.682
  271TCM     c1 1518   3.714   1.008   1.659
  271TCM    cl1 1519   3.827   0.975   1.524
  271TCM    cl2 1520   3.702   1.185   1.683
  271TCM     h1 1521   3.615   0.967   1.635
  271TCM    cl3 1522   3.776   0.931   1.808
  272TCM     c1 1523   1.341   4.640   0.219
  272TCM    cl1 1524   1.449   4.736   0.325
  272TCM    cl2 1525   1.202   4.580   0.315
  272TCM     h1 1526   1.304   4.702   0.137
  272TCM    cl3 1527   1.431   4.500   0.152
  273TCM     c1 1528   3.343   0.764   3.788
  273TCM    cl1 1529   3.229   0.728   3.654
  273TCM    cl2 1530   3.328   0.636   3.913
  273TCM     h1 1531   3.445   0.768   3.750
  273TCM    cl3 1532   3.300   0.923   3.860
  274TCM     c1 1533   4.281   3.314   3.204
  274TCM    cl1 1534   4.441   3.302   3.122
  274TCM    cl2 1535   4.170   3.190   3.135
  274TCM     h1 1536   4.293   3.297   3.311
  274TCM    cl3 1537   4.211   3.477   3.175
  275TCM     c1 1538   1.221   0.605   0.463
  275TCM    cl1 1539   1.102   0.659   0.585
  275TCM    cl2 1540   1.282   0.442   0.505
  275TCM     h1 1541   1.173   0.602   0.364
  275TCM    cl3 1542   1.359   0.720   0.458
  276TCM     c1 1543   1.027   1.843   0.997
  276TCM    cl1 1544   0.953   1.739   1.123
  276TCM    cl2 1545   0.940   1.818   0.842
  276TCM     h1 1546   1.019   1.948   1.026
  276TCM    cl3 1547   1.199   1.800   0.976
  277TCM     c1 1548   3.174   3.012   2.123
  277TCM    cl1 1549   3.276   3.027   1.976
  277TCM    cl2 1550   3.192   3.160   2.223
  277TCM     h1 1551   3.069   3.000   2.093
  277TCM    cl3 1552   3.226   2.869   2.217
  278TCM     c1 1553   2.950   3.340   2.532
  278TCM    cl1 1554   2.921   3.400   2.365
  278TCM    cl2 1555   2.793   3.298   2.608
  278TCM     h1 1556   3.013   3.251   2.528
  278TCM    cl3 1557   3.031   3.468   2.628
  279TCM     c1 1558   1.081   0.967   0.169
  279TCM    cl1 1559   1.044   0.798   0.218
  279TCM    cl2 1560   1.099   0.974  -0.009
  279TCM     h1 1561   0.999   1.032   0.200
  279TCM    cl3 1562   1.232   1.021   0.248
  280TCM     c1 1563   2.957   0.066   0.751
  280TCM    cl1 1564   3.045   0.128   0.895
  280TCM    cl2 1565   2.912  -0.105   0.778
  280TCM     h1 1566   2.867   0.126   0.736
  280TCM    cl3 1567   3.062   0.079   0.607
  281TCM     c1 1568   1.783   3.264   0.811
  281TCM    cl1 1569   1.816   3.407   0.914
  281TCM    cl2 1570   1.652   3.166   0.885
  281TCM     h1 1571   1.753   3.296   0.711
  281TCM    cl3 1572   1.932   3.164   0.799
  282TCM     c1 1573   2.826   3.540   1.960
  282TCM    cl1 1574   2.961   3.614   2.053
  282TCM    cl2 1575   2.702   3.481   2.076
  282TCM     h1 1576   2.781   3.614   1.893
  282TCM    cl3 1577   2.889   3.403   1.864
  283TCM     c1 1578   4.466   0.121   4.030
  283TCM    cl1 1579   4.579   0.080   4.163
  283TCM    cl2 1580   4.475   0.297   3.998
  283TCM     h1 1581   4.494   0.066   3.940
  283TCM    cl3 1582   4.299   0.077   4.080
  284TCM     c1 1583   4.763   2.664   4.715
  284TCM    cl1 1584   4.855   2.533   4.634
  284TCM    cl2 1585   4.780   2.647   4.893
  284TCM     h1 1586   4.803   2.761   4.683
  284TCM    cl3 1587   4.590   2.652   4.670
  285TCM     c1 1588   0.786   4.643   2.045
  285TCM    cl1 1589   0.721   4.794   1.972
  285TCM    cl2 1590   0.836   4.675   2.214
  285TCM     h1 1591   0.708   4.566   2.045
  285TCM    cl3 1592   0.927   4.586   1.950
  286TCM     c1 1593   0.031   4.952   0.359
  286TCM    cl1 1594  -0.133   4.881   0.364
  286TCM    cl2 1595   0.074   4.992   0.189
  286TCM     h1 1596   0.033   5.043   0.419
  286TCM    cl3 1597   0.150   4.834   0.425
  287TCM     c1 1598   4.422   0.184   3.520
  287TCM    cl1 1599   4.515   0.146   3.371
  287TCM    cl2 1600   4.307   0.317   3.485
  287TCM     h1 1601   4.367   0.095   3.552
  287TCM    cl3 1602   4.536   0.234   3.649
  288TCM     c1 1603   3.499   4.933   4.119
  288TCM    cl1 1604   3.416   5.044   4.233
  288TCM    cl2 1605   3.674   4.968   4.120
  288TCM     h1 1606   3.482   4.829   4.149
  288TCM    cl3 1607   3.434   4.959   3.954
  289TCM     c1 1608   1.199   1.639   1.492
  289TCM    cl1 1609   1.233   1.762   1.365
  289TCM    cl2 1610   1.066   1.532   1.438
  289TCM     h1 1611   1.289   1.580   1.511
  289TCM    cl3 1612   1.150   1.722   1.643
  290TCM     c1 1613   0.296   0.149   1.545
  290TCM    cl1 1614   0.207   0.070   1.680
  290TCM    cl2 1615   0.194   0.279   1.476
  290TCM     h1 1616   0.389   0.191   1.583
  290TCM    cl3 1617   0.331   0.027   1.418
  291TCM     c1 1618   3.142   1.486   2.776
  291TCM    cl1 1619   3.011   1.441   2.662
  291TCM    cl2 1620   3.145   1.664   2.800
  291TCM     h1 1621   3.126   1.436   2.872
  291TCM    cl3 1622   3.300   1.434   2.708
  292TCM     c1 1623   3.498   0.075   0.350
  292TCM    cl1 1624   3.487   0.086   0.172
  292TCM    cl2 1625   3.473  -0.096   0.400
  292TCM     h1 1626   3.597   0.109   0.383
  292TCM    cl3 1627   3.371   0.178   0.424
  293TCM     c1 1628   0.538   1.179   1.934
  293TCM    cl1 1629   0.547   1.224   1.760
  293TCM    cl2 1630   0.422   1.287   2.018
  293TCM     h1 1631   0.506   1.075   1.944
  293TCM    cl3 1632   0.701   1.200   2.006
  294TCM     c1 1633   2.515   3.729   1.020
  294TCM    cl1 1634   2.501   3.551   1.031
  294TCM    cl2 1635   2.533   3.799   1.184
  294TCM     h1 1636   2.603   3.756   0.960
  294TCM    cl3 1637   2.367   3.792   0.941
  295TCM     c1 1638   2.284   2.422   4.208
  295TCM    cl1 1639   2.276   2.354   4.042
  295TCM    cl2 1640   2.447   2.393   4.277
  295TCM     h1 1641   2.264   2.530   4.205
  295TCM    cl3 1642   2.161   2.342   4.312
  296TCM     c1 1643   0.446   2.160   0.787
  296TCM    cl1 1644   0.600   2.158   0.695
  296TCM    cl2 1645   0.444   2.305   0.893
  296TCM     h1 1646   0.362   2.165   0.717
  296TCM    cl3 1647   0.433   2.013   0.888
  297TCM     c1 1648   2.539   0.110   1.667
  297TCM    cl1 1649   2.637  -0.019   1.744
  297TCM    cl2 1650   2.405   0.156   1.776
  297TCM     h1 1651   2.602   0.197   1.646
  297TCM    cl3 1652   2.472   0.047   1.513
  298TCM     c1 1653   2.289   3.477   0.005
  298TCM    cl1 1654   2.436   3.493  -0.097
  298TCM    cl2 1655   2.188   3.343  -0.058
  298TCM     h1 1656   2.318   3.456   0.108
  298TCM    cl3 1657   2.195   3.630  -0.002
  299TCM     c1 1658   0.246   3.213   4.787
  299TCM    cl1 1659   0.339   3.082   4.866
  299TCM    cl2 1660   0.350   3.295   4.666
  299TCM     h1 1661   0.158   3.172   4.738
  299TCM    cl3 1662   0.197   3.332   4.912
  300TCM     c1 1663   3.715   1.755   1.538
  300TCM    cl1 1664   3.610   1.746   1.683
  300TCM    cl2 1665   3.885   1.778   1.590
  300TCM     h1 1666   3.706   1.662   1.481
  300TCM    cl3 1667   3.666   1.893   1.435
  301TCM     c1 1668   2.118   2.809   2.697
  301TCM    cl1 1669   2.061   2.829   2.528
  301TCM    cl2 1670   2.182   2.644   2.720
  301TCM     h1 1671   2.198   2.882   2.717
  301TCM    cl3 1672   1.982   2.838   2.810
  302TCM     c1 1673   4.602   2.670   0.524
  302TCM    cl1 1674   4.728   2.544   0.502
  302TCM    cl2 1675   4.607   2.729   0.693
  302TCM     h1 1676   4.619   2.753   0.455
  302TCM    cl3 1677   4.441   2.597   0.491
  303TCM     c1 1678   0.197   4.129   1.505
  303TCM    cl1 1679   0.093   3.990   1.550
  303TCM    cl2 1680   0.224   4.129   1.328
  303TCM     h1 1681   0.147   4.222   1.535
  303TCM    cl3 1682   0.355   4.115   1.589
  304TCM     c1 1683   2.978   1.371   3.690
  304TCM    cl1 1684   3.098   1.260   3.764
  304TCM    cl2 1685   2.963   1.519   3.790
  304TCM     h1 1686   3.011   1.398   3.590
  304TCM    cl3 1687   2.819   1.288   3.681
  305TCM     c1 1688   0.937   3.584   2.308
  305TCM    cl1 1689   0.942   3.565   2.130
  305TCM    cl2 1690   1.104   3.572   2.372
  305TCM     h1 1691   0.895   3.681   2.334
  305TCM    cl3 1692   0.836   3.454   2.380
  306TCM     c1 1693   2.837   3.939   1.955
  306TCM    cl1 1694   2.816   3.875   1.788
  306TCM    cl2 1695   2.709   3.869   2.060
  306TCM     h1 1696   2.935   3.911   1.993
  306TCM    cl3 1697   2.822   4.117   1.955
  307TCM     c1 1698   1.380   2.704   2.264
  307TCM    cl1 1699   1.454   2.824   2.154
  307TCM    cl2 1700   1.225   2.769   2.328
  307TCM     h1 1701   1.360   2.612   2.208
  307TCM    cl3 1702   1.493   2.669   2.399
  308TCM     c1 1703   4.672   4.859   4.975
  308TCM    cl1 1704   4.828   4.833   4.891
  308TCM    cl2 1705   4.674   5.019   5.057
  308TCM     h1 1706   4.591   4.857   4.902
  308TCM    cl3 1707   4.646   4.731   5.098
  309TCM     c1 1708   4.198   4.812   2.696
  309TCM    cl1 1709   4.210   4.936   2.566
  309TCM    cl2 1710   4.121   4.664   2.630
  309TCM     h1 1711   4.298   4.788   2.732
  309TCM    cl3 1712   4.099   4.877   2.831
  310TCM     c1 1713   1.366   4.884   3.130
  310TCM    cl1 1714   1.301   5.033   3.054
  310TCM    cl2 1715   1.513   4.924   3.226
  310TCM     h1 1716   1.290   4.841   3.196
  310TCM    cl3 1717   1.410   4.765   3.003
  311TCM     c1 1718   3.489   4.849   3.565
  311TCM    cl1 1719   3.635   4.910   3.649
  311TCM    cl2 1720   3.406   4.726   3.666
  311TCM     h1 1721   3.420   4.932   3.545
  311TCM    cl3 1722   3.538   4.774   3.409
  312TCM     c1 1723   3.510   2.035   4.848
  312TCM    cl1 1724   3.561   2.003   4.679
  312TCM    cl2 1725   3.654   2.062   4.951
  312TCM     h1 1726   3.445   2.122   4.852
  312TCM    cl3 1727   3.421   1.891   4.909
  313TCM     c1 1728   4.431   4.000   2.681
  313TCM    cl1 1729   4.576   4.092   2.626
  313TCM    cl2 1730   4.290   4.046   2.579
  313TCM     h1 1731   4.450   3.893   2.671
  313TCM    cl3 1732   4.397   4.039   2.852
  314TCM     c1 1733   4.681   2.752   2.275
  314TCM    cl1 1734   4.779   2.768   2.424
  314TCM    cl2 1735   4.564   2.887   2.267
  314TCM     h1 1736   4.747   2.755   2.187
  314TCM    cl3 1737   4.592   2.596   2.277
  315TCM     c1 1738   1.056   2.191   0.671
  315TCM    cl1 1739   1.116   2.146   0.834
  315TCM    cl2 1740   1.191   2.263   0.577
  315TCM     h1 1741   1.019   2.103   0.619
  315TCM    cl3 1742   0.924   2.312   0.687
  316TCM     c1 1743   0.679   1.647   3.856
  316TCM    cl1 1744   0.679   1.692   4.030
  316TCM    cl2 1745   0.819   1.725   3.776
  316TCM     h1 1746   0.687   1.539   3.846
  316TCM    cl3 1747   0.527   1.705   3.780
  317TCM     c1 1748   3.975   3.460   1.083
  317TCM    cl1 1749   3.945   3.631   1.040
  317TCM    cl2 1750   3.818   3.376   1.108
  317TCM     h1 1751   4.029   3.411   1.002
  317TCM    cl3 1752   4.073   3.451   1.233
  318TCM     c1 1753   0.389   4.769   2.135
  318TCM    cl1 1754   0.461   4.610   2.175
  318TCM    cl2 1755   0.294   4.827   2.276
  318TCM     h1 1756   0.469   4.841   2.113
  318TCM    cl3 1757   0.282   4.752   1.993
  319TCM     c1 1758   1.055   2.087   1.749
  319TCM    cl1 1759   1.186   2.089   1.626
  319TCM    cl2 1760   1.029   2.253   1.811
  319TCM     h1 1761   0.963   2.050   1.703
  319TCM    cl3 1762   1.104   1.981   1.885
  320TCM     c1 1763   0.507   2.067   4.080
  320TCM    cl1 1764   0.602   2.046   3.929
  320TCM    cl2 1765   0.595   1.994   4.218
  320TCM     h1 1766   0.492   2.174   4.099
  320TCM    cl3 1767   0.348   1.986   4.062
  321TCM     c1 1768   0.863   0.591   4.868
  321TCM    cl1 1769   0.789   0.718   4.969
  321TCM    cl2 1770   0.851   0.433   4.953
  321TCM     h1 1771   0.810   0.585   4.772
  321TCM    cl3 1772   1.035   0.630   4.838
  322TCM     c1 1773   3.278   2.710   1.012
  322TCM    cl1 1774   3.126   2.721   1.106
  322TCM    cl2 1775   3.319   2.871   0.944
  322TCM     h1 1776   3.359   2.677   1.077
  322TCM    cl3 1777   3.256   2.593   0.878
  323TCM     c1 1778   3.472   4.727   2.862
  323TCM    cl1 1779   3.530   4.794   3.018
  323TCM    cl2 1780   3.371   4.850   2.778
  323TCM     h1 1781   3.557   4.701   2.799
  323TCM    cl3 1782   3.373   4.580   2.893
  324TCM     c1 1783   4.700   3.175   4.838
  324TCM    cl1 1784   4.714   2.999   4.811
  324TCM    cl2 1785   4.579   3.242   4.724
  324TCM     h1 1786   4.668   3.194   4.941
  324TCM    cl3 1787   4.860   3.252   4.810
  325TCM     c1 1788   4.427   2.729   2.594
  325TCM    cl1 1789   4.518   2.868   2.662
  325TCM    cl2 1790   4.265   2.721   2.670
  325TCM     h1 1791   4.416   2.741   2.486
  325TCM    cl3 1792   4.516   2.577   2.630
  326TCM     c1 1793   2.125   4.192   3.420
  326TCM    cl1 1794   2.238   4.058   3.380
  326TCM    cl2 1795   2.215   4.347   3.419
  326TCM     h1 1796   2.045   4.195   3.346
  326TCM    cl3 1797   2.056   4.165   3.583
  327TCM     c1 1798   3.461   1.824   0.976
  327TCM    cl1 1799   3.294   1.770   1.014
  327TCM    cl2 1800   3.502   1.965   1.079
  327TCM     h1 1801   3.531   1.743   0.994
  327TCM    cl3 1802   3.470   1.874   0.803
  328TCM     c1 1803   2.242   1.816   2.509
  328TCM    cl1 1804   2.322   1.975   2.487
  328TCM    cl2 1805   2.140   1.779   2.366
  328TCM     h1 1806   2.318   1.738   2.520
  328TCM    cl3 1807   2.140   1.822   2.655
  329TCM     c1 1808   2.785   2.414   3.254
  329TCM    cl1 1809   2.820   2.590   3.252
  329TCM    cl2 1810   2.671   2.375   3.122
  329TCM     h1 1811   2.878   2.358   3.240
  329TCM    cl3 1812   2.710   2.370   3.411
  330TCM     c1 1813   4.957   1.726   1.543
  330TCM    cl1 1814   4.903   1.807   1.392
  330TCM    cl2 1815   4.949   1.548   1.521
  330TCM     h1 1816   5.059   1.756   1.566
  330TCM    cl3 1817   4.849   1.774   1.678
  331TCM     c1 1818   1.590   0.994   3.525
  331TCM    cl1 1819   1.447   1.089   3.577
  331TCM    cl2 1820   1.699   0.968   3.665
  331TCM     h1 1821   1.556   0.897   3.486
  331TCM    cl3 1822   1.678   1.083   3.397
  332TCM     c1 1823   3.192   3.988   2.156
  332TCM    cl1 1824   3.051   3.944   2.257
  332TCM    cl2 1825   3.169   4.153   2.089
  332TCM     h1 1826   3.284   3.985   2.216
  332TCM    cl3 1827   3.206   3.872   2.019
  333TCM     c1 1828   1.978   3.390   0.278
  333TCM    cl1 1829   2.151   3.370   0.322
  333TCM    cl2 1830   1.934   3.563   0.293
  333TCM     h1 1831   1.962   3.357   0.175
  333TCM    cl3 1832   1.876   3.292   0.389
  334TCM     c1 1833   4.369   1.897   2.964
  334TCM    cl1 1834   4.514   1.902   2.857
  334TCM    cl2 1835   4.221   1.888   2.864
  334TCM     h1 1836   4.375   1.809   3.029
  334TCM    cl3 1837   4.364   2.045   3.065
  335TCM     c1 1838   2.087   3.591   1.174
  335TCM    cl1 1839   2.213   3.670   1.274
  335TCM    cl2 1840   2.025   3.709   1.053
  335TCM     h1 1841   2.130   3.505   1.122
  335TCM    cl3 1842   1.953   3.537   1.280
  336TCM     c1 1843   0.924   4.738   4.587
  336TCM    cl1 1844   1.013   4.821   4.718
  336TCM    cl2 1845   0.748   4.746   4.619
  336TCM     h1 1846   0.946   4.787   4.492
  336TCM    cl3 1847   0.975   4.566   4.580
  337TCM     c1 1848   3.444   3.056   3.424
  337TCM    cl1 1849   3.422   2.939   3.558
  337TCM    cl2 1850   3.361   2.996   3.276
  337TCM     h1 1851   3.403   3.153   3.452
  337TCM    cl3 1852   3.620   3.073   3.391
  338TCM     c1 1853   3.421   3.766   1.167
  338TCM    cl1 1854   3.588   3.780   1.104
  338TCM    cl2 1855   3.350   3.931   1.183
  338TCM     h1 1856   3.360   3.708   1.097
  338TCM    cl3 1857   3.424   3.687   1.327
  339TCM     c1 1858   2.532   1.019   3.637
  339TCM    cl1 1859   2.500   1.123   3.780
  339TCM    cl2 1860   2.402   1.042   3.516
  339TCM     h1 1861   2.629   1.046   3.593
  339TCM    cl3 1862   2.536   0.847   3.689
  340TCM     c1 1863   2.023   3.129   4.475
  340TCM    cl1 1864   1.865   3.046   4.467
  340TCM    cl2 1865   2.120   3.057   4.608
  340TCM     h1 1866   2.076   3.117   4.380
  340TCM    cl3 1867   1.996   3.303   4.509
  341TCM     c1 1868   4.048   3.729   2.944
  341TCM    cl1 1869   4.090   3.803   2.787
  341TCM    cl2 1870   3.871   3.695   2.947
  341TCM     h1 1871   4.104   3.636   2.958
  341TCM    cl3 1872   4.087   3.843   3.077
  342TCM     c1 1873   2.089   4.964   4.778
  342TCM    cl1 1874   2.137   4.968   4.605
  342TCM    cl2 1875   1.983   4.822   4.806
  342TCM     h1 1876   2.179   4.956   4.841
  342TCM    cl3 1877   1.999   5.113   4.820
  343TCM     c1 1878   3.102   1.798   4.652
  343TCM    cl1 1879   3.088   1.699   4.503
  343TCM    cl2 1880   2.938   1.834   4.715
  343TCM     h1 1881   3.159   1.742   4.727
  343TCM    cl3 1882   3.188   1.951   4.614
  344TCM     c1 1883   0.398   0.502   3.890
  344TCM    cl1 1884   0.454   0.481   4.059
  344TCM    cl2 1885   0.227   0.450   3.877
  344TCM     h1 1886   0.407   0.607   3.861
  344TCM    cl3 1887   0.500   0.402   3.781
  345TCM     c1 1888   3.308   0.772   1.973
  345TCM    cl1 1889   3.436   0.822   1.859
  345TCM    cl2 1890   3.383   0.683   2.110
  345TCM     h1 1891   3.256   0.860   2.011
  345TCM    cl3 1892   3.191   0.664   1.891
  346TCM     c1 1893   2.827   4.844   2.486
  346TCM    cl1 1894   2.974   4.946   2.473
  346TCM    cl2 1895   2.822   4.727   2.350
  346TCM     h1 1896   2.828   4.790   2.581
  346TCM    cl3 1897   2.682   4.950   2.479
  347TCM     c1 1898   2.533   4.220   2.263
  347TCM    cl1 1899   2.635   4.093   2.338
  347TCM    cl2 1900   2.474   4.163   2.104
  347TCM     h1 1901   2.447   4.242   2.328
  347TCM    cl3 1902   2.631   4.369   2.241
  348TCM     c1 1903   0.651   0.907   2.266
  348TCM    cl1 1904   0.826   0.940   2.240
  348TCM    cl2 1905   0.579   0.851   2.112
  348TCM     h1 1906   0.639   0.830   2.342
  348TCM    cl3 1907   0.570   1.058   2.318
  349TCM     c1 1908   2.279   4.288   3.020
  349TCM    cl1 1909   2.108   4.274   3.071
  349TCM    cl2 1910   2.292   4.411   2.891
  349TCM     h1 1911   2.340   4.318   3.106
  349TCM    cl3 1912   2.336   4.129   2.959
  350TCM     c1 1913   4.019   1.916   4.640
  350TCM    cl1 1914   4.123   1.974   4.505
  350TCM    cl2 1915   3.880   1.824   4.572
  350TCM     h1 1916   4.077   1.851   4.705
  350TCM    cl3 1917   3.958   2.056   4.733
  351TCM     c1 1918   0.192   0.310   0.014
  351TCM    cl1 1919   0.109   0.409   0.138
  351TCM    cl2 1920   0.366   0.297   0.055
  351TCM     h1 1921   0.148   0.210   0.011
  351TCM    cl3 1922   0.174   0.389  -0.147
  352TCM     c1 1923   3.648   3.690   0.195
  352TCM    cl1 1924   3.805   3.690   0.109
  352TCM    cl2 1925   3.661   3.789   0.344
  352TCM     h1 1926   3.570   3.732   0.130
  352TCM    cl3 1927   3.604   3.522   0.241
  353TCM     c1 1928   1.981   2.148   2.664
  353TCM    cl1 1929   1.983   2.128   2.486
  353TCM    cl2 1930   1.812   2.168   2.720
  353TCM     h1 1931   2.025   2.060   2.711
  353TCM    cl3 1932   2.077   2.293   2.710
  354TCM     c1 1933   1.923   4.038   1.533
  354TCM    cl1 1934   1.914   4.207   1.473
  354TCM    cl2 1935   2.021   4.033   1.683
  354TCM     h1 1936   1.822   4.002   1.554
  354TCM    cl3 1937   2.000   3.935   1.407
  355TCM     c1 1938   3.997   3.472   1.762
  355TCM    cl1 1939   4.117   3.341   1.786
  355TCM    cl2 1940   4.062   3.589   1.642
  355TCM     h1 1941   3.903   3.430   1.725
  355TCM    cl3 1942   3.967   3.556   1.918
  356TCM     c1 1943   2.451   4.301   0.496
  356TCM    cl1 1944   2.555   4.271   0.639
  356TCM    cl2 1945   2.555   4.329   0.353
  356TCM     h1 1946   2.387   4.215   0.478
  356TCM    cl3 1947   2.350   4.446   0.525
  357TCM     c1 1948   2.786   2.138   4.493
  357TCM    cl1 1949   2.635   2.067   4.560
  357TCM    cl2 1950   2.869   2.016   4.391
  357TCM     h1 1951   2.762   2.226   4.433
  357TCM    cl3 1952   2.893   2.186   4.629
  358TCM     c1 1953   1.588   3.040   2.421
  358TCM    cl1 1954   1.706   2.945   2.517
  358TCM    cl2 1955   1.633   3.214   2.424
  358TCM     h1 1956   1.587   3.004   2.318
  358TCM    cl3 1957   1.425   3.020   2.493
  359TCM     c1 1958   0.465   4.001   4.624
  359TCM    cl1 1959   0.447   3.925   4.785
  359TCM    cl2 1960   0.571   3.898   4.522
  359TCM     h1 1961   0.367   4.013   4.577
  359TCM    cl3 1962   0.542   4.161   4.645
  360TCM     c1 1963   0.066   2.169   1.611
  360TCM    cl1 1964  -0.109   2.130   1.608
  360TCM    cl2 1965   0.096   2.313   1.507
  360TCM     h1 1966   0.097   2.191   1.713
  360TCM    cl3 1967   0.161   2.030   1.548
  361TCM     c1 1968   4.097   0.555   3.994
  361TCM    cl1 1969   3.923   0.596   4.016
  361TCM    cl2 1970   4.130   0.396   4.068
  361TCM     h1 1971   4.120   0.552   3.887
  361TCM    cl3 1972   4.198   0.680   4.073
  362TCM     c1 1973   3.892   1.222   0.288
  362TCM    cl1 1974   3.921   1.086   0.401
  362TCM    cl2 1975   3.853   1.370   0.382
  362TCM     h1 1976   3.982   1.239   0.228
  362TCM    cl3 1977   3.754   1.182   0.180
  363TCM     c1 1978   1.961   1.403   3.586
  363TCM    cl1 1979   1.984   1.576   3.628
  363TCM    cl2 1980   1.890   1.391   3.422
  363TCM     h1 1981   2.057   1.352   3.588
  363TCM    cl3 1982   1.850   1.327   3.705
  364TCM     c1 1983   0.271   1.572   1.784
  364TCM    cl1 1984   0.114   1.614   1.861
  364TCM    cl2 1985   0.324   1.708   1.679
  364TCM     h1 1986   0.345   1.553   1.862
  364TCM    cl3 1987   0.250   1.425   1.683
  365TCM     c1 1988   1.569   0.287   3.281
  365TCM    cl1 1989   1.571   0.266   3.103
  365TCM    cl2 1990   1.457   0.421   3.324
  365TCM     h1 1991   1.536   0.195   3.328
  365TCM    cl3 1992   1.734   0.326   3.338
  366TCM     c1 1993   1.948   4.132   1.094
  366TCM    cl1 1994   2.000   4.072   0.933
  366TCM    cl2 1995   1.785   4.067   1.132
  366TCM     h1 1996   2.019   4.100   1.171
  366TCM    cl3 1997   1.942   4.311   1.090
  367TCM     c1 1998   3.238   1.533   4.155
  367TCM    cl1 1999   3.059   1.540   4.151
  367TCM    cl2 2000   3.299   1.469   3.998
  367TCM     h1 2001   3.279   1.633   4.171
  367TCM    cl3 2002   3.292   1.426   4.288
  368TCM     c1 2003   2.115   3.489   4.114
  368TCM    cl1 2004   2.161   3.323   4.165
  368TCM    cl2 2005   1.993   3.555   4.228
  368TCM     h1 2006   2.203   3.553   4.115
  368TCM    cl3 2007   2.046   3.484   3.948
  369TCM     c1 2008   2.807   0.497   4.714
  369TCM    cl1 2009   2.760   0.541   4.547
  369TCM    cl2 2010   2.668   0.419   4.797
  369TCM     h1 2011   2.891   0.428   4.711
  369TCM    cl3 2012   2.854   0.645   4.804
  370TCM     c1 2013   2.863   2.616   2.176
  370TCM    cl1 2014   2.943   2.634   2.336
  370TCM    cl2 2015   2.897   2.760   2.075
  370TCM     h1 2016   2.900   2.527   2.126
  370TCM    cl3 2017   2.686   2.601   2.201
  371TCM     c1 2018   4.725   4.057   0.646
  371TCM    cl1 2019   4.790   4.018   0.484
  371TCM    cl2 2020   4.794   4.213   0.702
  371TCM     h1 2021   4.616   4.066   0.640
  371TCM    cl3 2022   4.769   3.927   0.761
  372TCM     c1 2023   1.946   2.645   4.299
  372TCM    cl1 2024   1.794   2.740   4.303
  372TCM    cl2 2025   2.081   2.743   4.365
  372TCM     h1 2026   1.934   2.554   4.359
  372TCM    cl3 2027   1.982   2.601   4.129
  373TCM     c1 2028   2.473   3.938   4.308
  373TCM    cl1 2029   2.548   4.101   4.299
  373TCM    cl2 2030   2.328   3.945   4.413
  373TCM     h1 2031   2.444   3.905   4.208
  373TCM    cl3 2032   2.591   3.823   4.378
  374TCM     c1 2033   4.513   0.127   2.812
  374TCM    cl1 2034   4.591   0.186   2.963
  374TCM    cl2 2035   4.346   0.192   2.801
  374TCM     h1 2036   4.571   0.159   2.726
  374TCM    cl3 2037   4.505  -0.053   2.816
  375TCM     c1 2038   1.833   3.593   2.045
  375TCM    cl1 2039   1.858   3.463   2.166
  375TCM    cl2 2040   1.982   3.694   2.032
  375TCM     h1 2041   1.812   3.548   1.948
  375TCM    cl3 2042   1.695   3.696   2.095
  376TCM     c1 2043   3.397   0.551   0.985
  376TCM    cl1 2044   3.394   0.621   1.150
  376TCM    cl2 2045   3.333   0.383   0.988
  376TCM     h1 2046   3.335   0.612   0.918
  376TCM    cl3 2047   3.566   0.550   0.924
  377TCM     c1 2048   4.961   3.524   3.094
  377TCM    cl1 2049   4.975   3.644   2.961
  377TCM    cl2 2050   4.847   3.395   3.044
  377TCM     h1 2051   5.060   3.480   3.114
  377TCM    cl3 2052   4.900   3.605   3.241
  378TCM     c1 2053   2.664   2.523   4.698
  378TCM    cl1 2054   2.810   2.531   4.803
  378TCM    cl2 2055   2.558   2.389   4.753
  378TCM     h1 2056   2.609   2.617   4.704
  378TCM    cl3 2057   2.714   2.493   4.528
  379TCM     c1 2058   2.127   0.327   0.121
  379TCM    cl1 2059   2.288   0.393   0.162
  379TCM    cl2 2060   2.050   0.431  -0.003
  379TCM     h1 2061   2.139   0.226   0.081
  379TCM    cl3 2062   2.025   0.321   0.268
  380TCM     c1 2063   2.801   0.063   2.068
  380TCM    cl1 2064   2.660  -0.042   2.103
  380TCM    cl2 2065   2.952  -0.035   2.076
  380TCM     h1 2066   2.791   0.106   1.968
  380TCM    cl3 2067   2.809   0.194   2.190
  381TCM     c1 2068   1.647   3.392   4.447
  381TCM    cl1 2069   1.509   3.363   4.336
  381TCM    cl2 2070   1.623   3.296   4.597
  381TCM     h1 2071   1.740   3.361   4.399
  381TCM    cl3 2072   1.656   3.566   4.488
  382TCM     c1 2073   0.665   2.602   0.568
  382TCM    cl1 2074   0.834   2.656   0.541
  382TCM    cl2 2075   0.636   2.582   0.744
  382TCM     h1 2076   0.596   2.678   0.528
  382TCM    cl3 2077   0.638   2.446   0.485
  383TCM     c1 2078   2.751   0.041   3.261
  383TCM    cl1 2079   2.826   0.138   3.130
  383TCM    cl2 2080   2.854  -0.102   3.294
  383TCM     h1 2081   2.741   0.102   3.351
  383TCM    cl3 2082   2.589  -0.014   3.207
  384TCM     c1 2083   2.107   2.884   0.967
  384TCM    cl1 2084   2.047   2.813   0.813
  384TCM    cl2 2085   2.261   2.970   0.936
  384TCM     h1 2086   2.033   2.954   1.006
  384TCM    cl3 2087   2.134   2.752   1.086
  385TCM     c1 2088   3.055   4.981   4.154
  385TCM    cl1 2089   2.900   4.997   4.063
  385TCM    cl2 2090   3.138   4.831   4.101
  385TCM     h1 2091   3.118   5.067   4.134
  385TCM    cl3 2092   3.021   4.969   4.330
  386TCM     c1 2093   4.959   0.287   4.078
  386TCM    cl1 2094   5.068   0.158   4.136
  386TCM    cl2 2095   4.846   0.332   4.211
  386TCM     h1 2096   5.018   0.375   4.050
  386TCM    cl3 2097   4.865   0.229   3.937
  387TCM     c1 2098   2.356   2.360   3.681
  387TCM    cl1 2099   2.522   2.391   3.741
  387TCM    cl2 2100   2.365   2.273   3.525
  387TCM     h1 2101   2.301   2.300   3.754
  387TCM    cl3 2102   2.272   2.517   3.656
  388TCM     c1 2103   0.697   1.142   0.074
  388TCM    cl1 2104   0.661   1.059  -0.081
  388TCM    cl2 2105   0.849   1.237   0.056
  388TCM     h1 2106   0.615   1.209   0.100
  388TCM    cl3 2107   0.719   1.020   0.203
  389TCM     c1 2108   4.464   2.801   1.885
  389TCM    cl1 2109   4.399   2.654   1.966
  389TCM    cl2 2110   4.641   2.810   1.912
  389TCM     h1 2111   4.443   2.795   1.778
  389TCM    cl3 2112   4.385   2.946   1.955
  390TCM     c1 2113   3.096   2.960   0.492
  390TCM    cl1 2114   2.921   2.972   0.532
  390TCM    cl2 2115   3.175   2.844   0.604
  390TCM     h1 2116   3.108   2.924   0.390
  390TCM    cl3 2117   3.173   3.121   0.509
  391TCM     c1 2118   2.535   4.706   1.411
  391TCM    cl1 2119   2.427   4.677   1.551
  391TCM    cl2 2120   2.512   4.575   1.291
  391TCM     h1 2121   2.512   4.802   1.365
  391TCM    cl3 2122   2.705   4.707   1.470
  392TCM     c1 2123   2.686   3.787   4.737
  392TCM    cl1 2124   2.720   3.616   4.694
  392TCM    cl2 2125   2.758   3.823   4.897
  392TCM     h1 2126   2.729   3.853   4.661
  392TCM    cl3 2127   2.508   3.812   4.744
  393TCM     c1 2128   3.821   3.817   2.409
  393TCM    cl1 2129   3.953   3.935   2.439
  393TCM    cl2 2130   3.767   3.748   2.566
  393TCM     h1 2131   3.737   3.868   2.360
  393TCM    cl3 2132   3.880   3.685   2.304
  394TCM     c1 2133   2.411   1.292   2.383
  394TCM    cl1 2134   2.395   1.219   2.546
  394TCM    cl2 2135   2.575   1.362   2.365
  394TCM     h1 2136   2.396   1.214   2.307
  394TCM    cl3 2137   2.289   1.422   2.362
  395TCM     c1 2138   0.059   2.272   0.357
  395TCM    cl1 2139   0.038   2.105   0.293
  395TCM    cl2 2140  -0.021   2.285   0.517
  395TCM     h1 2141   0.166   2.293   0.367
  395TCM    cl3 2142  -0.015   2.389   0.243
  396TCM     c1 2143   3.967   0.445   2.961
  396TCM    cl1 2144   3.813   0.428   3.050
  396TCM    cl2 2145   3.968   0.601   2.874
  396TCM     h1 2146   4.051   0.441   3.031
  396TCM    cl3 2147   3.982   0.311   2.842
  397TCM     c1 2148   4.844   2.147   4.991
  397TCM    cl1 2149   4.967   2.026   4.945
  397TCM    cl2 2150   4.680   2.082   4.957
  397TCM     h1 2151   4.853   2.171   5.098
  397TCM    cl3 2152   4.871   2.296   4.895
  398TCM     c1 2153   3.370   0.991   0.963
  398TCM    cl1 2154   3.202   1.054   0.959
  398TCM    cl2 2155   3.486   1.126   0.945
  398TCM     h1 2156   3.388   0.941   1.059
  398TCM    cl3 2157   3.392   0.873   0.830
  399TCM     c1 2158   2.671   4.245   4.652
  399TCM    cl1 2159   2.659   4.406   4.732
  399TCM    cl2 2160   2.514   4.161   4.663
  399TCM     h1 2161   2.700   4.258   4.548
  399TCM    cl3 2162   2.796   4.148   4.738
  400TCM     c1 2163   1.202   0.087   0.462
  400TCM    cl1 2164   1.381   0.093   0.478
  400TCM    cl2 2165   1.148  -0.083   0.484
  400TCM     h1 2166   1.156   0.150   0.538
  400TCM    cl3 2167   1.155   0.145   0.299
  401TCM     c1 2168   1.462   2.983   4.472
  401TCM    cl1 2169   1.553   2.864   4.571
  401TCM    cl2 2170   1.291   2.928   4.459
  401TCM     h1 2171   1.465   3.081   4.520
  401TCM    cl3 2172   1.534   2.993   4.308
  402TCM     c1 2173   1.144   2.248   2.162
  402TCM    cl1 2174   1.062   2.248   2.322
  402TCM    cl2 2175   1.289   2.142   2.167
  402TCM     h1 2176   1.074   2.211   2.086
  402TCM    cl3 2177   1.194   2.415   2.121
  403TCM     c1 2178   0.986   1.182   0.541
  403TCM    cl1 2179   0.950   1.286   0.400
  403TCM    cl2 2180   1.160   1.196   0.583
  403TCM     h1 2181   0.926   1.214   0.627
  403TCM    cl3 2182   0.947   1.012   0.502
  404TCM     c1 2183   0.387   0.254   3.269
  404TCM    cl1 2184   0.497   0.122   3.218
  404TCM    cl2 2185   0.440   0.319   3.428
  404TCM     h1 2186   0.389   0.334   3.195
  404TCM    cl3 2187   0.219   0.191   3.284
  405TCM     c1 2188   2.462   3.685   0.315
  405TCM    cl1 2189   2.505   3.748   0.153
  405TCM    cl2 2190   2.487   3.507   0.319
  405TCM     h1 2191   2.525   3.733   0.390
  405TCM    cl3 2192   2.290   3.720   0.349
  406TCM     c1 2193   0.056   1.867   0.660
  406TCM    cl1 2194   0.023   1.860   0.836
  406TCM    cl2 2195   0.173   1.999   0.626
  406TCM     h1 2196   0.099   1.771   0.627
  406TCM    cl3 2197  -0.096   1.898   0.570
  407TCM     c1 2198   3.211   4.496   3.984
  407TCM    cl1 2199   3.225   4.425   3.820
  407TCM    cl2 2200   3.370   4.565   4.033
  407TCM     h1 2201   3.136   4.575   3.983
  407TCM    cl3 2202   3.163   4.369   4.101
  408TCM     c1 2203   0.283   3.239   3.362
  408TCM    cl1 2204   0.327   3.065   3.371
  408TCM    cl2 2205   0.126   3.256   3.276
  408TCM     h1 2206   0.274   3.280   3.463
  408TCM    cl3 2207   0.410   3.329   3.273
  409TCM     c1 2208   2.771   0.538   1.869
  409TCM    cl1 2209   2.883   0.551   1.729
  409TCM    cl2 2210   2.698   0.374   1.872
  409TCM     h1 2211   2.826   0.555   1.962
  409TCM    cl3 2212   2.642   0.660   1.850
  410TCM     c1 2213   4.666   4.592   4.267
  410TCM    cl1 2214   4.665   4.622   4.090
  410TCM    cl2 2215   4.605   4.427   4.301
  410TCM     h1 2216   4.768   4.603   4.305
  410TCM    cl3 2217   4.559   4.711   4.349
  411TCM     c1 2218   3.751   0.657   2.070
  411TCM    cl1 2219   3.732   0.625   2.246
  411TCM    cl2 2220   3.687   0.518   1.976
  411TCM     h1 2221   3.696   0.748   2.043
  411TCM    cl3 2222   3.925   0.680   2.033
  412TCM     c1 2223   2.281   4.662   2.293
  412TCM    cl1 2224   2.219   4.642   2.461
  412TCM    cl2 2225   2.271   4.506   2.207
  412TCM     h1 2226   2.222   4.738   2.241
  412TCM    cl3 2227   2.453   4.715   2.300
  413TCM     c1 2228   2.216   2.423   0.936
  413TCM    cl1 2229   2.070   2.374   1.027
  413TCM    cl2 2230   2.171   2.467   0.768
  413TCM     h1 2231   2.263   2.509   0.985
  413TCM    cl3 2232   2.331   2.286   0.931
  414TCM     c1 2233   2.028   4.470   0.225
  414TCM    cl1 2234   2.036   4.600   0.348
  414TCM    cl2 2235   2.193   4.406   0.197
  414TCM     h1 2236   1.963   4.390   0.260
  414TCM    cl3 2237   1.964   4.536   0.070
  415TCM     c1 2238   3.485   1.003   2.304
  415TCM    cl1 2239   3.607   0.972   2.176
  415TCM    cl2 2240   3.483   0.865   2.418
  415TCM     h1 2241   3.511   1.095   2.358
  415TCM    cl3 2242   3.323   1.022   2.230
  416TCM     c1 2243   3.369   4.083   0.680
  416TCM    cl1 2244   3.408   3.976   0.541
  416TCM    cl2 2245   3.412   3.999   0.832
  416TCM     h1 2246   3.426   4.176   0.671
  416TCM    cl3 2247   3.194   4.119   0.679
  417TCM     c1 2248   1.620   4.019   1.908
  417TCM    cl1 2249   1.790   4.024   1.965
  417TCM    cl2 2250   1.615   4.052   1.732
  417TCM     h1 2251   1.578   3.920   1.928
  417TCM    cl3 2252   1.523   4.144   1.994
  418TCM     c1 2253   4.731   2.591   2.924
  418TCM    cl1 2254   4.777   2.624   3.094
  418TCM    cl2 2255   4.777   2.423   2.881
  418TCM     h1 2256   4.623   2.603   2.913
  418TCM    cl3 2257   4.816   2.706   2.816
  419TCM     c1 2258   1.472   0.951   2.090
  419TCM    cl1 2259   1.477   1.124   2.043
  419TCM    cl2 2260   1.317   0.915   2.173
  419TCM     h1 2261   1.481   0.889   2.001
  419TCM    cl3 2262   1.609   0.915   2.201
  420TCM     c1 2263   0.772   4.037   4.914
  420TCM    cl1 2264   0.889   4.098   4.793
  420TCM    cl2 2265   0.820   4.093   5.077
  420TCM     h1 2266   0.671   4.073   4.890
  420TCM    cl3 2267   0.773   3.857   4.912
  421TCM     c1 2268   2.935   2.598   0.712
  421TCM    cl1 2269   2.844   2.623   0.559
  421TCM    cl2 2270   2.935   2.423   0.753
  421TCM     h1 2271   3.038   2.632   0.699
  421TCM    cl3 2272   2.857   2.690   0.845
  422TCM     c1 2273   0.523   1.798   2.484
  422TCM    cl1 2274   0.563   1.968   2.525
  422TCM    cl2 2275   0.382   1.796   2.373
  422TCM     h1 2276   0.609   1.751   2.435
  422TCM    cl3 2277   0.481   1.708   2.633
  423TCM     c1 2278   2.297   0.446   4.561
  423TCM    cl1 2279   2.443   0.352   4.512
  423TCM    cl2 2280   2.329   0.530   4.716
  423TCM     h1 2281   2.274   0.519   4.483
  423TCM    cl3 2282   2.159   0.334   4.582
  424TCM     c1 2283   0.082   4.042   3.844
  424TCM    cl1 2284   0.215   4.162   3.836
  424TCM    cl2 2285   0.028   4.024   4.014
  424TCM     h1 2286  -0.001   4.076   3.782
  424TCM    cl3 2287   0.141   3.884   3.783
  425TCM     c1 2288   4.909   4.011   1.082
  425TCM    cl1 2289   4.869   4.012   1.257
  425TCM    cl2 2290   5.039   3.892   1.051
  425TCM     h1 2291   4.820   3.985   1.024
  425TCM    cl3 2292   4.965   4.175   1.032
  426TCM     c1 2293   2.389   2.073   0.315
  426TCM    cl1 2294   2.282   2.165   0.205
  426TCM    cl2 2295   2.340   2.104   0.485
  426TCM     h1 2296   2.380   1.966   0.294
  426TCM    cl3 2297   2.559   2.126   0.292
  427TCM     c1 2298   3.154   2.270   2.166
  427TCM    cl1 2299   3.228   2.177   2.032
  427TCM    cl2 2300   2.975   2.270   2.147
  427TCM     h1 2301   3.181   2.224   2.262
  427TCM    cl3 2302   3.212   2.439   2.161
  428TCM     c1 2303   3.964   1.135   4.799
  428TCM    cl1 2304   4.005   1.243   4.935
  428TCM    cl2 2305   3.992   0.964   4.848
  428TCM     h1 2306   3.859   1.148   4.771
  428TCM    cl3 2307   4.069   1.174   4.659
  429TCM     c1 2308   0.755   1.863   4.525
  429TCM    cl1 2309   0.594   1.909   4.589
  429TCM    cl2 2310   0.825   1.733   4.627
  429TCM     h1 2311   0.745   1.827   4.422
  429TCM    cl3 2312   0.865   2.005   4.528
  430TCM     c1 2313   0.274   0.191   2.119
  430TCM    cl1 2314   0.394   0.108   2.015
  430TCM    cl2 2315   0.331   0.189   2.289
  430TCM     h1 2316   0.263   0.295   2.086
  430TCM    cl3 2317   0.117   0.107   2.107
  431TCM     c1 2318   3.726   0.227   0.889
  431TCM    cl1 2319   3.670   0.227   1.060
  431TCM    cl2 2320   3.588   0.199   0.779
  431TCM     h1 2321   3.772   0.324   0.866
  431TCM    cl3 2322   3.847   0.096   0.867
  432TCM     c1 2323   2.874   1.901   3.588
  432TCM    cl1 2324   3.049   1.943   3.583
  432TCM    cl2 2325   2.828   1.859   3.756
  432TCM     h1 2326   2.815   1.987   3.555
  432TCM    cl3 2327   2.844   1.762   3.480
  433TCM     c1 2328   3.591   2.615   3.489
  433TCM    cl1 2329   3.734   2.674   3.580
  433TCM    cl2 2330   3.599   2.436   3.473
  433TCM     h1 2331   3.500   2.643   3.543
  433TCM    cl3 2332   3.590   2.690   3.326
  434TCM     c1 2333   3.094   4.230   1.637
  434TCM    cl1 2334   2.990   4.340   1.732
  434TCM    cl2 2335   3.023   4.209   1.473
  434TCM     h1 2336   3.194   4.272   1.629
  434TCM    cl3 2337   3.103   4.070   1.719
  435TCM     c1 2338   0.275   0.926   3.863
  435TCM    cl1 2339   0.322   0.840   4.014
  435TCM    cl2 2340   0.200   0.808   3.750
  435TCM     h1 2341   0.203   1.004   3.888
  435TCM    cl3 2342   0.420   0.998   3.786
  436TCM     c1 2343   0.439   1.841   1.343
  436TCM    cl1 2344   0.537   1.956   1.246
  436TCM    cl2 2345   0.521   1.681   1.344
  436TCM     h1 2346   0.430   1.877   1.446
  436TCM    cl3 2347   0.276   1.823   1.270
  437TCM     c1 2348   4.882   2.494   1.066
  437TCM    cl1 2349   5.024   2.509   1.174
  437TCM    cl2 2350   4.849   2.652   0.989
  437TCM     h1 2351   4.903   2.419   0.989
  437TCM    cl3 2352   4.740   2.443   1.163
  438TCM     c1 2353   0.897   3.278   4.805
  438TCM    cl1 2354   0.889   3.224   4.976
  438TCM    cl2 2355   0.915   3.456   4.800
  438TCM     h1 2356   0.983   3.231   4.756
  438TCM    cl3 2357   0.746   3.229   4.720
  439TCM     c1 2358   3.359   1.078   1.376
  439TCM    cl1 2359   3.257   0.949   1.305
  439TCM    cl2 2360   3.526   1.061   1.313
  439TCM     h1 2361   3.319   1.176   1.348
  439TCM    cl3 2362   3.361   1.062   1.554
  440TCM     c1 2363   3.543   1.669   4.549
  440TCM    cl1 2364   3.640   1.528   4.496
  440TCM    cl2 2365   3.418   1.615   4.666
  440TCM     h1 2366   3.609   1.742   4.597
  440TCM    cl3 2367   3.463   1.744   4.407
  441TCM     c1 2368   0.338   3.811   4.184
  441TCM    cl1 2369   0.276   3.927   4.306
  441TCM    cl2 2370   0.407   3.902   4.046
  441TCM     h1 2371   0.415   3.749   4.229
  441TCM    cl3 2372   0.202   3.708   4.128
  442TCM     c1 2373   3.430   2.996   0.132
  442TCM    cl1 2374   3.344   2.975  -0.024
  442TCM    cl2 2375   3.358   2.886   0.254
  442TCM     h1 2376   3.536   2.971   0.119
  442TCM    cl3 2377   3.415   3.166   0.186
  443TCM     c1 2378   0.871   2.066   1.363
  443TCM    cl1 2379   0.866   1.918   1.463
  443TCM    cl2 2380   1.030   2.076   1.279
  443TCM     h1 2381   0.791   2.063   1.288
  443TCM    cl3 2382   0.850   2.210   1.468
  444TCM     c1 2383   4.224   4.871   0.181
  444TCM    cl1 2384   4.104   5.002   0.203
  444TCM    cl2 2385   4.356   4.890   0.301
  444TCM     h1 2386   4.176   4.774   0.195
  444TCM    cl3 2387   4.293   4.882   0.016
  445TCM     c1 2388   4.381   1.030   0.060
  445TCM    cl1 2389   4.357   1.085  -0.109
  445TCM    cl2 2390   4.225   1.037   0.148
  445TCM     h1 2391   4.418   0.927   0.060
  445TCM    cl3 2392   4.501   1.137   0.140
  446TCM     c1 2393   2.997   0.529   3.341
  446TCM    cl1 2394   2.877   0.493   3.212
  446TCM    cl2 2395   2.914   0.604   3.481
  446TCM     h1 2396   3.045   0.436   3.372
  446TCM    cl3 2397   3.119   0.644   3.279
  447TCM     c1 2398   4.168   1.527   4.664
  447TCM    cl1 2399   4.293   1.657   4.668
  447TCM    cl2 2400   4.096   1.519   4.500
  447TCM     h1 2401   4.214   1.431   4.690
  447TCM    cl3 2402   4.039   1.566   4.783
  448TCM     c1 2403   4.950   1.960   3.487
  448TCM    cl1 2404   4.780   1.936   3.437
  448TCM    cl2 2405   5.019   2.099   3.397
  448TCM     h1 2406   4.954   1.980   3.594
  448TCM    cl3 2407   5.046   1.813   3.451
  449TCM     c1 2408   4.930   4.822   3.761
  449TCM    cl1 2409   4.798   4.704   3.735
  449TCM    cl2 2410   5.084   4.756   3.698
  449TCM     h1 2411   4.906   4.916   3.710
  449TCM    cl3 2412   4.947   4.854   3.937
  450TCM     c1 2413   3.301   0.349   3.660
  450TCM    cl1 2414   3.130   0.342   3.715
  450TCM    cl2 2415   3.309   0.426   3.498
  450TCM     h1 2416   3.360   0.407   3.731
  450TCM    cl3 2417   3.369   0.183   3.649
  451TCM     c1 2418   3.700   3.486   1.469
  451TCM    cl1 2419   3.796   3.615   1.390
  451TCM    cl2 2420   3.652   3.540   1.633
  451TCM     h1 2421   3.610   3.466   1.409
  451TCM    cl3 2422   3.798   3.336   1.482
  452TCM     c1 2423   0.482   4.838   1.133
  452TCM    cl1 2424   0.553   4.735   1.262
  452TCM    cl2 2425   0.493   4.754   0.976
  452TCM     h1 2426   0.377   4.858   1.156
  452TCM    cl3 2427   0.572   4.993   1.125
  453TCM     c1 2428   2.090   3.569   3.580
  453TCM    cl1 2429   2.245   3.574   3.490
  453TCM    cl2 2430   2.020   3.404   3.571
  453TCM     h1 2431   2.107   3.596   3.685
  453TCM    cl3 2432   1.976   3.687   3.507
  454TCM     c1 2433   4.518   3.623   1.106
  454TCM    cl1 2434   4.521   3.575   1.279
  454TCM    cl2 2435   4.620   3.770   1.083
  454TCM     h1 2436   4.557   3.542   1.044
  454TCM    cl3 2437   4.349   3.660   1.058
  455TCM     c1 2438   3.008   3.895   4.451
  455TCM    cl1 2439   2.889   4.020   4.406
  455TCM    cl2 2440   2.951   3.735   4.393
  455TCM     h1 2441   3.105   3.918   4.406
  455TCM    cl3 2442   3.026   3.890   4.630
  456TCM     c1 2443   1.776   2.095   4.579
  456TCM    cl1 2444   1.602   2.078   4.618
  456TCM    cl2 2445   1.807   2.034   4.413
  456TCM     h1 2446   1.804   2.200   4.585
  456TCM    cl3 2447   1.873   2.001   4.697
  457TCM     c1 2448   1.645   3.176   1.908
  457TCM    cl1 2449   1.614   3.352   1.896
  457TCM    cl2 2450   1.710   3.137   2.071
  457TCM     h1 2451   1.552   3.121   1.892
  457TCM    cl3 2452   1.766   3.129   1.784
  458TCM     c1 2453   1.952   4.616   1.357
  458TCM    cl1 2454   2.107   4.706   1.359
  458TCM    cl2 2455   1.826   4.719   1.281
  458TCM     h1 2456   1.963   4.524   1.300
  458TCM    cl3 2457   1.904   4.578   1.525
  459TCM     c1 2458   3.949   4.073   3.475
  459TCM    cl1 2459   4.041   4.129   3.332
  459TCM    cl2 2460   3.909   4.214   3.579
  459TCM     h1 2461   3.856   4.025   3.442
  459TCM    cl3 2462   4.048   3.957   3.569
  460TCM     c1 2463   0.601   0.831   3.465
  460TCM    cl1 2464   0.475   0.943   3.402
  460TCM    cl2 2465   0.521   0.702   3.561
  460TCM     h1 2466   0.655   0.786   3.381
  460TCM    cl3 2467   0.714   0.923   3.569
  461TCM     c1 2468   1.350   4.196   0.353
  461TCM    cl1 2469   1.344   4.295   0.502
  461TCM    cl2 2470   1.188   4.191   0.276
  461TCM     h1 2471   1.423   4.239   0.283
  461TCM    cl3 2472   1.400   4.029   0.395
  462TCM     c1 2473   3.095   0.044   0.108
  462TCM    cl1 2474   2.925   0.029   0.052
  462TCM    cl2 2475   3.205  -0.016  -0.020
  462TCM     h1 2476   3.117   0.149   0.129
  462TCM    cl3 2477   3.118  -0.052   0.258
  463TCM     c1 2478   3.477   0.665   3.206
  463TCM    cl1 2479   3.546   0.783   3.090
  463TCM    cl2 2480   3.580   0.654   3.352
  463TCM     h1 2481   3.377   0.697   3.234
  463TCM    cl3 2482   3.469   0.504   3.126
  464TCM     c1 2483   4.800   4.362   3.879
  464TCM    cl1 2484   4.805   4.273   3.724
  464TCM    cl2 2485   4.964   4.422   3.920
  464TCM     h1 2486   4.731   4.447   3.870
  464TCM    cl3 2487   4.743   4.252   4.008
  465TCM     c1 2488   4.242   1.496   0.168
  465TCM    cl1 2489   4.074   1.559   0.149
  465TCM    cl2 2490   4.300   1.433   0.010
  465TCM     h1 2491   4.308   1.577   0.202
  465TCM    cl3 2492   4.241   1.364   0.289
  466TCM     c1 2493   0.446   0.517   2.555
  466TCM    cl1 2494   0.455   0.603   2.397
  466TCM    cl2 2495   0.296   0.420   2.563
  466TCM     h1 2496   0.533   0.450   2.565
  466TCM    cl3 2497   0.445   0.636   2.689
  467TCM     c1 2498   0.316   1.947   2.068
  467TCM    cl1 2499   0.381   1.784   2.029
  467TCM    cl2 2500   0.226   2.008   1.926
  467TCM     h1 2501   0.250   1.940   2.155
  467TCM    cl3 2502   0.453   2.056   2.105
  468TCM     c1 2503   3.253   1.932   1.566
  468TCM    cl1 2504   3.315   1.935   1.398
  468TCM    cl2 2505   3.365   2.024   1.673
  468TCM     h1 2506   3.154   1.978   1.570
  468TCM    cl3 2507   3.243   1.762   1.621
  469TCM     c1 2508   2.479   0.756   4.108
  469TCM    cl1 2509   2.574   0.653   3.997
  469TCM    cl2 2510   2.452   0.668   4.262
  469TCM     h1 2511   2.533   0.849   4.128
  469TCM    cl3 2512   2.321   0.794   4.032
  470TCM     c1 2513   4.413   2.281   4.718
  470TCM    cl1 2514   4.425   2.391   4.860
  470TCM    cl2 2515   4.352   2.121   4.772
  470TCM     h1 2516   4.345   2.323   4.645
  470TCM    cl3 2517   4.576   2.262   4.645
  471TCM     c1 2518   3.618   0.632   2.759
  471TCM    cl1 2519   3.443   0.643   2.721
  471TCM    cl2 2520   3.691   0.796   2.744
  471TCM     h1 2521   3.631   0.595   2.861
  471TCM    cl3 2522   3.697   0.520   2.644
  472TCM     c1 2523   3.006   1.925   3.166
  472TCM    cl1 2524   2.974   1.931   2.989
  472TCM    cl2 2525   2.930   2.068   3.244
  472TCM     h1 2526   2.965   1.833   3.208
  472TCM    cl3 2527   3.183   1.930   3.194
  473TCM     c1 2528   3.558   1.426   1.258
  473TCM    cl1 2529   3.621   1.587   1.209
  473TCM    cl2 2530   3.394   1.403   1.190
  473TCM     h1 2531   3.625   1.348   1.220
  473TCM    cl3 2532   3.550   1.417   1.437
  474TCM     c1 2533   0.155   3.161   1.346
  474TCM    cl1 2534   0.027   3.277   1.392
  474TCM    cl2 2535   0.202   3.191   1.175
  474TCM     h1 2536   0.242   3.174   1.411
  474TCM    cl3 2537   0.093   2.993   1.363
  475TCM     c1 2538   2.342   3.536   4.547
  475TCM    cl1 2539   2.192   3.584   4.633
  475TCM    cl2 2540   2.329   3.587   4.376
  475TCM     h1 2541   2.428   3.584   4.594
  475TCM    cl3 2542   2.361   3.358   4.555
  476TCM     c1 2543   1.571   1.408   1.827
  476TCM    cl1 2544   1.607   1.487   1.984
  476TCM    cl2 2545   1.723   1.346   1.755
  476TCM     h1 2546   1.502   1.325   1.844
  476TCM    cl3 2547   1.497   1.526   1.715
  477TCM     c1 2548   4.549   2.300   0.277
  477TCM    cl1 2549   4.632   2.412   0.164
  477TCM    cl2 2550   4.668   2.182   0.340
  477TCM     h1 2551   4.505   2.356   0.360
  477TCM    cl3 2552   4.419   2.213   0.188
  478TCM     c1 2553   2.916   4.397   3.414
  478TCM    cl1 2554   2.798   4.503   3.330
  478TCM    cl2 2555   2.827   4.268   3.500
  478TCM     h1 2556   2.984   4.353   3.341
  478TCM    cl3 2557   3.009   4.493   3.533
  479TCM     c1 2558   4.990   3.594   0.109
  479TCM    cl1 2559   4.925   3.430   0.143
  479TCM    cl2 2560   4.891   3.717   0.195
  479TCM     h1 2561   5.093   3.600   0.144
  479TCM    cl3 2562   4.985   3.626  -0.067
  480TCM     c1 2563   1.325   2.680   2.865
  480TCM    cl1 2564   1.315   2.843   2.939
  480TCM    cl2 2565   1.280   2.690   2.692
  480TCM     h1 2566   1.427   2.642   2.874
  480TCM    cl3 2567   1.212   2.569   2.950
  481TCM     c1 2568   2.491   2.609   1.225
  481TCM    cl1 2569   2.481   2.658   1.053
  481TCM    cl2 2570   2.391   2.462   1.252
  481TCM     h1 2571   2.594   2.588   1.252
  481TCM    cl3 2572   2.428   2.743   1.326
  482TCM     c1 2573   4.665   3.248   3.526
  482TCM    cl1 2574   4.755   3.283   3.375
  482TCM    cl2 2575   4.501   3.188   3.485
  482TCM     h1 2576   4.719   3.173   3.584
  482TCM    cl3 2577   4.649   3.398   3.623
  483TCM     c1 2578   2.361   4.688   3.187
  483TCM    cl1 2579   2.456   4.539   3.213
  483TCM    cl2 2580   2.187   4.651   3.208
  483TCM     h1 2581   2.391   4.764   3.259
  483TCM    cl3 2582   2.390   4.748   3.020
  484TCM     c1 2583   0.057   2.601   3.991
  484TCM    cl1 2584   0.229   2.652   4.004
  484TCM    cl2 2585  -0.048   2.746   4.000
  484TCM     h1 2586   0.041   2.550   3.896
  484TCM    cl3 2587   0.017   2.489   4.126
  485TCM     c1 2588   2.504   2.073   3.246
  485TCM    cl1 2589   2.599   2.024   3.390
  485TCM    cl2 2590   2.343   1.994   3.253
  485TCM     h1 2591   2.492   2.181   3.245
  485TCM    cl3 2592   2.589   2.019   3.097
  486TCM     c1 2593   1.859   0.431   3.764
  486TCM    cl1 2594   1.884   0.347   3.920
  486TCM    cl2 2595   1.863   0.608   3.792
  486TCM     h1 2596   1.938   0.403   3.694
  486TCM    cl3 2597   1.700   0.384   3.696
  487TCM     c1 2598   0.813   4.985   0.694
  487TCM    cl1 2599   0.728   5.089   0.813
  487TCM    cl2 2600   0.835   5.075   0.541
  487TCM     h1 2601   0.911   4.956   0.734
  487TCM    cl3 2602   0.716   4.837   0.665
  488TCM     c1 2603   3.818   1.074   3.387
  488TCM    cl1 2604   3.789   1.250   3.365
  488TCM    cl2 2605   3.678   1.000   3.470
  488TCM     h1 2606   3.832   1.027   3.289
  488TCM    cl3 2607   3.966   1.050   3.485
  489TCM     c1 2608   3.218   4.701   3.210
  489TCM    cl1 2609   3.120   4.555   3.179
  489TCM    cl2 2610   3.181   4.765   3.373
  489TCM     h1 2611   3.325   4.676   3.202
  489TCM    cl3 2612   3.176   4.825   3.088
  490TCM     c1 2613   2.061   2.001   3.036
  490TCM    cl1 2614   1.943   1.897   2.949
  490TCM    cl2 2615   1.984   2.158   3.077
  490TCM     h1 2616   2.092   1.951   3.128
  490TCM    cl3 2617   2.205   2.030   2.932
  491TCM     c1 2618   1.364   0.533   0.073
  491TCM    cl1 2619   1.485   0.468   0.189
  491TCM    cl2 2620   1.366   0.712   0.079
  491TCM     h1 2621   1.389   0.499  -0.028
  491TCM    cl3 2622   1.201   0.473   0.119
  492TCM     c1 2623   2.021   4.223   4.118
  492TCM    cl1 2624   1.970   4.228   3.946
  492TCM    cl2 2625   2.016   4.389   4.185
  492TCM     h1 2626   1.953   4.158   4.175
  492TCM    cl3 2627   2.188   4.158   4.129
  493TCM     c1 2628   0.546   3.570   4.927
  493TCM    cl1 2629   0.571   3.577   4.750
  493TCM    cl2 2630   0.559   3.400   4.983
  493TCM     h1 2631   0.622   3.630   4.978
  493TCM    cl3 2632   0.383   3.632   4.967
  494TCM     c1 2633   4.892   2.611   1.511
  494TCM    cl1 2634   4.766   2.494   1.562
  494TCM    cl2 2635   4.962   2.688   1.658
  494TCM     h1 2636   4.970   2.559   1.455
  494TCM    cl3 2637   4.817   2.737   1.407
  495TCM     c1 2638   3.140   0.993   3.347
  495TCM    cl1 2639   3.308   0.952   3.397
  495TCM    cl2 2640   3.135   1.011   3.169
  495TCM     h1 2641   3.072   0.914   3.379
  495TCM    cl3 2642   3.092   1.148   3.422
  496TCM     c1 2643   0.053   1.143   1.823
  496TCM    cl1 2644   0.213   1.067   1.789
  496TCM    cl2 2645   0.067   1.253   1.964
  496TCM     h1 2646   0.021   1.200   1.735
  496TCM    cl3 2647  -0.067   1.014   1.859
  497TCM     c1 2648   1.418   4.820   1.162
  497TCM    cl1 2649   1.354   4.785   0.998
  497TCM    cl2 2650   1.420   4.669   1.259
  497TCM     h1 2651   1.520   4.859   1.154
  497TCM    cl3 2652   1.312   4.941   1.242
  498TCM     c1 2653   2.605   2.718   3.571
  498TCM    cl1 2654   2.771   2.672   3.623
  498TCM    cl2 2655   2.616   2.839   3.439
  498TCM     h1 2656   2.551   2.629   3.536
  498TCM    cl3 2657   2.517   2.790   3.711
  499TCM     c1 2658   4.874   3.047   0.939
  499TCM    cl1 2659   5.012   3.137   0.868
  499TCM    cl2 2660   4.730   3.069   0.836
  499TCM     h1 2661   4.899   2.940   0.946
  499TCM    cl3 2662   4.840   3.111   1.103
  500TCM     c1 2663   1.629   0.145   0.209
  500TCM    cl1 2664   1.480   0.077   0.136
  500TCM    cl2 2665   1.740   0.196   0.078
  500TCM     h1 2666   1.602   0.232   0.270
  500TCM    cl3 2667   1.708   0.022   0.312
  501TCM     c1 2668   0.731   1.576   2.842
  501TCM    cl1 2669   0.861   1.453   2.853
  501TCM    cl2 2670   0.802   1.734   2.795
  501TCM     h1 2671   0.658   1.545   2.767
  501TCM    cl3 2672   0.649   1.594   3.001
  502TCM     c1 2673   2.492   3.685   2.264
  502TCM    cl1 2674   2.627   3.711   2.379
  502TCM    cl2 2675   2.373   3.819   2.279
  502TCM     h1 2676   2.531   3.683   2.162
  502TCM    cl3 2677   2.413   3.529   2.301
  503TCM     c1 2678   1.374   0.383   2.813
  503TCM    cl1 2679   1.249   0.309   2.708
  503TCM    cl2 2680   1.294   0.452   2.958
  503TCM     h1 2681   1.447   0.307   2.843
  503TCM    cl3 2682   1.456   0.515   2.723
  504TCM     c1 2683   4.882   4.896   2.727
  504TCM    cl1 2684   4.788   4.743   2.723
  504TCM    cl2 2685   4.880   4.960   2.895
  504TCM     h1 2686   4.985   4.876   2.697
  504TCM    cl3 2687   4.807   5.015   2.616
  505TCM     c1 2688   2.390   3.722   3.181
  505TCM    cl1 2689   2.228   3.783   3.134
  505TCM    cl2 2690   2.516   3.837   3.122
  505TCM     h1 2691   2.395   3.714   3.290
  505TCM    cl3 2692   2.417   3.561   3.107
  506TCM     c1 2693   0.172   4.593   0.144
  506TCM    cl1 2694   0.243   4.700   0.019
  506TCM    cl2 2695   0.198   4.421   0.100
  506TCM     h1 2696   0.219   4.614   0.241
  506TCM    cl3 2697  -0.004   4.624   0.155
  507TCM     c1 2698   1.161   3.902   0.004
  507TCM    cl1 2699   1.133   3.780  -0.125
  507TCM    cl2 2700   1.337   3.912   0.038
  507TCM     h1 2701   1.124   3.999  -0.029
  507TCM    cl3 2702   1.075   3.852   0.153
  508TCM     c1 2703   0.290   1.706   3.144
  508TCM    cl1 2704   0.131   1.621   3.139
  508TCM    cl2 2705   0.381   1.652   3.289
  508TCM     h1 2706   0.346   1.682   3.054
  508TCM    cl3 2707   0.263   1.883   3.154
  509TCM     c1 2708   4.385   4.906   4.595
  509TCM    cl1 2709   4.426   5.028   4.720
  509TCM    cl2 2710   4.333   4.988   4.444
  509TCM     h1 2711   4.474   4.845   4.574
  509TCM    cl3 2712   4.253   4.800   4.654
  510TCM     c1 2713   4.223   2.333   2.308
  510TCM    cl1 2714   4.337   2.198   2.338
  510TCM    cl2 2715   4.204   2.429   2.458
  510TCM     h1 2716   4.262   2.396   2.228
  510TCM    cl3 2717   4.064   2.266   2.259
  511TCM     c1 2718   3.315   4.696   1.500
  511TCM    cl1 2719   3.410   4.683   1.348
  511TCM    cl2 2720   3.420   4.760   1.631
  511TCM     h1 2721   3.231   4.763   1.485
  511TCM    cl3 2722   3.255   4.534   1.547
  512TCM     c1 2723   0.008   4.791   0.781
  512TCM    cl1 2724  -0.005   4.965   0.741
  512TCM    cl2 2725  -0.152   4.729   0.832
  512TCM     h1 2726   0.042   4.735   0.693
  512TCM    cl3 2727   0.125   4.768   0.915
  513TCM     c1 2728   3.649   4.724   0.111
  513TCM    cl1 2729   3.654   4.617   0.255
  513TCM    cl2 2730   3.678   4.626  -0.037
  513TCM     h1 2731   3.551   4.772   0.105
  513TCM    cl3 2732   3.777   4.849   0.127
  514TCM     c1 2733   0.742   0.155   2.275
  514TCM    cl1 2734   0.673   0.284   2.379
  514TCM    cl2 2735   0.741   0.210   2.104
  514TCM     h1 2736   0.844   0.134   2.306
  514TCM    cl3 2737   0.642   0.006   2.289
  515TCM     c1 2738   2.519   4.940   4.395
  515TCM    cl1 2739   2.376   4.835   4.361
  515TCM    cl2 2740   2.669   4.846   4.365
  515TCM     h1 2741   2.516   5.027   4.329
  515TCM    cl3 2742   2.515   4.993   4.566
  516TCM     c1 2743   4.229   3.846   1.428
  516TCM    cl1 2744   4.086   3.827   1.322
  516TCM    cl2 2745   4.187   3.956   1.563
  516TCM     h1 2746   4.258   3.748   1.468
  516TCM    cl3 2747   4.363   3.916   1.332
  517TCM     c1 2748   3.043   3.445   4.597
  517TCM    cl1 2749   3.009   3.280   4.657
  517TCM    cl2 2750   3.183   3.441   4.485
  517TCM     h1 2751   2.955   3.484   4.545
  517TCM    cl3 2752   3.083   3.552   4.736
  518TCM     c1 2753   2.701   0.359   4.232
  518TCM    cl1 2754   2.738   0.214   4.331
  518TCM    cl2 2755   2.548   0.333   4.144
  518TCM     h1 2756   2.691   0.447   4.298
  518TCM    cl3 2757   2.834   0.387   4.115
  519TCM     c1 2758   3.235   3.249   1.483
  519TCM    cl1 2759   3.377   3.356   1.462
  519TCM    cl2 2760   3.154   3.289   1.638
  519TCM     h1 2761   3.166   3.265   1.399
  519TCM    cl3 2762   3.289   3.078   1.487
  520TCM     c1 2763   4.932   2.951   3.351
  520TCM    cl1 2764   5.037   2.814   3.300
  520TCM    cl2 2765   4.985   3.009   3.513
  520TCM     h1 2766   4.939   3.032   3.279
  520TCM    cl3 2767   4.762   2.894   3.363
  521TCM     c1 2768   1.611   3.282   2.880
  521TCM    cl1 2769   1.564   3.399   3.008
  521TCM    cl2 2770   1.699   3.369   2.750
  521TCM     h1 2771   1.676   3.205   2.923
  521TCM    cl3 2772   1.464   3.205   2.811
  522TCM     c1 2773   2.687   4.160   1.603
  522TCM    cl1 2774   2.674   4.032   1.477
  522TCM    cl2 2775   2.558   4.136   1.725
  522TCM     h1 2776   2.785   4.154   1.651
  522TCM    cl3 2777   2.667   4.321   1.527
  523TCM     c1 2778   4.991   1.473   2.790
  523TCM    cl1 2779   4.927   1.386   2.646
  523TCM    cl2 2780   5.012   1.356   2.924
  523TCM     h1 2781   5.088   1.518   2.765
  523TCM    cl3 2782   4.875   1.601   2.838
  524TCM     c1 2783   4.224   3.276   2.702
  524TCM    cl1 2784   4.320   3.152   2.789
  524TCM    cl2 2785   4.189   3.414   2.812
  524TCM     h1 2786   4.281   3.312   2.615
  524TCM    cl3 2787   4.069   3.204   2.647
  525TCM     c1 2788   2.595   4.535   2.583
  525TCM    cl1 2789   2.759   4.505   2.649
  525TCM    cl2 2790   2.514   4.661   2.683
  525TCM     h1 2791   2.603   4.570   2.480
  525TCM    cl3 2792   2.499   4.383   2.588
  526TCM     c1 2793   2.754   3.078   2.274
  526TCM    cl1 2794   2.631   2.953   2.237
  526TCM    cl2 2795   2.828   3.135   2.120
  526TCM     h1 2796   2.707   3.162   2.325
  526TCM    cl3 2797   2.882   3.007   2.378
  527TCM     c1 2798   1.826   3.094   4.052
  527TCM    cl1 2799   1.850   3.148   3.882
  527TCM    cl2 2800   1.810   3.237   4.159
  527TCM     h1 2801   1.735   3.033   4.059
  527TCM    cl3 2802   1.968   2.998   4.104
  528TCM     c1 2803   4.871   1.771   0.174
  528TCM    cl1 2804   4.834   1.697   0.014
  528TCM    cl2 2805   4.930   1.644   0.285
  528TCM     h1 2806   4.947   1.848   0.163
  528TCM    cl3 2807   4.721   1.843   0.242
  529TCM     c1 2808   1.883   2.768   2.030
  529TCM    cl1 2809   1.831   2.778   2.201
  529TCM    cl2 2810   1.993   2.905   1.993
  529TCM     h1 2811   1.934   2.674   2.012
  529TCM    cl3 2812   1.738   2.779   1.924
  530TCM     c1 2813   1.794   0.413   4.738
  530TCM    cl1 2814   1.872   0.545   4.644
  530TCM    cl2 2815   1.713   0.299   4.626
  530TCM     h1 2816   1.870   0.360   4.796
  530TCM    cl3 2817   1.673   0.484   4.850
  531TCM     c1 2818   0.324   0.012   3.826
  531TCM    cl1 2819   0.392   0.079   3.978
  531TCM    cl2 2820   0.448   0.022   3.696
  531TCM     h1 2821   0.296  -0.093   3.842
  531TCM    cl3 2822   0.180   0.106   3.778
  532TCM     c1 2823   1.529   4.336   1.392
  532TCM    cl1 2824   1.664   4.395   1.290
  532TCM    cl2 2825   1.548   4.397   1.560
  532TCM     h1 2826   1.434   4.373   1.351
  532TCM    cl3 2827   1.528   4.157   1.393
  533TCM     c1 2828   4.809   0.667   3.917
  533TCM    cl1 2829   4.668   0.611   4.013
  533TCM    cl2 2830   4.825   0.565   3.771
  533TCM     h1 2831   4.794   0.771   3.888
  533TCM    cl3 2832   4.958   0.653   4.017
  534TCM     c1 2833   2.383   3.017   0.118
  534TCM    cl1 2834   2.293   2.992  -0.036
  534TCM    cl2 2835   2.265   3.043   0.251
  534TCM     h1 2836   2.444   2.929   0.140
  534TCM    cl3 2837   2.488   3.161   0.103
  535TCM     c1 2838   2.425   4.135   1.063
  535TCM    cl1 2839   2.524   4.234   1.176
  535TCM    cl2 2840   2.355   4.239   0.935
  535TCM     h1 2841   2.488   4.058   1.017
  535TCM    cl3 2842   2.291   4.058   1.152
  536TCM     c1 2843   1.490   0.677   3.952
  536TCM    cl1 2844   1.551   0.517   4.006
  536TCM    cl2 2845   1.504   0.691   3.774
  536TCM     h1 2846   1.386   0.688   3.981
  536TCM    cl3 2847   1.587   0.807   4.029
  537TCM     c1 2848   1.328   0.946   2.703
  537TCM    cl1 2849   1.416   0.874   2.564
  537TCM    cl2 2850   1.250   0.815   2.798
  537TCM     h1 2851   1.398   1.001   2.767
  537TCM    cl3 2852   1.201   1.059   2.645
  538TCM     c1 2853   2.010   2.942   3.263
  538TCM    cl1 2854   1.896   3.008   3.141
  538TCM    cl2 2855   2.086   3.078   3.352
  538TCM     h1 2856   1.956   2.878   3.333
  538TCM    cl3 2857   2.137   2.846   3.180
  539TCM     c1 2858   3.692   4.023   2.881
  539TCM    cl1 2859   3.647   4.159   2.989
  539TCM    cl2 2860   3.737   4.088   2.720
  539TCM     h1 2861   3.777   3.969   2.923
  539TCM    cl3 2862   3.552   3.912   2.862
  540TCM     c1 2863   2.645   0.066   0.425
  540TCM    cl1 2864   2.770  -0.063   0.432
  540TCM    cl2 2865   2.713   0.218   0.490
  540TCM     h1 2866   2.613   0.081   0.321
  540TCM    cl3 2867   2.504   0.017   0.525
  541TCM     c1 2868   1.595   3.496   3.904
  541TCM    cl1 2869   1.672   3.567   4.050
  541TCM    cl2 2870   1.531   3.333   3.944
  541TCM     h1 2871   1.513   3.560   3.871
  541TCM    cl3 2872   1.716   3.483   3.773
  542TCM     c1 2873   2.226   2.075   1.398
  542TCM    cl1 2874   2.371   2.105   1.500
  542TCM    cl2 2875   2.124   2.222   1.395
  542TCM     h1 2876   2.257   2.050   1.297
  542TCM    cl3 2877   2.131   1.939   1.467
  543TCM     c1 2878   2.972   4.837   3.681
  543TCM    cl1 2879   3.108   4.946   3.723
  543TCM    cl2 2880   2.823   4.934   3.662
  543TCM     h1 2881   2.994   4.785   3.588
  543TCM    cl3 2882   2.949   4.718   3.813
  544TCM     c1 2883   2.001   1.233   2.002
  544TCM    cl1 2884   1.970   1.406   2.038
  544TCM    cl2 2885   1.850   1.138   2.026
  544TCM     h1 2886   2.035   1.222   1.898
  544TCM    cl3 2887   2.127   1.172   2.113
  545TCM     c1 2888   2.203   2.513   0.171
  545TCM    cl1 2889   2.240   2.683   0.215
  545TCM    cl2 2890   2.192   2.499  -0.007
  545TCM     h1 2891   2.283   2.448   0.208
  545TCM    cl3 2892   2.047   2.464   0.246
  546TCM     c1 2893   3.341   2.211   4.200
  546TCM    cl1 2894   3.411   2.293   4.344
  546TCM    cl2 2895   3.462   2.100   4.129
  546TCM     h1 2896   3.252   2.154   4.230
  546TCM    cl3 2897   3.295   2.335   4.079
  547TCM     c1 2898   0.582   0.473   1.897
  547TCM    cl1 2899   0.514   0.358   1.777
  547TCM    cl2 2900   0.475   0.480   2.042
  547TCM     h1 2901   0.682   0.439   1.927
  547TCM    cl3 2902   0.594   0.636   1.824
  548TCM     c1 2903   0.004   2.569   3.569
  548TCM    cl1 2904  -0.125   2.668   3.643
  548TCM    cl2 2905  -0.019   2.397   3.616
  548TCM     h1 2906   0.001   2.579   3.460
  548TCM    cl3 2907   0.163   2.625   3.630
  549TCM     c1 2908   4.196   4.528   0.702
  549TCM    cl1 2909   4.116   4.655   0.800
  549TCM    cl2 2910   4.249   4.598   0.545
  549TCM     h1 2911   4.282   4.488   0.756
  549TCM    cl3 2912   4.078   4.397   0.670
  550TCM     c1 2913   0.203   3.907   0.714
  550TCM    cl1 2914   0.105   3.767   0.663
  550TCM    cl2 2915   0.124   4.059   0.661
  550TCM     h1 2916   0.212   3.907   0.823
  550TCM    cl3 2917   0.367   3.898   0.642
  551TCM     c1 2918   2.146   1.921   3.624
  551TCM    cl1 2919   2.081   2.027   3.494
  551TCM    cl2 2920   2.211   2.024   3.756
  551TCM     h1 2921   2.065   1.858   3.663
  551TCM    cl3 2922   2.277   1.818   3.558
  552TCM     c1 2923   0.444   3.997   1.060
  552TCM    cl1 2924   0.398   3.829   1.017
  552TCM    cl2 2925   0.336   4.113   0.976
  552TCM     h1 2926   0.436   4.012   1.168
  552TCM    cl3 2927   0.614   4.026   1.009
  553TCM     c1 2928   1.483   3.636   0.231
  553TCM    cl1 2929   1.337   3.673   0.328
  553TCM    cl2 2930   1.531   3.465   0.258
  553TCM     h1 2931   1.462   3.652   0.125
  553TCM    cl3 2932   1.616   3.746   0.281
  554TCM     c1 2933   3.004   1.849   2.453
  554TCM    cl1 2934   3.131   1.723   2.439
  554TCM    cl2 2935   2.995   1.942   2.300
  554TCM     h1 2936   2.907   1.802   2.473
  554TCM    cl3 2937   3.045   1.961   2.588
  555TCM     c1 2938   1.816   2.518   2.462
  555TCM    cl1 2939   1.815   2.551   2.638
  555TCM    cl2 2940   1.720   2.371   2.428
  555TCM     h1 2941   1.772   2.604   2.409
  555TCM    cl3 2942   1.984   2.493   2.404
  556TCM     c1 2943   2.988   4.699   1.743
  556TCM    cl1 2944   3.001   4.855   1.656
  556TCM    cl2 2945   2.831   4.689   1.829
  556TCM     h1 2946   2.995   4.616   1.671
  556TCM    cl3 2947   3.121   4.687   1.862
  557TCM     c1 2948   0.730   2.367   4.402
  557TCM    cl1 2949   0.692   2.536   4.447
  557TCM    cl2 2950   0.713   2.348   4.224
  557TCM     h1 2951   0.833   2.343   4.432
  557TCM    cl3 2952   0.615   2.257   4.485
  558TCM     c1 2953   4.609   3.646   4.810
  558TCM    cl1 2954   4.623   3.533   4.948
  558TCM    cl2 2955   4.712   3.589   4.675
  558TCM     h1 2956   4.505   3.651   4.777
  558TCM    cl3 2957   4.664   3.810   4.861
  559TCM     c1 2958   4.996   1.885   3.890
  559TCM    cl1 2959   5.142   1.805   3.825
  559TCM    cl2 2960   4.850   1.811   3.815
  559TCM     h1 2961   4.992   1.873   3.999
  559TCM    cl3 2962   5.000   2.060   3.850
  560TCM     c1 2963   3.962   2.054   2.655
  560TCM    cl1 2964   3.870   2.193   2.588
  560TCM    cl2 2965   4.073   1.991   2.529
  560TCM     h1 2966   4.019   2.087   2.742
  560TCM    cl3 2967   3.847   1.925   2.704
  561TCM     c1 2968   1.165   2.736   0.014
  561TCM    cl1 2969   1.063   2.815   0.139
  561TCM    cl2 2970   1.072   2.604  -0.063
  561TCM     h1 2971   1.195   2.809  -0.062
  561TCM    cl3 2972   1.311   2.668   0.093
  562TCM     c1 2973   3.381   1.987   2.773
  562TCM    cl1 2974   3.262   2.097   2.849
  562TCM    cl2 2975   3.456   1.886   2.901
  562TCM     h1 2976   3.331   1.923   2.700
  562TCM    cl3 2977   3.508   2.085   2.692
  563TCM     c1 2978   2.644   4.668   0.804
  563TCM    cl1 2979   2.544   4.815   0.826
  563TCM    cl2 2980   2.655   4.627   0.630
  563TCM     h1 2981   2.744   4.686   0.843
  563TCM    cl3 2982   2.569   4.533   0.894
  564TCM     c1 2983   1.642   3.665   0.711
  564TCM    cl1 2984   1.780   3.774   0.747
  564TCM    cl2 2985   1.692   3.545   0.587
  564TCM     h1 2986   1.612   3.613   0.802
  564TCM    cl3 2987   1.504   3.761   0.649
  565TCM     c1 2988   0.076   3.038   0.123
  565TCM    cl1 2989   0.103   3.129   0.275
  565TCM    cl2 2990  -0.097   2.995   0.108
  565TCM     h1 2991   0.106   3.100   0.038
  565TCM    cl3 2992   0.174   2.888   0.124
  566TCM     c1 2993   2.861   4.809   2.925
  566TCM    cl1 2994   2.737   4.907   2.841
  566TCM    cl2 2995   2.977   4.743   2.805
  566TCM     h1 2996   2.914   4.872   2.997
  566TCM    cl3 2997   2.781   4.674   3.012
  567TCM     c1 2998   4.440   3.664   3.443
  567TCM    cl1 2999   4.328   3.538   3.506
  567TCM    cl2 3000   4.344   3.801   3.379
  567TCM     h1 3001   4.504   3.698   3.524
  567TCM    cl3 3002   4.540   3.595   3.311
  568TCM     c1 3003   1.551   0.728   3.026
  568TCM    cl1 3004   1.606   0.845   2.902
  568TCM    cl2 3005   1.514   0.816   3.179
  568TCM     h1 3006   1.461   0.677   2.991
  568TCM    cl3 3007   1.681   0.608   3.056
  569TCM     c1 3008   3.096   2.489   4.363
  569TCM    cl1 3009   3.004   2.641   4.339
  569TCM    cl2 3010   3.002   2.351   4.296
  569TCM     h1 3011   3.192   2.497   4.312
  569TCM    cl3 3012   3.123   2.463   4.538
  570TCM     c1 3013   2.229   3.996   0.672
  570TCM    cl1 3014   2.152   4.127   0.576
  570TCM    cl2 3015   2.389   3.956   0.601
  570TCM     h1 3016   2.241   4.028   0.776
  570TCM    cl3 3017   2.125   3.850   0.666
  571TCM     c1 3018   3.144   1.831   0.112
  571TCM    cl1 3019   3.091   1.977   0.022
  571TCM    cl2 3020   3.124   1.687   0.007
  571TCM     h1 3021   3.249   1.842   0.139
  571TCM    cl3 3022   3.045   1.811   0.260
  572TCM     c1 3023   2.454   1.502   3.576
  572TCM    cl1 3024   2.576   1.576   3.684
  572TCM    cl2 3025   2.322   1.430   3.673
  572TCM     h1 3026   2.412   1.579   3.510
  572TCM    cl3 3027   2.531   1.374   3.476
  573TCM     c1 3028   1.163   0.614   2.477
  573TCM    cl1 3029   1.284   0.574   2.351
  573TCM    cl2 3030   1.034   0.489   2.476
  573TCM     h1 3031   1.212   0.616   2.575
  573TCM    cl3 3032   1.090   0.773   2.442
  574TCM     c1 3033   2.376   4.122   0.064
  574TCM    cl1 3034   2.331   4.067   0.229
  574TCM    cl2 3035   2.286   4.027  -0.058
  574TCM     h1 3036   2.350   4.228   0.053
  574TCM    cl3 3037   2.552   4.101   0.040
  575TCM     c1 3038   2.299   4.318   1.474
  575TCM    cl1 3039   2.216   4.387   1.617
  575TCM    cl2 3040   2.209   4.362   1.325
  575TCM     h1 3041   2.401   4.358   1.468
  575TCM    cl3 3042   2.305   4.139   1.489
  576TCM     c1 3043   0.839   2.282   4.875
  576TCM    cl1 3044   0.729   2.142   4.849
  576TCM    cl2 3045   0.895   2.346   4.717
  576TCM     h1 3046   0.787   2.360   4.931
  576TCM    cl3 3047   0.983   2.227   4.967
  577TCM     c1 3048   1.477   0.975   1.655
  577TCM    cl1 3049   1.463   1.143   1.594
  577TCM    cl2 3050   1.333   0.936   1.756
  577TCM     h1 3051   1.482   0.906   1.571
  577TCM    cl3 3052   1.625   0.959   1.754
  578TCM     c1 3053   0.064   3.527   3.637
  578TCM    cl1 3054  -0.076   3.637   3.614
  578TCM    cl2 3055   0.179   3.548   3.501
  578TCM     h1 3056   0.113   3.550   3.731
  578TCM    cl3 3057   0.007   3.357   3.638
  579TCM     c1 3058   4.894   0.299   3.541
  579TCM    cl1 3059   5.057   0.372   3.555
  579TCM    cl2 3060   4.908   0.120   3.524
  579TCM     h1 3061   4.835   0.322   3.630
  579TCM    cl3 3062   4.812   0.366   3.396
  580TCM     c1 3063   4.142   4.975   3.194
  580TCM    cl1 3064   4.161   4.971   3.372
  580TCM    cl2 3065   4.304   4.984   3.118
  580TCM     h1 3066   4.090   4.885   3.160
  580TCM    cl3 3067   4.046   5.120   3.148
  581TCM     c1 3068   2.983   3.719   1.425
  581TCM    cl1 3069   3.100   3.854   1.426
  581TCM    cl2 3070   3.070   3.564   1.399
  581TCM     h1 3071   2.929   3.716   1.520
  581TCM    cl3 3072   2.866   3.745   1.291
  582TCM     c1 3073   4.379   4.109   3.672
  582TCM    cl1 3074   4.435   4.244   3.777
  582TCM    cl2 3075   4.491   3.970   3.688
  582TCM     h1 3076   4.279   4.079   3.702
  582TCM    cl3 3077   4.378   4.164   3.501
  583TCM     c1 3078   1.016   3.489   0.238
  583TCM    cl1 3079   1.007   3.323   0.306
  583TCM    cl2 3080   0.855   3.541   0.179
  583TCM     h1 3081   1.051   3.558   0.315
  583TCM    cl3 3082   1.133   3.488   0.101
  584TCM     c1 3083   0.277   2.191   4.855
  584TCM    cl1 3084   0.250   2.252   5.021
  584TCM    cl2 3085   0.366   2.035   4.864
  584TCM     h1 3086   0.181   2.175   4.806
  584TCM    cl3 3087   0.374   2.310   4.762
  585TCM     c1 3088   0.950   4.951   2.571
  585TCM    cl1 3089   0.926   5.125   2.608
  585TCM    cl2 3090   1.013   4.936   2.404
  585TCM     h1 3091   1.022   4.908   2.641
  585TCM    cl3 3092   0.793   4.865   2.585
  586TCM     c1 3093   0.779   1.137   4.075
  586TCM    cl1 3094   0.779   1.316   4.055
  586TCM    cl2 3095   0.858   1.061   3.932
  586TCM     h1 3096   0.835   1.111   4.166
  586TCM    cl3 3097   0.611   1.077   4.089
  587TCM     c1 3098   3.621   2.557   4.003
  587TCM    cl1 3099   3.538   2.508   3.852
  587TCM    cl2 3100   3.684   2.412   4.088
  587TCM     h1 3101   3.704   2.625   3.979
  587TCM    cl3 3102   3.504   2.642   4.110
  588TCM     c1 3103   1.900   3.145   4.905
  588TCM    cl1 3104   1.793   3.028   4.822
  588TCM    cl2 3105   1.939   3.084   5.070
  588TCM     h1 3106   1.993   3.157   4.848
  588TCM    cl3 3107   1.817   3.303   4.920
  589TCM     c1 3108   1.156   0.300   0.864
  589TCM    cl1 3109   1.030   0.308   0.736
  589TCM    cl2 3110   1.235   0.460   0.882
  589TCM     h1 3111   1.109   0.271   0.959
  589TCM    cl3 3112   1.278   0.177   0.819
  590TCM     c1 3113   0.391   3.602   0.318
  590TCM    cl1 3114   0.330   3.438   0.278
  590TCM    cl2 3115   0.487   3.597   0.469
  590TCM     h1 3116   0.454   3.638   0.236
  590TCM    cl3 3117   0.251   3.713   0.338
  591TCM     c1 3118   2.989   1.408   3.187
  591TCM    cl1 3119   3.054   1.569   3.141
  591TCM    cl2 3120   2.908   1.335   3.044
  591TCM     h1 3121   3.070   1.344   3.220
  591TCM    cl3 3122   2.871   1.428   3.321
  592TCM     c1 3123   2.604   4.634   0.203
  592TCM    cl1 3124   2.719   4.751   0.132
  592TCM    cl2 3125   2.510   4.556   0.070
  592TCM     h1 3126   2.659   4.558   0.258
  592TCM    cl3 3127   2.490   4.719   0.312
  593TCM     c1 3128   3.328   3.385   3.135
  593TCM    cl1 3129   3.496   3.335   3.175
  593TCM    cl2 3130   3.330   3.556   3.081
  593TCM     h1 3131   3.290   3.321   3.055
  593TCM    cl3 3132   3.225   3.368   3.281
  594TCM     c1 3133   3.033   3.638   0.931
  594TCM    cl1 3134   3.084   3.809   0.952
  594TCM    cl2 3135   2.856   3.624   0.959
  594TCM     h1 3136   3.056   3.605   0.830
  594TCM    cl3 3137   3.121   3.537   1.050
  595TCM     c1 3138   4.392   4.077   0.964
  595TCM    cl1 3139   4.308   4.222   0.901
  595TCM    cl2 3140   4.559   4.121   1.011
  595TCM     h1 3141   4.338   4.038   1.051
  595TCM    cl3 3142   4.398   3.953   0.835
  596TCM     c1 3143   4.466   2.710   0.053
  596TCM    cl1 3144   4.327   2.633   0.137
  596TCM    cl2 3145   4.579   2.777   0.174
  596TCM     h1 3146   4.517   2.634  -0.008
  596TCM    cl3 3147   4.406   2.842  -0.053
  597TCM     c1 3148   2.788   0.983   2.067
  597TCM    cl1 3149   2.654   0.940   2.178
  597TCM    cl2 3150   2.722   1.022   1.905
  597TCM     h1 3151   2.842   1.070   2.107
  597TCM    cl3 3152   2.901   0.844   2.053
  598TCM     c1 3153   3.193   4.215   2.916
  598TCM    cl1 3154   3.082   4.350   2.875
  598TCM    cl2 3155   3.258   4.237   3.082
  598TCM     h1 3156   3.138   4.121   2.911
  598TCM    cl3 3157   3.329   4.211   2.799
  599TCM     c1 3158   3.518   3.517   3.671
  599TCM    cl1 3159   3.694   3.550   3.692
  599TCM    cl2 3160   3.451   3.452   3.824
  599TCM     h1 3161   3.467   3.610   3.645
  599TCM    cl3 3162   3.495   3.397   3.540
  600TCM     c1 3163   3.973   0.033   4.838
  600TCM    cl1 3164   4.067   0.120   4.712
  600TCM    cl2 3165   3.900  -0.114   4.766
  600TCM     h1 3166   4.039   0.005   4.920
  600TCM    cl3 3167   3.843   0.140   4.899
  601TCM     c1 3168   2.991   2.922   3.432
  601TCM    cl1 3169   3.071   3.062   3.511
  601TCM    cl2 3170   3.100   2.780   3.437
  601TCM     h1 3171   2.898   2.898   3.484
  601TCM    cl3 3172   2.955   2.964   3.261
  602TCM     c1 3173   0.509   2.169   1.766
  602TCM    cl1 3174   0.664   2.252   1.800
  602TCM    cl2 3175   0.519   2.087   1.607
  602TCM     h1 3176   0.490   2.094   1.844
  602TCM    cl3 3177   0.375   2.289   1.766
  603TCM     c1 3178   4.964   4.066   3.046
  603TCM    cl1 3179   5.046   4.219   3.087
  603TCM    cl2 3180   5.010   3.941   3.167
  603TCM     h1 3181   4.856   4.080   3.048
  603TCM    cl3 3182   5.015   4.012   2.883
  604TCM     c1 3183   2.157   3.201   1.290
  604TCM    cl1 3184   2.297   3.301   1.240
  604TCM    cl2 3185   2.211   3.032   1.319
  604TCM     h1 3186   2.113   3.241   1.381
  604TCM    cl3 3187   2.035   3.201   1.158
  605TCM     c1 3188   0.142   1.427   2.364
  605TCM    cl1 3189   0.198   1.514   2.218
  605TCM    cl2 3190   0.256   1.454   2.499
  605TCM     h1 3191   0.042   1.462   2.392
  605TCM    cl3 3192   0.135   1.251   2.331
  606TCM     c1 3193   3.746   2.997   3.730
  606TCM    cl1 3194   3.660   2.906   3.859
  606TCM    cl2 3195   3.923   2.977   3.751
  606TCM     h1 3196   3.717   2.959   3.632
  606TCM    cl3 3197   3.704   3.171   3.742
  607TCM     c1 3198   1.716   3.174   3.518
  607TCM    cl1 3199   1.729   3.268   3.366
  607TCM    cl2 3200   1.733   2.999   3.482
  607TCM     h1 3201   1.795   3.205   3.588
  607TCM    cl3 3202   1.556   3.202   3.593
  608TCM     c1 3203   2.356   3.071   2.525
  608TCM    cl1 3204   2.439   2.913   2.540
  608TCM    cl2 3205   2.467   3.192   2.452
  608TCM     h1 3206   2.267   3.060   2.462
  608TCM    cl3 3207   2.309   3.128   2.688
  609TCM     c1 3208   1.707   2.676   0.066
  609TCM    cl1 3209   1.688   2.499   0.091
  609TCM    cl2 3210   1.612   2.726  -0.077
  609TCM     h1 3211   1.672   2.729   0.155
  609TCM    cl3 3212   1.880   2.713   0.038
  610TCM     c1 3213   4.638   0.604   2.690
  610TCM    cl1 3214   4.669   0.428   2.676
  610TCM    cl2 3215   4.623   0.676   2.526
  610TCM     h1 3216   4.546   0.621   2.746
  610TCM    cl3 3217   4.775   0.681   2.777
  611TCM     c1 3218   0.118   2.117   1.104
  611TCM    cl1 3219   0.093   2.204   0.948
  611TCM    cl2 3220  -0.029   2.132   1.205
  611TCM     h1 3221   0.139   2.012   1.084
  611TCM    cl3 3222   0.257   2.190   1.190
  612TCM     c1 3223   3.151   3.647   0.201
  612TCM    cl1 3224   3.194   3.476   0.164
  612TCM    cl2 3225   3.100   3.731   0.052
  612TCM     h1 3226   3.070   3.648   0.274
  612TCM    cl3 3227   3.293   3.731   0.271
  613TCM     c1 3228   2.704   3.850   3.521
  613TCM    cl1 3229   2.743   3.940   3.671
  613TCM    cl2 3230   2.786   3.928   3.382
  613TCM     h1 3231   2.738   3.746   3.530
  613TCM    cl3 3232   2.527   3.851   3.496
  614TCM     c1 3233   1.975   4.419   1.889
  614TCM    cl1 3234   2.078   4.285   1.951
  614TCM    cl2 3235   1.928   4.525   2.026
  614TCM     h1 3236   2.030   4.476   1.815
  614TCM    cl3 3237   1.827   4.351   1.813
  615TCM     c1 3238   1.232   1.719   0.527
  615TCM    cl1 3239   1.223   1.597   0.658
  615TCM    cl2 3240   1.226   1.884   0.598
  615TCM     h1 3241   1.324   1.707   0.470
  615TCM    cl3 3242   1.090   1.698   0.418
  616TCM     c1 3243   0.326   2.450   4.404
  616TCM    cl1 3244   0.344   2.623   4.363
  616TCM    cl2 3245   0.340   2.351   4.255
  616TCM     h1 3246   0.403   2.421   4.475
  616TCM    cl3 3247   0.165   2.422   4.479
  617TCM     c1 3248   0.605   1.369   4.434
  617TCM    cl1 3249   0.668   1.520   4.359
  617TCM    cl2 3250   0.732   1.242   4.428
  617TCM     h1 3251   0.578   1.389   4.538
  617TCM    cl3 3252   0.460   1.313   4.345
  618TCM     c1 3253   0.214   2.569   0.651
  618TCM    cl1 3254   0.188   2.553   0.828
  618TCM    cl2 3255   0.298   2.423   0.590
  618TCM     h1 3256   0.117   2.579   0.601
  618TCM    cl3 3257   0.315   2.714   0.618
  619TCM     c1 3258   2.065   4.088   4.618
  619TCM    cl1 3259   2.037   3.917   4.663
  619TCM    cl2 3260   1.988   4.195   4.741
  619TCM     h1 3261   2.172   4.108   4.614
  619TCM    cl3 3262   1.991   4.120   4.457
  620TCM     c1 3263   2.956   3.251   3.037
  620TCM    cl1 3264   2.785   3.214   2.995
  620TCM    cl2 3265   2.990   3.422   2.997
  620TCM     h1 3266   2.972   3.235   3.144
  620TCM    cl3 3267   3.067   3.145   2.944
  621TCM     c1 3268   2.820   4.100   0.347
  621TCM    cl1 3269   2.681   3.989   0.372
  621TCM    cl2 3270   2.959   4.008   0.280
  621TCM     h1 3271   2.791   4.179   0.277
  621TCM    cl3 3272   2.866   4.174   0.503
  622TCM     c1 3273   3.374   4.306   0.241
  622TCM    cl1 3274   3.477   4.337   0.097
  622TCM    cl2 3275   3.472   4.320   0.391
  622TCM     h1 3276   3.293   4.379   0.244
  622TCM    cl3 3277   3.305   4.140   0.232
  623TCM     c1 3278   2.193   3.522   0.763
  623TCM    cl1 3279   2.346   3.537   0.670
  623TCM    cl2 3280   2.210   3.389   0.883
  623TCM     h1 3281   2.172   3.615   0.815
  623TCM    cl3 3282   2.058   3.485   0.651
  624TCM     c1 3283   3.867   3.471   3.378
  624TCM    cl1 3284   3.850   3.435   3.203
  624TCM    cl2 3285   3.946   3.631   3.400
  624TCM     h1 3286   3.768   3.472   3.425
  624TCM    cl3 3287   3.967   3.344   3.456
  625TCM     c1 3288   0.233   4.666   4.196
  625TCM    cl1 3289   0.057   4.635   4.216
  625TCM    cl2 3290   0.277   4.816   4.285
  625TCM     h1 3291   0.289   4.581   4.236
  625TCM    cl3 3292   0.270   4.687   4.022
  626TCM     c1 3293   3.760   0.194   3.339
  626TCM    cl1 3294   3.859   0.139   3.478
  626TCM    cl2 3295   3.622   0.289   3.401
  626TCM     h1 3296   3.821   0.257   3.273
  626TCM    cl3 3297   3.701   0.052   3.247
  627TCM     c1 3298   2.257   2.500   3.199
  627TCM    cl1 3299   2.396   2.564   3.293
  627TCM    cl2 3300   2.121   2.464   3.311
  627TCM     h1 3301   2.226   2.574   3.125
  627TCM    cl3 3302   2.306   2.348   3.116
  628TCM     c1 3303   4.772   4.414   2.873
  628TCM    cl1 3304   4.826   4.507   3.017
  628TCM    cl2 3305   4.689   4.265   2.926
  628TCM     h1 3306   4.704   4.475   2.813
  628TCM    cl3 3307   4.915   4.371   2.773
  629TCM     c1 3308   2.310   0.752   1.931
  629TCM    cl1 3309   2.132   0.750   1.906
  629TCM    cl2 3310   2.351   0.654   2.076
  629TCM     h1 3311   2.360   0.709   1.843
  629TCM    cl3 3312   2.364   0.921   1.955
  630TCM     c1 3313   0.169   2.384   3.033
  630TCM    cl1 3314   0.127   2.515   2.918
  630TCM    cl2 3315   0.181   2.228   2.946
  630TCM     h1 3316   0.265   2.407   3.080
  630TCM    cl3 3317   0.042   2.373   3.160
  631TCM     c1 3318   1.148   3.841   0.612
  631TCM    cl1 3319   1.024   3.760   0.510
  631TCM    cl2 3320   1.146   3.767   0.775
  631TCM     h1 3321   1.247   3.830   0.567
  631TCM    cl3 3322   1.107   4.015   0.626
  632TCM     c1 3323   2.542   2.881   0.577
  632TCM    cl1 3324   2.567   3.022   0.468
  632TCM    cl2 3325   2.369   2.835   0.576
  632TCM     h1 3326   2.603   2.796   0.542
  632TCM    cl3 3327   2.592   2.925   0.743
  633TCM     c1 3328   0.344   0.145   0.874
  633TCM    cl1 3329   0.360   0.009   0.758
  633TCM    cl2 3330   0.247   0.094   1.015
  633TCM     h1 3331   0.444   0.176   0.907
  633TCM    cl3 3332   0.262   0.282   0.792
  634TCM     c1 3333   4.866   2.068   3.027
  634TCM    cl1 3334   4.718   2.125   3.112
  634TCM    cl2 3335   4.838   2.071   2.850
  634TCM     h1 3336   4.949   2.134   3.052
  634TCM    cl3 3337   4.903   1.901   3.077
  635TCM     c1 3338   2.466   0.639   3.309
  635TCM    cl1 3339   2.525   0.470   3.320
  635TCM    cl2 3340   2.603   0.753   3.336
  635TCM     h1 3341   2.423   0.657   3.210
  635TCM    cl3 3342   2.340   0.666   3.434
  636TCM     c1 3343   0.187   0.821   2.140
  636TCM    cl1 3344   0.258   0.986   2.137
  636TCM    cl2 3345   0.209   0.745   1.980
  636TCM     h1 3346   0.237   0.761   2.217
  636TCM    cl3 3347   0.012   0.833   2.179
  637TCM     c1 3348   3.901   0.223   4.373
  637TCM    cl1 3349   3.774   0.210   4.500
  637TCM    cl2 3350   3.825   0.283   4.221
  637TCM     h1 3351   3.978   0.293   4.405
  637TCM    cl3 3352   3.974   0.061   4.345
  638TCM     c1 3353   0.027   0.791   4.867
  638TCM    cl1 3354   0.102   0.752   4.708
  638TCM    cl2 3355   0.155   0.813   4.990
  638TCM     h1 3356  -0.033   0.882   4.858
  638TCM    cl3 3357  -0.080   0.655   4.915
  639TCM     c1 3358   2.570   0.481   1.405
  639TCM    cl1 3359   2.704   0.598   1.418
  639TCM    cl2 3360   2.496   0.458   1.567
  639TCM     h1 3361   2.495   0.519   1.335
  639TCM    cl3 3362   2.634   0.324   1.346
  640TCM     c1 3363   2.056   0.985   3.711
  640TCM    cl1 3364   2.143   1.108   3.809
  640TCM    cl2 3365   2.149   0.832   3.708
  640TCM     h1 3366   1.958   0.967   3.756
  640TCM    cl3 3367   2.036   1.046   3.544
   5.00000   5.00000   5.00000
