FOO
 3367
    1POP     C1    1   3.421   4.461   0.206
    1POP     O2    2   3.319   4.414   0.157
    1POP     C3    3   3.551   4.399   0.171
    1POP     C4    4   3.666   4.480   0.153
    1POP     C5    5   3.790   4.422   0.123
    1POP     C6    6   3.803   4.282   0.112
    1POP     C7    7   3.936   4.221   0.080
    1POP     C8    8   3.989   4.109   0.150
    1POP     C9    9   4.112   4.053   0.108
    1POP    C10   10   4.184   4.106  -0.000
    1POP    O11   11   4.305   4.045  -0.032
    1POP    C12   12   4.379   4.096  -0.146
    1POP    C13   13   4.132   4.219  -0.069
    1POP    C14   14   4.009   4.275  -0.029
    1POP    C15   15   3.924   4.051   0.272
    1POP    C16   16   3.911   3.910   0.284
    1POP    C17   17   3.859   3.853   0.402
    1POP    C18   18   3.822   3.935   0.511
    1POP    C19   19   3.833   4.075   0.498
    1POP    C20   20   3.883   4.133   0.379
    1POP    C21   21   3.770   3.874   0.642
    1POP    N22   22   3.635   3.822   0.618
    1POP    C23   23   3.862   3.762   0.694
    1POP    C24   24   3.689   4.201   0.129
    1POP    C25   25   3.564   4.259   0.159
    1POP    H26   26   3.658   4.588   0.163
    1POP    H27   27   3.877   4.486   0.110
    1POP    H28   28   4.155   3.969   0.161
    1POP    H29   29   4.470   4.035  -0.157
    1POP    H30   30   4.408   4.199  -0.128
    1POP    H31   31   4.319   4.087  -0.236
    1POP    H32   32   4.183   4.263  -0.154
    1POP    H33   33   3.969   4.359  -0.086
    1POP    H34   34   3.942   3.846   0.202
    1POP    H35   35   3.851   3.745   0.408
    1POP    H36   36   3.803   4.140   0.580
    1POP    H37   37   3.892   4.241   0.372
    1POP    H38   38   3.767   3.953   0.718
    1POP    H39   39   3.606   3.804   0.522
    1POP    H40   40   3.826   3.729   0.791
    1POP    H41   41   3.964   3.801   0.704
    1POP    H42   42   3.861   3.677   0.625
    1POP    H43   43   3.697   4.093   0.119
    1POP    H44   44   3.476   4.195   0.172
    2POP    C45   45   3.539   3.806   0.716
    2POP    O46   46   3.566   3.834   0.832
    2POP    C47   47   3.398   3.779   0.679
    2POP    C48   48   3.343   3.832   0.560
    2POP    C49   49   3.206   3.817   0.531
    2POP    C50   50   3.120   3.749   0.621
    2POP    C51   51   2.972   3.748   0.596
    2POP    C52   52   2.886   3.638   0.628
    2POP    C53   53   2.747   3.653   0.612
    2POP    C54   54   2.690   3.770   0.560
    2POP    O55   55   2.551   3.773   0.545
    2POP    C56   56   2.491   3.895   0.495
    2POP    C57   57   2.775   3.877   0.524
    2POP    C58   58   2.914   3.866   0.542
    2POP    C59   59   2.936   3.505   0.672
    2POP    C60   60   2.872   3.438   0.779
    2POP    C61   61   2.911   3.308   0.816
    2POP    C62   62   3.015   3.241   0.747
    2POP    C63   63   3.081   3.309   0.642
    2POP    C64   64   3.041   3.439   0.604
    2POP    C65   65   3.057   3.097   0.780
    2POP    N66   66   3.197   3.099   0.825
    2POP    C67   67   2.973   3.031   0.892
    2POP    C68   68   3.176   3.693   0.739
    2POP    C69   69   3.313   3.707   0.767
    2POP    H70   70   3.405   3.890   0.492
    2POP    H71   71   3.167   3.860   0.440
    2POP    H72   72   2.680   3.571   0.636
    2POP    H73   73   2.384   3.879   0.486
    2POP    H74   74   2.532   3.918   0.396
    2POP    H75   75   2.510   3.977   0.565
    2POP    H76   76   2.736   3.970   0.484
    2POP    H77   77   2.976   3.952   0.517
    2POP    H78   78   2.791   3.486   0.833
    2POP    H79   79   2.858   3.261   0.898
    2POP    H80   80   3.161   3.260   0.588
    2POP    H81   81   3.090   3.488   0.521
    2POP    H82   82   3.045   3.037   0.689
    2POP    H83   83   3.220   3.156   0.906
    2POP    H84   84   3.008   2.928   0.906
    2POP    H85   85   2.868   3.028   0.863
    2POP    H86   86   2.986   3.086   0.986
    2POP    H87   87   3.112   3.643   0.811
    2POP    H88   88   3.353   3.665   0.860
    3POP    C89   89   3.293   3.007   0.788
    3POP    O90   90   3.266   2.920   0.706
    3POP    C91   91   3.425   3.008   0.855
    3POP    C92   92   3.489   3.129   0.890
    3POP    C93   93   3.611   3.127   0.960
    3POP    C94   94   3.671   3.004   0.997
    3POP    C95   95   3.803   3.002   1.066
    3POP    C96   96   3.830   2.917   1.177
    3POP    C97   97   3.961   2.911   1.229
    3POP    C98   98   4.065   2.989   1.177
    3POP    O99   99   4.188   2.980   1.240
    3POP   C100  100   4.295   3.066   1.192
    3POP   C101  101   4.038   3.074   1.067
    3POP   C102  102   3.908   3.080   1.012
    3POP   C103  103   3.724   2.840   1.247
    3POP   C104  104   3.737   2.700   1.264
    3POP   C105  105   3.642   2.629   1.339
    3POP   C106  106   3.535   2.696   1.403
    3POP   C107  107   3.521   2.836   1.384
    3POP   C108  108   3.614   2.907   1.305
    3POP   C109  109   3.436   2.621   1.492
    3POP   N110  110   3.358   2.531   1.406
    3POP   C111  111   3.509   2.541   1.602
    3POP   C112  112   3.608   2.883   0.959
    3POP   C113  113   3.487   2.885   0.889
    3POP   H114  114   3.444   3.225   0.863
    3POP   H115  115   3.659   3.222   0.986
    3POP   H116  116   3.982   2.848   1.315
    3POP   H117  117   4.383   3.048   1.254
    3POP   H118  118   4.265   3.171   1.202
    3POP   H119  119   4.319   3.041   1.088
    3POP   H120  120   4.115   3.136   1.022
    3POP   H121  121   3.890   3.144   0.926
    3POP   H122  122   3.821   2.648   1.218
    3POP   H123  123   3.653   2.521   1.350
    3POP   H124  124   3.439   2.890   1.432
    3POP   H125  125   3.603   3.014   1.293
    3POP   H126  126   3.369   2.693   1.540
    3POP   H127  127   3.402   2.492   1.324
    3POP   H128  128   3.436   2.498   1.670
    3POP   H129  129   3.574   2.609   1.658
    3POP   H130  130   3.569   2.461   1.557
    3POP   H131  131   3.655   2.788   0.983
    3POP   H132  132   3.439   2.791   0.860
    4POP   C133  133   3.233   2.483   1.438
    4POP   O134  134   3.192   2.495   1.553
    4POP   C135  135   3.156   2.401   1.340
    4POP   C136  136   3.177   2.418   1.201
    4POP   C137  137   3.099   2.346   1.108
    4POP   C138  138   3.002   2.254   1.153
    4POP   C139  139   2.915   2.184   1.054
    4POP   C140  140   2.893   2.043   1.055
    4POP   C141  141   2.798   1.988   0.966
    4POP   C142  142   2.724   2.069   0.877
    4POP   O143  143   2.633   2.006   0.793
    4POP   C144  144   2.542   2.089   0.718
    4POP   C145  145   2.748   2.209   0.875
    4POP   C146  146   2.843   2.265   0.963
    4POP   C147  147   2.971   1.947   1.141
    4POP   C148  148   2.908   1.833   1.196
    4POP   C149  149   2.983   1.735   1.264
    4POP   C150  150   3.122   1.750   1.281
    4POP   C151  151   3.185   1.865   1.230
    4POP   C152  152   3.111   1.963   1.161
    4POP   C153  153   3.207   1.638   1.344
    4POP   N154  154   3.143   1.585   1.466
    4POP   C155  155   3.222   1.525   1.241
    4POP   C156  156   2.981   2.236   1.291
    4POP   C157  157   3.057   2.310   1.384
    4POP   H158  158   3.250   2.489   1.164
    4POP   H159  159   3.114   2.362   1.002
    4POP   H160  160   2.780   1.882   0.963
    4POP   H161  161   2.474   2.024   0.661
    4POP   H162  162   2.597   2.152   0.647
    4POP   H163  163   2.483   2.151   0.786
    4POP   H164  164   2.694   2.276   0.809
    4POP   H165  165   2.857   2.373   0.964
    4POP   H166  166   2.801   1.818   1.183
    4POP   H167  167   2.932   1.645   1.300
    4POP   H168  168   3.293   1.879   1.241
    4POP   H169  169   3.163   2.048   1.118
    4POP   H170  170   3.306   1.678   1.368
    4POP   H171  171   3.045   1.557   1.464
    4POP   H172  172   3.285   1.446   1.285
    4POP   H173  173   3.270   1.564   1.151
    4POP   H174  174   3.124   1.483   1.216
    4POP   H175  175   2.904   2.168   1.326
    4POP   H176  176   3.037   2.297   1.491
    5CAP   C177  177   3.293   4.623   0.328
    5CAP   O178  178   3.423   4.567   0.293
    5CAP   H179  179   3.234   4.549   0.382
    5CAP   H180  180   3.240   4.655   0.238
    5CAP   H181  181   3.310   4.709   0.393
    6CAP   C182  182   3.068   1.467   1.908
    6CAP   C183  183   3.188   1.468   1.810
    6CAP   C184  184   3.294   1.566   1.868
    6CAP   C185  185   3.243   1.323   1.803
    6CAP   O186  186   3.128   1.507   1.683
    6CAP   C187  187   3.209   1.545   1.579
    6CAP   O188  188   3.330   1.529   1.572
    6CAP   H189  189   3.101   1.434   2.007
    6CAP   H190  190   3.027   1.567   1.915
    6CAP   H191  191   2.992   1.398   1.871
    6CAP   H192  192   3.257   1.669   1.858
    6CAP   H193  193   3.389   1.555   1.815
    6CAP   H194  194   3.311   1.543   1.973
    6CAP   H195  195   3.165   1.256   1.766
    6CAP   H196  196   3.330   1.320   1.737
    6CAP   H197  197   3.273   1.291   1.903
    7TCM     c1  198   4.192   0.369   2.705
    7TCM    cl1  199   4.304   0.358   2.566
    7TCM    cl2  200   4.032   0.429   2.648
    7TCM     h1  201   4.180   0.271   2.750
    7TCM    cl3  202   4.259   0.483   2.826
    8TCM     c1  203   1.338   2.378   4.407
    8TCM    cl1  204   1.232   2.258   4.328
    8TCM    cl2  205   1.284   2.544   4.364
    8TCM     h1  206   1.333   2.365   4.516
    8TCM    cl3  207   1.508   2.355   4.352
    9TCM     c1  208   1.414   2.091   0.703
    9TCM    cl1  209   1.362   2.012   0.856
    9TCM    cl2  210   1.497   1.971   0.599
    9TCM     h1  211   1.326   2.130   0.650
    9TCM    cl3  212   1.526   2.226   0.740
   10TCM     c1  213   2.752   0.337   3.734
   10TCM    cl1  214   2.757   0.177   3.652
   10TCM    cl2  215   2.775   0.313   3.910
   10TCM     h1  216   2.831   0.402   3.695
   10TCM    cl3  217   2.591   0.413   3.706
   11TCM     c1  218   1.952   1.440   2.862
   11TCM    cl1  219   1.855   1.586   2.901
   11TCM    cl2  220   1.990   1.354   3.015
   11TCM     h1  221   1.894   1.374   2.796
   11TCM    cl3  222   2.104   1.488   2.781
   12TCM     c1  223   4.859   1.143   0.001
   12TCM    cl1  224   4.899   1.258  -0.131
   12TCM    cl2  225   4.941   1.196   0.152
   12TCM     h1  226   4.751   1.142   0.017
   12TCM    cl3  227   4.915   0.979  -0.044
   13TCM     c1  228   2.540   0.698   2.590
   13TCM    cl1  229   2.557   0.876   2.571
   13TCM    cl2  230   2.397   0.641   2.499
   13TCM     h1  231   2.629   0.649   2.552
   13TCM    cl3  232   2.520   0.659   2.764
   14TCM     c1  233   3.461   3.890   4.541
   14TCM    cl1  234   3.440   4.052   4.465
   14TCM    cl2  235   3.346   3.875   4.678
   14TCM     h1  236   3.441   3.812   4.467
   14TCM    cl3  237   3.629   3.876   4.602
   15TCM     c1  238   0.201   3.973   3.506
   15TCM    cl1  239   0.162   3.883   3.657
   15TCM    cl2  240   0.272   3.861   3.385
   15TCM     h1  241   0.110   4.017   3.466
   15TCM    cl3  242   0.319   4.103   3.544
   16TCM     c1  243   3.787   1.093   2.639
   16TCM    cl1  244   3.946   1.168   2.676
   16TCM    cl2  245   3.812   0.956   2.526
   16TCM     h1  246   3.742   1.056   2.731
   16TCM    cl3  247   3.681   1.214   2.562
   17TCM     c1  248   4.863   2.817   4.352
   17TCM    cl1  249   4.770   2.885   4.491
   17TCM    cl2  250   4.977   2.693   4.413
   17TCM     h1  251   4.794   2.772   4.281
   17TCM    cl3  252   4.955   2.949   4.272
   18TCM     c1  253   0.353   2.541   1.376
   18TCM    cl1  254   0.213   2.548   1.488
   18TCM    cl2  255   0.295   2.530   1.207
   18TCM     h1  256   0.413   2.632   1.389
   18TCM    cl3  257   0.453   2.397   1.414
   19TCM     c1  258   1.096   1.747   2.226
   19TCM    cl1  259   0.955   1.684   2.318
   19TCM    cl2  260   1.080   1.702   2.054
   19TCM     h1  261   1.101   1.856   2.236
   19TCM    cl3  262   1.247   1.675   2.292
   20TCM     c1  263   4.233   4.084   0.461
   20TCM    cl1  264   4.212   4.159   0.623
   20TCM    cl2  265   4.231   3.905   0.479
   20TCM     h1  266   4.152   4.116   0.396
   20TCM    cl3  267   4.390   4.135   0.392
   21TCM     c1  268   2.386   0.042   3.879
   21TCM    cl1  269   2.549  -0.005   3.935
   21TCM    cl2  270   2.269  -0.090   3.909
   21TCM     h1  271   2.353   0.132   3.932
   21TCM    cl3  272   2.391   0.078   3.703
   22TCM     c1  273   2.792   1.748   2.846
   22TCM    cl1  274   2.797   1.570   2.866
   22TCM    cl2  275   2.628   1.798   2.793
   22TCM     h1  276   2.815   1.796   2.941
   22TCM    cl3  277   2.912   1.797   2.722
   23TCM     c1  278   0.637   2.951   4.831
   23TCM    cl1  279   0.811   2.924   4.864
   23TCM    cl2  280   0.580   2.833   4.708
   23TCM     h1  281   0.580   2.937   4.923
   23TCM    cl3  282   0.615   3.118   4.770
   24TCM     c1  283   4.346   3.274   2.143
   24TCM    cl1  284   4.177   3.332   2.157
   24TCM    cl2  285   4.344   3.101   2.095
   24TCM     h1  286   4.399   3.332   2.068
   24TCM    cl3  287   4.427   3.291   2.303
   25TCM     c1  288   0.127   3.675   4.662
   25TCM    cl1  289  -0.005   3.559   4.626
   25TCM    cl2  290   0.061   3.842   4.659
   25TCM     h1  291   0.169   3.655   4.761
   25TCM    cl3  292   0.255   3.660   4.537
   26TCM     c1  293   2.251   1.044   3.191
   26TCM    cl1  294   2.311   1.198   3.123
   26TCM    cl2  295   2.321   0.906   3.099
   26TCM     h1  296   2.281   1.036   3.296
   26TCM    cl3  297   2.072   1.038   3.180
   27TCM     c1  298   1.124   1.936   2.621
   27TCM    cl1  299   1.254   1.813   2.630
   27TCM    cl2  300   0.965   1.854   2.640
   27TCM     h1  301   1.137   2.010   2.700
   27TCM    cl3  302   1.129   2.017   2.461
   28TCM     c1  303   3.306   4.236   4.857
   28TCM    cl1  304   3.476   4.182   4.841
   28TCM    cl2  305   3.210   4.104   4.931
   28TCM     h1  306   3.300   4.325   4.919
   28TCM    cl3  307   3.242   4.272   4.693
   29TCM     c1  308   2.622   2.276   1.651
   29TCM    cl1  309   2.457   2.275   1.579
   29TCM    cl2  310   2.615   2.356   1.812
   29TCM     h1  311   2.658   2.174   1.663
   29TCM    cl3  312   2.732   2.368   1.544
   30TCM     c1  313   2.750   2.154   0.039
   30TCM    cl1  314   2.725   1.997   0.121
   30TCM    cl2  315   2.835   2.268   0.150
   30TCM     h1  316   2.811   2.139  -0.050
   30TCM    cl3  317   2.591   2.224  -0.007
   31TCM     c1  318   0.010   4.768   1.180
   31TCM    cl1  319  -0.108   4.634   1.189
   31TCM    cl2  320   0.141   4.741   1.300
   31TCM     h1  321   0.054   4.772   1.080
   31TCM    cl3  322  -0.072   4.924   1.215
   32TCM     c1  323   2.965   0.782   1.157
   32TCM    cl1  324   2.809   0.693   1.175
   32TCM    cl2  325   2.944   0.950   1.215
   32TCM     h1  326   3.042   0.732   1.216
   32TCM    cl3  327   3.013   0.785   0.984
   33TCM     c1  328   3.601   3.033   1.702
   33TCM    cl1  329   3.754   2.964   1.637
   33TCM    cl2  330   3.487   2.899   1.737
   33TCM     h1  331   3.621   3.089   1.794
   33TCM    cl3  332   3.529   3.143   1.579
   34TCM     c1  333   0.967   0.930   3.534
   34TCM    cl1  334   0.840   0.946   3.408
   34TCM    cl2  335   0.942   1.054   3.661
   34TCM     h1  336   0.961   0.830   3.578
   34TCM    cl3  337   1.129   0.951   3.459
   35TCM     c1  338   0.649   0.228   3.799
   35TCM    cl1  339   0.654   0.267   3.974
   35TCM    cl2  340   0.748   0.081   3.770
   35TCM     h1  341   0.546   0.210   3.768
   35TCM    cl3  342   0.718   0.365   3.706
   36TCM     c1  343   2.641   3.517   3.230
   36TCM    cl1  344   2.591   3.346   3.211
   36TCM    cl2  345   2.820   3.529   3.223
   36TCM     h1  346   2.598   3.577   3.149
   36TCM    cl3  347   2.585   3.579   3.388
   37TCM     c1  348   0.220   0.841   2.430
   37TCM    cl1  349   0.106   0.733   2.516
   37TCM    cl2  350   0.306   0.749   2.303
   37TCM     h1  351   0.165   0.924   2.385
   37TCM    cl3  352   0.340   0.906   2.548
   38TCM     c1  353   4.788   1.866   2.030
   38TCM    cl1  354   4.923   1.835   2.145
   38TCM    cl2  355   4.812   2.025   1.951
   38TCM     h1  356   4.785   1.787   1.954
   38TCM    cl3  357   4.632   1.867   2.120
   39TCM     c1  358   1.201   3.390   2.138
   39TCM    cl1  359   1.234   3.277   2.274
   39TCM    cl2  360   1.155   3.296   1.993
   39TCM     h1  361   1.119   3.457   2.166
   39TCM    cl3  362   1.348   3.487   2.103
   40TCM     c1  363   3.649   1.416   2.067
   40TCM    cl1  364   3.571   1.313   1.943
   40TCM    cl2  365   3.552   1.413   2.217
   40TCM     h1  366   3.750   1.378   2.087
   40TCM    cl3  367   3.659   1.584   2.005
   41TCM     c1  368   0.779   1.892   2.028
   41TCM    cl1  369   0.869   2.011   2.127
   41TCM    cl2  370   0.688   1.977   1.899
   41TCM     h1  371   0.849   1.821   1.982
   41TCM    cl3  372   0.665   1.803   2.133
   42TCM     c1  373   2.126   3.582   1.725
   42TCM    cl1  374   2.271   3.505   1.652
   42TCM    cl2  375   1.993   3.583   1.605
   42TCM     h1  376   2.095   3.525   1.814
   42TCM    cl3  377   2.165   3.751   1.771
   43TCM     c1  378   0.723   4.409   0.969
   43TCM    cl1  379   0.624   4.355   0.829
   43TCM    cl2  380   0.897   4.387   0.931
   43TCM     h1  381   0.703   4.515   0.989
   43TCM    cl3  382   0.681   4.312   1.114
   44TCM     c1  383   0.226   0.992   4.537
   44TCM    cl1  384   0.112   0.858   4.499
   44TCM    cl2  385   0.198   1.048   4.705
   44TCM     h1  386   0.329   0.956   4.526
   44TCM    cl3  387   0.197   1.128   4.423
   45TCM     c1  388   1.263   3.666   4.637
   45TCM    cl1  389   1.374   3.800   4.593
   45TCM    cl2  390   1.350   3.544   4.735
   45TCM     h1  391   1.179   3.706   4.694
   45TCM    cl3  392   1.202   3.588   4.487
   46TCM     c1  393   0.200   0.319   4.618
   46TCM    cl1  394   0.370   0.299   4.672
   46TCM    cl2  395   0.138   0.159   4.565
   46TCM     h1  396   0.139   0.356   4.700
   46TCM    cl3  397   0.193   0.434   4.481
   47TCM     c1  398   1.050   4.046   1.726
   47TCM    cl1  399   0.902   4.027   1.825
   47TCM    cl2  400   1.044   3.931   1.588
   47TCM     h1  401   1.057   4.148   1.688
   47TCM    cl3  402   1.194   4.009   1.827
   48TCM     c1  403   3.456   3.853   0.038
   48TCM    cl1  404   3.620   3.835  -0.032
   48TCM    cl2  405   3.470   3.902   0.210
   48TCM     h1  406   3.400   3.928  -0.018
   48TCM    cl3  407   3.370   3.695   0.030
   49TCM     c1  408   1.182   1.439   1.314
   49TCM    cl1  409   1.040   1.422   1.423
   49TCM    cl2  410   1.285   1.575   1.371
   49TCM     h1  411   1.241   1.347   1.316
   49TCM    cl3  412   1.126   1.471   1.147
   50TCM     c1  413   3.142   0.557   2.225
   50TCM    cl1  414   2.976   0.562   2.157
   50TCM    cl2  415   3.163   0.403   2.315
   50TCM     h1  416   3.215   0.562   2.144
   50TCM    cl3  417   3.164   0.697   2.335
   51TCM     c1  418   4.953   0.371   1.800
   51TCM    cl1  419   4.851   0.398   1.944
   51TCM    cl2  420   5.123   0.346   1.852
   51TCM     h1  421   4.918   0.283   1.745
   51TCM    cl3  422   4.946   0.515   1.692
   52TCM     c1  423   3.550   2.442   0.853
   52TCM    cl1  424   3.667   2.307   0.873
   52TCM    cl2  425   3.627   2.573   0.759
   52TCM     h1  426   3.461   2.406   0.800
   52TCM    cl3  427   3.503   2.504   1.015
   53TCM     c1  428   3.831   4.734   0.534
   53TCM    cl1  429   3.884   4.666   0.377
   53TCM    cl2  430   3.695   4.848   0.507
   53TCM     h1  431   3.797   4.653   0.600
   53TCM    cl3  432   3.967   4.820   0.612
   54TCM     c1  433   4.844   1.603   3.234
   54TCM    cl1  434   4.682   1.669   3.191
   54TCM    cl2  435   4.846   1.427   3.201
   54TCM     h1  436   4.920   1.653   3.174
   54TCM    cl3  437   4.875   1.631   3.408
   55TCM     c1  438   1.940   3.352   2.414
   55TCM    cl1  439   2.039   3.379   2.266
   55TCM    cl2  440   1.860   3.506   2.461
   55TCM     h1  441   1.864   3.276   2.393
   55TCM    cl3  442   2.046   3.297   2.547
   56TCM     c1  443   0.272   4.835   4.703
   56TCM    cl1  444   0.227   4.951   4.833
   56TCM    cl2  445   0.327   4.682   4.777
   56TCM     h1  446   0.185   4.817   4.640
   56TCM    cl3  447   0.405   4.905   4.605
   57TCM     c1  448   4.487   0.345   4.541
   57TCM    cl1  449   4.471   0.498   4.634
   57TCM    cl2  450   4.331   0.257   4.546
   57TCM     h1  451   4.514   0.367   4.437
   57TCM    cl3  452   4.614   0.243   4.616
   58TCM     c1  453   3.756   4.116   1.237
   58TCM    cl1  454   3.798   4.035   1.083
   58TCM    cl2  455   3.861   4.053   1.368
   58TCM     h1  456   3.769   4.224   1.227
   58TCM    cl3  457   3.585   4.081   1.279
   59TCM     c1  458   4.432   4.365   4.494
   59TCM    cl1  459   4.271   4.307   4.548
   59TCM    cl2  460   4.559   4.287   4.593
   59TCM     h1  461   4.447   4.339   4.388
   59TCM    cl3  462   4.441   4.543   4.514
   60TCM     c1  463   3.743   3.929   1.688
   60TCM    cl1  464   3.582   3.905   1.613
   60TCM    cl2  465   3.771   3.800   1.810
   60TCM     h1  466   3.821   3.924   1.612
   60TCM    cl3  467   3.749   4.089   1.769
   61TCM     c1  468   3.502   3.831   3.421
   61TCM    cl1  469   3.500   3.664   3.487
   61TCM    cl2  470   3.588   3.937   3.537
   61TCM     h1  471   3.553   3.832   3.325
   61TCM    cl3  472   3.333   3.888   3.400
   62TCM     c1  473   0.507   0.666   3.279
   62TCM    cl1  474   0.543   0.832   3.222
   62TCM    cl2  475   0.336   0.658   3.331
   62TCM     h1  476   0.524   0.595   3.198
   62TCM    cl3  477   0.613   0.626   3.418
   63TCM     c1  478   3.015   2.264   2.650
   63TCM    cl1  479   3.000   2.434   2.708
   63TCM    cl2  480   2.970   2.258   2.477
   63TCM     h1  481   3.118   2.230   2.664
   63TCM    cl3  482   2.904   2.159   2.745
   64TCM     c1  483   3.354   2.058   2.146
   64TCM    cl1  484   3.268   1.985   2.007
   64TCM    cl2  485   3.239   2.156   2.243
   64TCM     h1  486   3.396   1.979   2.209
   64TCM    cl3  487   3.486   2.164   2.086
   65TCM     c1  488   4.918   0.402   2.340
   65TCM    cl1  489   4.959   0.395   2.514
   65TCM    cl2  490   5.065   0.437   2.243
   65TCM     h1  491   4.876   0.306   2.309
   65TCM    cl3  492   4.798   0.532   2.311
   66TCM     c1  493   0.279   0.201   2.868
   66TCM    cl1  494   0.276   0.031   2.926
   66TCM    cl2  495   0.210   0.208   2.703
   66TCM     h1  496   0.221   0.264   2.936
   66TCM    cl3  497   0.449   0.258   2.864
   67TCM     c1  498   4.854   3.345   1.057
   67TCM    cl1  499   4.871   3.507   0.980
   67TCM    cl2  500   4.823   3.366   1.233
   67TCM     h1  501   4.770   3.292   1.011
   67TCM    cl3  502   5.004   3.251   1.033
   68TCM     c1  503   1.136   3.438   0.548
   68TCM    cl1  504   1.129   3.611   0.498
   68TCM    cl2  505   1.280   3.412   0.651
   68TCM     h1  506   1.046   3.413   0.604
   68TCM    cl3  507   1.147   3.334   0.402
   69TCM     c1  508   2.815   4.270   4.003
   69TCM    cl1  509   2.663   4.307   4.090
   69TCM    cl2  510   2.813   4.351   3.843
   69TCM     h1  511   2.901   4.305   4.061
   69TCM    cl3  512   2.826   4.092   3.981
   70TCM     c1  513   4.644   1.415   0.236
   70TCM    cl1  514   4.599   1.244   0.263
   70TCM    cl2  515   4.531   1.522   0.325
   70TCM     h1  516   4.746   1.433   0.272
   70TCM    cl3  517   4.633   1.450   0.061
   71TCM     c1  518   2.956   4.521   4.451
   71TCM    cl1  519   2.908   4.393   4.567
   71TCM    cl2  520   2.899   4.475   4.288
   71TCM     h1  521   2.912   4.616   4.481
   71TCM    cl3  522   3.135   4.536   4.448
   72TCM     c1  523   3.520   3.886   2.080
   72TCM    cl1  524   3.406   3.822   1.957
   72TCM    cl2  525   3.464   3.836   2.243
   72TCM     h1  526   3.620   3.846   2.062
   72TCM    cl3  527   3.523   4.065   2.071
   73TCM     c1  528   1.023   0.145   3.323
   73TCM    cl1  529   0.897   0.194   3.441
   73TCM    cl2  530   0.956   0.158   3.157
   73TCM     h1  531   1.110   0.210   3.333
   73TCM    cl3  532   1.071  -0.025   3.354
   74TCM     c1  533   0.562   1.453   2.473
   74TCM    cl1  534   0.534   1.522   2.310
   74TCM    cl2  535   0.437   1.517   2.585
   74TCM     h1  536   0.555   1.344   2.468
   74TCM    cl3  537   0.724   1.501   2.532
   75TCM     c1  538   0.954   0.583   2.115
   75TCM    cl1  539   0.800   0.500   2.155
   75TCM    cl2  540   0.935   0.668   1.958
   75TCM     h1  541   0.978   0.654   2.194
   75TCM    cl3  542   1.084   0.461   2.102
   76TCM     c1  543   2.925   0.861   3.863
   76TCM    cl1  544   2.793   0.947   3.950
   76TCM    cl2  545   2.940   0.928   3.698
   76TCM     h1  546   3.019   0.875   3.917
   76TCM    cl3  547   2.886   0.686   3.853
   77TCM     c1  548   4.521   4.720   0.871
   77TCM    cl1  549   4.601   4.781   0.723
   77TCM    cl2  550   4.606   4.785   1.015
   77TCM     h1  551   4.417   4.752   0.873
   77TCM    cl3  552   4.529   4.540   0.873
   78TCM     c1  553   0.497   4.153   0.278
   78TCM    cl1  554   0.322   4.185   0.251
   78TCM    cl2  555   0.564   4.065   0.136
   78TCM     h1  556   0.550   4.247   0.291
   78TCM    cl3  557   0.517   4.051   0.424
   79TCM     c1  558   2.300   3.298   2.030
   79TCM    cl1  559   2.316   3.477   2.022
   79TCM    cl2  560   2.462   3.222   2.020
   79TCM     h1  561   2.252   3.270   2.124
   79TCM    cl3  562   2.198   3.242   1.893
   80TCM     c1  563   0.170   2.809   0.846
   80TCM    cl1  564   0.295   2.819   0.975
   80TCM    cl2  565   0.112   2.975   0.808
   80TCM     h1  566   0.213   2.764   0.757
   80TCM    cl3  567   0.033   2.709   0.904
   81TCM     c1  568   3.162   3.448   1.165
   81TCM    cl1  569   2.986   3.421   1.140
   81TCM    cl2  570   3.201   3.621   1.135
   81TCM     h1  571   3.188   3.421   1.268
   81TCM    cl3  572   3.254   3.347   1.050
   82TCM     c1  573   3.011   2.868   4.944
   82TCM    cl1  574   3.090   2.768   4.818
   82TCM    cl2  575   2.997   2.772   5.095
   82TCM     h1  576   3.071   2.958   4.963
   82TCM    cl3  577   2.848   2.917   4.887
   83TCM     c1  578   0.898   1.166   1.874
   83TCM    cl1  579   0.950   1.137   1.705
   83TCM    cl2  580   0.981   1.051   1.983
   83TCM     h1  581   0.923   1.269   1.903
   83TCM    cl3  582   0.721   1.141   1.887
   84TCM     c1  583   1.692   2.567   4.703
   84TCM    cl1  584   1.597   2.635   4.567
   84TCM    cl2  585   1.805   2.443   4.640
   84TCM     h1  586   1.748   2.646   4.752
   84TCM    cl3  587   1.580   2.490   4.821
   85TCM     c1  588   2.224   3.903   3.799
   85TCM    cl1  589   2.311   3.826   3.662
   85TCM    cl2  590   2.272   3.822   3.952
   85TCM     h1  591   2.250   4.009   3.804
   85TCM    cl3  592   2.047   3.885   3.776
   86TCM     c1  593   0.564   0.073   4.899
   86TCM    cl1  594   0.726   0.065   4.823
   86TCM    cl2  595   0.557   0.217   5.006
   86TCM     h1  596   0.487   0.082   4.821
   86TCM    cl3  597   0.536  -0.076   4.995
   87TCM     c1  598   0.792   0.550   2.842
   87TCM    cl1  599   0.943   0.646   2.847
   87TCM    cl2  600   0.667   0.627   2.945
   87TCM     h1  601   0.756   0.544   2.739
   87TCM    cl3  602   0.826   0.385   2.904
   88TCM     c1  603   4.409   2.878   3.039
   88TCM    cl1  604   4.349   2.710   3.059
   88TCM    cl2  605   4.576   2.874   2.974
   88TCM     h1  606   4.344   2.932   2.971
   88TCM    cl3  607   4.411   2.960   3.199
   89TCM     c1  608   3.043   4.559   4.950
   89TCM    cl1  609   2.896   4.656   4.982
   89TCM    cl2  610   3.114   4.607   4.793
   89TCM     h1  611   3.116   4.574   5.030
   89TCM    cl3  612   2.998   4.386   4.941
   90TCM     c1  613   1.918   4.968   3.592
   90TCM    cl1  614   1.767   4.993   3.498
   90TCM    cl2  615   1.879   4.963   3.767
   90TCM     h1  616   1.965   4.874   3.562
   90TCM    cl3  617   2.032   5.104   3.562
   91TCM     c1  618   0.737   0.713   3.921
   91TCM    cl1  619   0.831   0.575   3.984
   91TCM    cl2  620   0.563   0.688   3.957
   91TCM     h1  621   0.771   0.805   3.969
   91TCM    cl3  622   0.761   0.725   3.743
   92TCM     c1  623   1.953   0.172   2.429
   92TCM    cl1  624   1.802   0.251   2.373
   92TCM    cl2  625   1.972   0.014   2.346
   92TCM     h1  626   2.038   0.236   2.407
   92TCM    cl3  627   1.943   0.144   2.606
   93TCM     c1  628   0.946   1.308   2.299
   93TCM    cl1  629   1.003   1.157   2.375
   93TCM    cl2  630   0.786   1.280   2.225
   93TCM     h1  631   0.939   1.387   2.374
   93TCM    cl3  632   1.062   1.359   2.171
   94TCM     c1  633   1.173   1.416   0.243
   94TCM    cl1  634   1.241   1.558   0.157
   94TCM    cl2  635   1.265   1.389   0.395
   94TCM     h1  636   1.068   1.434   0.266
   94TCM    cl3  637   1.188   1.270   0.139
   95TCM     c1  638   4.190   3.027   2.434
   95TCM    cl1  639   4.324   3.041   2.553
   95TCM    cl2  640   4.036   3.073   2.514
   95TCM     h1  641   4.209   3.094   2.350
   95TCM    cl3  642   4.178   2.859   2.374
   96TCM     c1  643   2.840   4.755   1.370
   96TCM    cl1  644   2.719   4.885   1.346
   96TCM    cl2  645   2.802   4.617   1.262
   96TCM     h1  646   2.940   4.793   1.347
   96TCM    cl3  647   2.835   4.699   1.541
   97TCM     c1  648   4.196   2.212   2.928
   97TCM    cl1  649   4.293   2.300   3.051
   97TCM    cl2  650   4.091   2.091   3.009
   97TCM     h1  651   4.133   2.283   2.873
   97TCM    cl3  652   4.305   2.127   2.813
   98TCM     c1  653   4.033   0.537   3.636
   98TCM    cl1  654   4.169   0.532   3.753
   98TCM    cl2  655   4.089   0.479   3.476
   98TCM     h1  656   3.952   0.474   3.672
   98TCM    cl3  657   3.974   0.706   3.621
   99TCM     c1  658   3.879   0.828   3.173
   99TCM    cl1  659   3.741   0.932   3.125
   99TCM    cl2  660   3.820   0.700   3.284
   99TCM     h1  661   3.923   0.783   3.084
   99TCM    cl3  662   4.002   0.928   3.257
  100TCM     c1  663   1.996   0.077   3.049
  100TCM    cl1  664   1.846   0.070   2.951
  100TCM    cl2  665   2.130  -0.003   2.960
  100TCM     h1  666   2.023   0.181   3.069
  100TCM    cl3  667   1.969  -0.010   3.204
  101TCM     c1  668   0.022   4.407   3.606
  101TCM    cl1  669   0.150   4.465   3.717
  101TCM    cl2  670  -0.005   4.232   3.632
  101TCM     h1  671  -0.070   4.462   3.624
  101TCM    cl3  672   0.076   4.435   3.437
  102TCM     c1  673   0.149   1.498   4.805
  102TCM    cl1  674   0.244   1.393   4.916
  102TCM    cl2  675   0.145   1.425   4.641
  102TCM     h1  676   0.047   1.508   4.843
  102TCM    cl3  677   0.226   1.659   4.796
  103TCM     c1  678   0.897   4.829   0.187
  103TCM    cl1  679   0.835   4.997   0.189
  103TCM    cl2  680   0.836   4.747   0.040
  103TCM     h1  681   1.006   4.830   0.186
  103TCM    cl3  682   0.839   4.741   0.332
  104TCM     c1  683   0.514   2.239   0.948
  104TCM    cl1  684   0.402   2.164   1.067
  104TCM    cl2  685   0.634   2.117   0.894
  104TCM     h1  686   0.457   2.274   0.861
  104TCM    cl3  687   0.598   2.377   1.025
  105TCM     c1  688   4.625   1.462   2.281
  105TCM    cl1  689   4.789   1.523   2.321
  105TCM    cl2  690   4.611   1.290   2.329
  105TCM     h1  691   4.550   1.521   2.336
  105TCM    cl3  692   4.597   1.479   2.105
  106TCM     c1  693   2.948   1.116   2.533
  106TCM    cl1  694   2.788   1.188   2.495
  106TCM    cl2  695   3.067   1.166   2.408
  106TCM     h1  696   2.981   1.150   2.631
  106TCM    cl3  697   2.934   0.937   2.533
  107TCM     c1  698   2.795   0.401   2.490
  107TCM    cl1  699   2.724   0.343   2.644
  107TCM    cl2  700   2.880   0.556   2.520
  107TCM     h1  701   2.866   0.327   2.451
  107TCM    cl3  702   2.664   0.427   2.370
  108TCM     c1  703   2.071   4.472   0.943
  108TCM    cl1  704   1.980   4.451   1.096
  108TCM    cl2  705   2.159   4.628   0.947
  108TCM     h1  706   2.143   4.390   0.932
  108TCM    cl3  707   1.956   4.470   0.806
  109TCM     c1  708   0.048   3.023   3.877
  109TCM    cl1  709   0.168   3.146   3.929
  109TCM    cl2  710   0.123   2.914   3.756
  109TCM     h1  711   0.016   2.965   3.964
  109TCM    cl3  712  -0.094   3.105   3.804
  110TCM     c1  713   2.475   4.618   1.842
  110TCM    cl1  714   2.402   4.769   1.905
  110TCM    cl2  715   2.412   4.477   1.934
  110TCM     h1  716   2.450   4.607   1.736
  110TCM    cl3  717   2.654   4.625   1.861
  111TCM     c1  718   2.511   4.702   3.587
  111TCM    cl1  719   2.355   4.758   3.518
  111TCM    cl2  720   2.486   4.653   3.758
  111TCM     h1  721   2.549   4.617   3.529
  111TCM    cl3  722   2.628   4.837   3.582
  112TCM     c1  723   3.349   3.450   4.774
  112TCM    cl1  724   3.223   3.533   4.675
  112TCM    cl2  725   3.509   3.525   4.742
  112TCM     h1  726   3.324   3.461   4.880
  112TCM    cl3  727   3.354   3.276   4.731
  113TCM     c1  728   1.366   4.717   4.520
  113TCM    cl1  729   1.326   4.582   4.631
  113TCM    cl2  730   1.220   4.761   4.425
  113TCM     h1  731   1.399   4.804   4.578
  113TCM    cl3  732   1.497   4.666   4.409
  114TCM     c1  733   3.087   3.612   1.897
  114TCM    cl1  734   2.978   3.494   1.819
  114TCM    cl2  735   3.039   3.635   2.068
  114TCM     h1  736   3.190   3.576   1.893
  114TCM    cl3  737   3.076   3.769   1.811
  115TCM     c1  738   4.830   2.382   1.985
  115TCM    cl1  739   4.859   2.510   2.107
  115TCM    cl2  740   4.967   2.377   1.869
  115TCM     h1  741   4.821   2.285   2.035
  115TCM    cl3  742   4.678   2.417   1.896
  116TCM     c1  743   2.015   0.620   3.446
  116TCM    cl1  744   2.087   0.679   3.293
  116TCM    cl2  745   2.072   0.453   3.478
  116TCM     h1  746   2.044   0.685   3.529
  116TCM    cl3  747   1.836   0.620   3.431
  117TCM     c1  748   1.558   4.660   3.569
  117TCM    cl1  749   1.424   4.671   3.688
  117TCM    cl2  750   1.503   4.726   3.412
  117TCM     h1  751   1.643   4.718   3.605
  117TCM    cl3  752   1.605   4.489   3.546
  118TCM     c1  753   1.256   3.055   3.422
  118TCM    cl1  754   1.360   2.922   3.484
  118TCM    cl2  755   1.297   3.088   3.251
  118TCM     h1  756   1.151   3.025   3.430
  118TCM    cl3  757   1.283   3.202   3.520
  119TCM     c1  758   4.529   2.154   2.368
  119TCM    cl1  759   4.609   2.248   2.238
  119TCM    cl2  760   4.467   2.265   2.494
  119TCM     h1  761   4.445   2.097   2.325
  119TCM    cl3  762   4.647   2.040   2.441
  120TCM     c1  763   2.227   1.217   1.928
  120TCM    cl1  764   2.260   1.146   2.089
  120TCM    cl2  765   2.147   1.376   1.949
  120TCM     h1  766   2.321   1.230   1.874
  120TCM    cl3  767   2.120   1.107   1.835
  121TCM     c1  768   1.380   0.116   3.641
  121TCM    cl1  769   1.214   0.060   3.679
  121TCM    cl2  770   1.418   0.075   3.471
  121TCM     h1  771   1.386   0.224   3.655
  121TCM    cl3  772   1.498   0.035   3.750
  122TCM     c1  773   4.224   3.579   2.558
  122TCM    cl1  774   4.370   3.536   2.653
  122TCM    cl2  775   4.128   3.430   2.529
  122TCM     h1  776   4.164   3.651   2.613
  122TCM    cl3  777   4.274   3.649   2.400
  123TCM     c1  778   4.027   0.989   3.948
  123TCM    cl1  779   4.167   0.910   3.868
  123TCM    cl2  780   4.066   1.017   4.121
  123TCM     h1  781   4.006   1.084   3.900
  123TCM    cl3  782   3.883   0.882   3.935
  124TCM     c1  783   3.641   1.923   2.440
  124TCM    cl1  784   3.562   1.804   2.548
  124TCM    cl2  785   3.552   2.078   2.447
  124TCM     h1  786   3.744   1.940   2.472
  124TCM    cl3  787   3.640   1.862   2.271
  125TCM     c1  788   4.640   4.173   3.412
  125TCM    cl1  789   4.666   4.045   3.534
  125TCM    cl2  790   4.515   4.118   3.296
  125TCM     h1  791   4.607   4.265   3.461
  125TCM    cl3  792   4.794   4.203   3.324
  126TCM     c1  793   0.282   1.824   0.321
  126TCM    cl1  794   0.268   1.718   0.465
  126TCM    cl2  795   0.144   1.937   0.316
  126TCM     h1  796   0.376   1.880   0.326
  126TCM    cl3  797   0.280   1.722   0.174
  127TCM     c1  798   3.341   1.594   3.414
  127TCM    cl1  799   3.186   1.630   3.497
  127TCM    cl2  800   3.307   1.521   3.254
  127TCM     h1  801   3.399   1.686   3.401
  127TCM    cl3  802   3.434   1.477   3.513
  128TCM     c1  803   1.375   2.458   2.645
  128TCM    cl1  804   1.303   2.610   2.582
  128TCM    cl2  805   1.251   2.329   2.646
  128TCM     h1  806   1.459   2.428   2.582
  128TCM    cl3  807   1.433   2.486   2.813
  129TCM     c1  808   0.227   2.680   4.979
  129TCM    cl1  809   0.317   2.835   4.992
  129TCM    cl2  810   0.199   2.613   5.143
  129TCM     h1  811   0.131   2.698   4.931
  129TCM    cl3  812   0.322   2.564   4.881
  130TCM     c1  813   0.575   4.468   4.982
  130TCM    cl1  814   0.596   4.488   5.159
  130TCM    cl2  815   0.428   4.370   4.951
  130TCM     h1  816   0.565   4.566   4.934
  130TCM    cl3  817   0.717   4.382   4.914
  131TCM     c1  818   4.577   4.520   4.924
  131TCM    cl1  819   4.645   4.638   4.808
  131TCM    cl2  820   4.672   4.368   4.921
  131TCM     h1  821   4.579   4.562   5.025
  131TCM    cl3  822   4.407   4.486   4.877
  132TCM     c1  823   0.596   1.467   0.370
  132TCM    cl1  824   0.575   1.290   0.350
  132TCM    cl2  825   0.768   1.509   0.339
  132TCM     h1  826   0.532   1.520   0.300
  132TCM    cl3  827   0.553   1.513   0.538
  133TCM     c1  828   2.334   0.204   3.347
  133TCM    cl1  829   2.277   0.304   3.208
  133TCM    cl2  830   2.509   0.234   3.375
  133TCM     h1  831   2.277   0.230   3.436
  133TCM    cl3  832   2.309   0.032   3.306
  134TCM     c1  833   0.436   1.467   3.021
  134TCM    cl1  834   0.527   1.484   3.175
  134TCM    cl2  835   0.522   1.354   2.912
  134TCM     h1  836   0.336   1.428   3.042
  134TCM    cl3  837   0.423   1.627   2.942
  135TCM     c1  838   0.150   4.139   4.904
  135TCM    cl1  839   0.173   4.201   4.737
  135TCM    cl2  840   0.261   4.001   4.932
  135TCM     h1  841   0.172   4.219   4.975
  135TCM    cl3  842  -0.020   4.085   4.925
  136TCM     c1  843   4.089   1.123   2.262
  136TCM    cl1  844   4.203   1.113   2.400
  136TCM    cl2  845   3.959   1.240   2.301
  136TCM     h1  846   4.142   1.155   2.172
  136TCM    cl3  847   4.018   0.960   2.235
  137TCM     c1  848   1.291   0.634   1.839
  137TCM    cl1  849   1.329   0.462   1.804
  137TCM    cl2  850   1.207   0.707   1.698
  137TCM     h1  851   1.227   0.640   1.927
  137TCM    cl3  852   1.444   0.724   1.870
  138TCM     c1  853   2.065   1.657   3.222
  138TCM    cl1  854   2.165   1.705   3.082
  138TCM    cl2  855   1.982   1.802   3.287
  138TCM     h1  856   1.991   1.583   3.191
  138TCM    cl3  857   2.171   1.587   3.349
  139TCM     c1  858   2.519   3.546   3.743
  139TCM    cl1  859   2.607   3.678   3.826
  139TCM    cl2  860   2.377   3.495   3.840
  139TCM     h1  861   2.485   3.581   3.645
  139TCM    cl3  862   2.629   3.406   3.721
  140TCM     c1  863   0.401   1.362   3.727
  140TCM    cl1  864   0.443   1.391   3.555
  140TCM    cl2  865   0.225   1.336   3.743
  140TCM     h1  866   0.455   1.273   3.763
  140TCM    cl3  867   0.449   1.504   3.825
  141TCM     c1  868   0.730   4.359   1.741
  141TCM    cl1  869   0.726   4.265   1.588
  141TCM    cl2  870   0.644   4.515   1.718
  141TCM     h1  871   0.681   4.302   1.820
  141TCM    cl3  872   0.900   4.391   1.786
  142TCM     c1  873   3.433   4.113   2.563
  142TCM    cl1  874   3.599   4.141   2.502
  142TCM    cl2  875   3.420   3.944   2.623
  142TCM     h1  876   3.412   4.182   2.645
  142TCM    cl3  877   3.315   4.138   2.430
  143TCM     c1  878   0.574   2.380   3.247
  143TCM    cl1  879   0.558   2.440   3.079
  143TCM    cl2  880   0.506   2.214   3.259
  143TCM     h1  881   0.680   2.378   3.276
  143TCM    cl3  882   0.484   2.489   3.358
  144TCM     c1  883   1.473   3.688   1.690
  144TCM    cl1  884   1.434   3.829   1.585
  144TCM    cl2  885   1.474   3.739   1.862
  144TCM     h1  886   1.399   3.610   1.675
  144TCM    cl3  887   1.636   3.627   1.647
  145TCM     c1  888   1.301   1.441   2.551
  145TCM    cl1  889   1.125   1.472   2.569
  145TCM    cl2  890   1.324   1.287   2.464
  145TCM     h1  891   1.347   1.523   2.495
  145TCM    cl3  892   1.376   1.430   2.713
  146TCM     c1  893   3.990   4.953   3.986
  146TCM    cl1  894   4.027   4.871   3.831
  146TCM    cl2  895   4.023   4.839   4.121
  146TCM     h1  896   4.052   5.042   3.997
  146TCM    cl3  897   3.816   5.000   3.989
  147TCM     c1  898   4.972   4.488   4.563
  147TCM    cl1  899   5.098   4.599   4.499
  147TCM    cl2  900   4.813   4.537   4.495
  147TCM     h1  901   4.995   4.386   4.534
  147TCM    cl3  902   4.968   4.501   4.742
  148TCM     c1  903   0.845   1.509   0.878
  148TCM    cl1  904   0.683   1.580   0.906
  148TCM    cl2  905   0.876   1.498   0.701
  148TCM     h1  906   0.922   1.571   0.925
  148TCM    cl3  907   0.850   1.343   0.946
  149TCM     c1  908   2.675   2.676   0.213
  149TCM    cl1  909   2.582   2.789   0.108
  149TCM    cl2  910   2.574   2.533   0.251
  149TCM     h1  911   2.766   2.645   0.161
  149TCM    cl3  912   2.718   2.761   0.364
  150TCM     c1  913   3.438   1.150   3.320
  150TCM    cl1  914   3.348   1.170   3.167
  150TCM    cl2  915   3.599   1.228   3.306
  150TCM     h1  916   3.382   1.195   3.402
  150TCM    cl3  917   3.460   0.975   3.353
  151TCM     c1  918   3.251   0.240   1.977
  151TCM    cl1  919   3.354   0.387   1.969
  151TCM    cl2  920   3.313   0.117   1.862
  151TCM     h1  921   3.254   0.199   2.079
  151TCM    cl3  922   3.083   0.284   1.934
  152TCM     c1  923   3.879   2.627   1.609
  152TCM    cl1  924   3.857   2.633   1.787
  152TCM    cl2  925   3.874   2.456   1.554
  152TCM     h1  926   3.800   2.684   1.560
  152TCM    cl3  927   4.039   2.698   1.567
  153TCM     c1  928   2.849   4.037   2.568
  153TCM    cl1  929   2.809   4.093   2.734
  153TCM    cl2  930   2.995   3.933   2.574
  153TCM     h1  931   2.765   3.981   2.526
  153TCM    cl3  932   2.884   4.180   2.464
  154TCM     c1  933   4.195   0.882   2.726
  154TCM    cl1  934   4.071   0.861   2.853
  154TCM    cl2  935   4.156   0.776   2.586
  154TCM     h1  936   4.198   0.986   2.693
  154TCM    cl3  937   4.356   0.836   2.792
  155TCM     c1  938   0.982   1.918   4.976
  155TCM    cl1  939   0.898   2.077   4.967
  155TCM    cl2  940   0.949   1.842   5.135
  155TCM     h1  941   0.945   1.853   4.896
  155TCM    cl3  942   1.158   1.941   4.956
  156TCM     c1  943   2.344   4.422   4.349
  156TCM    cl1  944   2.507   4.450   4.419
  156TCM    cl2  945   2.295   4.252   4.383
  156TCM     h1  946   2.272   4.490   4.395
  156TCM    cl3  947   2.347   4.449   4.172
  157TCM     c1  948   2.063   4.932   0.049
  157TCM    cl1  949   2.054   5.045   0.188
  157TCM    cl2  950   2.231   4.928  -0.015
  157TCM     h1  951   2.033   4.832   0.081
  157TCM    cl3  952   1.955   4.989  -0.082
  158TCM     c1  953   1.751   1.058   2.784
  158TCM    cl1  954   1.663   1.202   2.847
  158TCM    cl2  955   1.773   0.940   2.916
  158TCM     h1  956   1.693   1.013   2.703
  158TCM    cl3  957   1.911   1.109   2.722
  159TCM     c1  958   1.736   2.260   0.120
  159TCM    cl1  959   1.728   2.422   0.197
  159TCM    cl2  960   1.846   2.268  -0.023
  159TCM     h1  961   1.775   2.187   0.191
  159TCM    cl3  962   1.572   2.210   0.066
  160TCM     c1  963   1.793   1.495   1.780
  160TCM    cl1  964   1.773   1.504   1.958
  160TCM    cl2  965   1.829   1.326   1.732
  160TCM     h1  966   1.701   1.528   1.731
  160TCM    cl3  967   1.928   1.601   1.729
  161TCM     c1  968   2.525   2.689   0.816
  161TCM    cl1  969   2.651   2.568   0.859
  161TCM    cl2  970   2.498   2.685   0.638
  161TCM     h1  971   2.432   2.665   0.867
  161TCM    cl3  972   2.580   2.852   0.865
  162TCM     c1  973   2.965   1.852   1.604
  162TCM    cl1  974   2.888   2.011   1.576
  162TCM    cl2  975   2.842   1.722   1.585
  162TCM     h1  976   3.046   1.837   1.532
  162TCM    cl3  977   3.030   1.846   1.770
  163TCM     c1  978   4.489   4.555   2.565
  163TCM    cl1  979   4.492   4.548   2.745
  163TCM    cl2  980   4.615   4.446   2.499
  163TCM     h1  981   4.391   4.523   2.529
  163TCM    cl3  982   4.521   4.723   2.512
  164TCM     c1  983   2.993   0.226   4.593
  164TCM    cl1  984   3.048   0.312   4.741
  164TCM    cl2  985   3.032   0.327   4.450
  164TCM     h1  986   3.044   0.130   4.586
  164TCM    cl3  987   2.816   0.200   4.600
  165TCM     c1  988   3.561   3.849   4.013
  165TCM    cl1  989   3.695   3.740   4.061
  165TCM    cl2  990   3.442   3.861   4.147
  165TCM     h1  991   3.601   3.949   3.991
  165TCM    cl3  992   3.480   3.784   3.867
  166TCM     c1  993   1.717   1.318   2.400
  166TCM    cl1  994   1.657   1.155   2.442
  166TCM    cl2  995   1.721   1.420   2.548
  166TCM     h1  996   1.818   1.310   2.359
  166TCM    cl3  997   1.609   1.393   2.278
  167TCM     c1  998   2.629   0.140   4.911
  167TCM    cl1  999   2.688  -0.028   4.890
  167TCM    cl2 1000   2.765   0.245   4.964
  167TCM     h1 1001   2.589   0.177   4.816
  167TCM    cl3 1002   2.502   0.142   5.037
  168TCM     c1 1003   2.297   2.704   2.023
  168TCM    cl1 1004   2.378   2.755   2.175
  168TCM    cl2 1005   2.303   2.839   1.905
  168TCM     h1 1006   2.348   2.617   1.981
  168TCM    cl3 1007   2.126   2.662   2.058
  169TCM     c1 1008   0.979   4.646   1.530
  169TCM    cl1 1009   0.909   4.786   1.618
  169TCM    cl2 1010   1.125   4.698   1.439
  169TCM     h1 1011   1.007   4.569   1.602
  169TCM    cl3 1012   0.858   4.581   1.416
  170TCM     c1 1013   3.947   2.283   4.368
  170TCM    cl1 1014   3.789   2.255   4.449
  170TCM    cl2 1015   4.017   2.125   4.319
  170TCM     h1 1016   3.932   2.345   4.280
  170TCM    cl3 1017   4.058   2.365   4.483
  171TCM     c1 1018   1.698   4.611   4.885
  171TCM    cl1 1019   1.546   4.532   4.937
  171TCM    cl2 1020   1.781   4.680   5.028
  171TCM     h1 1021   1.763   4.538   4.836
  171TCM    cl3 1022   1.658   4.743   4.769
  172TCM     c1 1023   3.442   3.382   0.442
  172TCM    cl1 1024   3.390   3.215   0.403
  172TCM    cl2 1025   3.437   3.407   0.620
  172TCM     h1 1026   3.544   3.397   0.407
  172TCM    cl3 1027   3.333   3.500   0.362
  173TCM     c1 1028   4.760   1.231   0.687
  173TCM    cl1 1029   4.879   1.335   0.772
  173TCM    cl2 1030   4.842   1.145   0.552
  173TCM     h1 1031   4.718   1.158   0.757
  173TCM    cl3 1032   4.628   1.333   0.621
  174TCM     c1 1033   3.989   1.666   2.130
  174TCM    cl1 1034   4.129   1.772   2.168
  174TCM    cl2 1035   3.905   1.621   2.282
  174TCM     h1 1036   3.920   1.718   2.063
  174TCM    cl3 1037   4.048   1.516   2.050
  175TCM     c1 1038   3.955   1.549   4.897
  175TCM    cl1 1039   3.973   1.535   4.719
  175TCM    cl2 1040   3.880   1.398   4.961
  175TCM     h1 1041   4.053   1.563   4.943
  175TCM    cl3 1042   3.850   1.689   4.937
  176TCM     c1 1043   3.830   3.026   0.006
  176TCM    cl1 1044   3.760   3.131  -0.122
  176TCM    cl2 1045   3.738   3.047   0.158
  176TCM     h1 1046   3.825   2.921  -0.026
  176TCM    cl3 1047   4.001   3.072   0.034
  177TCM     c1 1048   1.058   0.500   3.566
  177TCM    cl1 1049   1.112   0.628   3.680
  177TCM    cl2 1050   1.200   0.403   3.516
  177TCM     h1 1051   0.984   0.436   3.614
  177TCM    cl3 1052   0.985   0.577   3.421
  178TCM     c1 1053   3.159   0.016   1.380
  178TCM    cl1 1054   3.099  -0.033   1.541
  178TCM    cl2 1055   3.023   0.087   1.286
  178TCM     h1 1056   3.239   0.089   1.391
  178TCM    cl3 1057   3.219  -0.129   1.294
  179TCM     c1 1058   1.030   0.211   4.016
  179TCM    cl1 1059   1.046   0.316   3.871
  179TCM    cl2 1060   1.001   0.311   4.161
  179TCM     h1 1061   0.947   0.142   4.002
  179TCM    cl3 1062   1.182   0.118   4.037
  180TCM     c1 1063   3.225   0.092   3.368
  180TCM    cl1 1064   3.227   0.217   3.239
  180TCM    cl2 1065   3.113   0.143   3.499
  180TCM     h1 1066   3.192  -0.003   3.327
  180TCM    cl3 1067   3.391   0.075   3.435
  181TCM     c1 1068   1.887   0.817   4.031
  181TCM    cl1 1069   2.011   0.854   3.908
  181TCM    cl2 1070   1.757   0.941   4.023
  181TCM     h1 1071   1.845   0.718   4.013
  181TCM    cl3 1072   1.962   0.821   4.194
  182TCM     c1 1073   2.995   0.317   0.242
  182TCM    cl1 1074   2.948   0.480   0.298
  182TCM    cl2 1075   3.062   0.224   0.381
  182TCM     h1 1076   2.908   0.265   0.203
  182TCM    cl3 1077   3.120   0.331   0.114
  183TCM     c1 1078   1.552   2.004   2.635
  183TCM    cl1 1079   1.478   2.073   2.784
  183TCM    cl2 1080   1.730   1.996   2.656
  183TCM     h1 1081   1.513   1.903   2.619
  183TCM    cl3 1082   1.511   2.108   2.495
  184TCM     c1 1083   4.717   3.784   4.532
  184TCM    cl1 1084   4.810   3.805   4.380
  184TCM    cl2 1085   4.630   3.627   4.527
  184TCM     h1 1086   4.786   3.784   4.617
  184TCM    cl3 1087   4.598   3.917   4.550
  185TCM     c1 1088   0.806   0.998   2.671
  185TCM    cl1 1089   0.717   1.140   2.608
  185TCM    cl2 1090   0.722   0.848   2.618
  185TCM     h1 1091   0.908   0.998   2.633
  185TCM    cl3 1092   0.808   1.003   2.850
  186TCM     c1 1093   4.455   0.826   3.564
  186TCM    cl1 1094   4.473   0.740   3.721
  186TCM    cl2 1095   4.295   0.791   3.493
  186TCM     h1 1096   4.465   0.934   3.580
  186TCM    cl3 1097   4.582   0.770   3.450
  187TCM     c1 1098   4.781   4.347   0.477
  187TCM    cl1 1099   4.943   4.424   0.474
  187TCM    cl2 1100   4.746   4.274   0.317
  187TCM     h1 1101   4.779   4.270   0.554
  187TCM    cl3 1102   4.657   4.471   0.514
  188TCM     c1 1103   0.647   3.217   0.179
  188TCM    cl1 1104   0.609   3.284   0.341
  188TCM    cl2 1105   0.509   3.118   0.123
  188TCM     h1 1106   0.666   3.299   0.108
  188TCM    cl3 1107   0.792   3.112   0.191
  189TCM     c1 1108   1.110   2.344   4.791
  189TCM    cl1 1109   1.213   2.293   4.929
  189TCM    cl2 1110   1.096   2.210   4.674
  189TCM     h1 1111   1.011   2.371   4.828
  189TCM    cl3 1112   1.186   2.486   4.712
  190TCM     c1 1113   0.502   2.931   0.439
  190TCM    cl1 1114   0.398   2.911   0.584
  190TCM    cl2 1115   0.488   2.786   0.335
  190TCM     h1 1116   0.470   3.020   0.383
  190TCM    cl3 1117   0.672   2.952   0.493
  191TCM     c1 1118   4.162   1.448   2.530
  191TCM    cl1 1119   4.252   1.486   2.379
  191TCM    cl2 1120   4.089   1.598   2.597
  191TCM     h1 1121   4.082   1.376   2.508
  191TCM    cl3 1122   4.275   1.378   2.650
  192TCM     c1 1123   2.048   0.328   4.283
  192TCM    cl1 1124   2.092   0.227   4.142
  192TCM    cl2 1125   1.929   0.452   4.233
  192TCM     h1 1126   2.004   0.265   4.361
  192TCM    cl3 1127   2.195   0.408   4.348
  193TCM     c1 1128   0.453   4.881   2.548
  193TCM    cl1 1129   0.547   4.776   2.658
  193TCM    cl2 1130   0.505   5.051   2.568
  193TCM     h1 1131   0.469   4.849   2.444
  193TCM    cl3 1132   0.279   4.867   2.589
  194TCM     c1 1133   1.797   4.388   4.507
  194TCM    cl1 1134   1.903   4.248   4.545
  194TCM    cl2 1135   1.886   4.541   4.539
  194TCM     h1 1136   1.768   4.384   4.402
  194TCM    cl3 1137   1.651   4.381   4.611
  195TCM     c1 1138   4.132   4.344   1.434
  195TCM    cl1 1139   4.025   4.376   1.294
  195TCM    cl2 1140   4.235   4.201   1.398
  195TCM     h1 1141   4.195   4.431   1.453
  195TCM    cl3 1142   4.031   4.310   1.579
  196TCM     c1 1143   0.935   2.578   0.413
  196TCM    cl1 1144   1.103   2.541   0.359
  196TCM    cl2 1145   0.836   2.428   0.403
  196TCM     h1 1146   0.937   2.614   0.516
  196TCM    cl3 1147   0.865   2.704   0.307
  197TCM     c1 1148   1.131   0.803   4.103
  197TCM    cl1 1149   0.993   0.802   4.218
  197TCM    cl2 1150   1.077   0.881   3.950
  197TCM     h1 1151   1.214   0.859   4.146
  197TCM    cl3 1152   1.182   0.634   4.069
  198TCM     c1 1153   1.413   1.445   0.722
  198TCM    cl1 1154   1.482   1.587   0.636
  198TCM    cl2 1155   1.407   1.478   0.898
  198TCM     h1 1156   1.312   1.426   0.685
  198TCM    cl3 1157   1.516   1.302   0.692
  199TCM     c1 1158   1.038   4.307   1.274
  199TCM    cl1 1159   1.043   4.144   1.200
  199TCM    cl2 1160   1.165   4.410   1.202
  199TCM     h1 1161   0.940   4.352   1.257
  199TCM    cl3 1162   1.066   4.292   1.451
  200TCM     c1 1163   4.913   2.274   2.688
  200TCM    cl1 1164   4.945   2.100   2.657
  200TCM    cl2 1165   4.829   2.345   2.547
  200TCM     h1 1166   4.850   2.284   2.777
  200TCM    cl3 1167   5.068   2.359   2.714
  201TCM     c1 1168   0.563   2.266   0.198
  201TCM    cl1 1169   0.568   2.258   0.019
  201TCM    cl2 1170   0.458   2.134   0.260
  201TCM     h1 1171   0.664   2.255   0.239
  201TCM    cl3 1172   0.494   2.423   0.250
  202TCM     c1 1173   3.629   4.428   3.407
  202TCM    cl1 1174   3.732   4.455   3.263
  202TCM    cl2 1175   3.679   4.277   3.488
  202TCM     h1 1176   3.640   4.512   3.476
  202TCM    cl3 1177   3.457   4.415   3.355
  203TCM     c1 1178   2.098   0.855   2.431
  203TCM    cl1 1179   2.233   0.973   2.414
  203TCM    cl2 1180   1.944   0.935   2.386
  203TCM     h1 1181   2.116   0.769   2.366
  203TCM    cl3 1182   2.087   0.801   2.602
  204TCM     c1 1183   0.472   4.386   4.427
  204TCM    cl1 1184   0.511   4.416   4.599
  204TCM    cl2 1185   0.490   4.539   4.334
  204TCM     h1 1186   0.539   4.310   4.386
  204TCM    cl3 1187   0.302   4.330   4.415
  205TCM     c1 1188   2.002   4.557   3.825
  205TCM    cl1 1189   2.067   4.608   3.984
  205TCM    cl2 1190   2.075   4.656   3.695
  205TCM     h1 1191   2.025   4.451   3.808
  205TCM    cl3 1192   1.824   4.581   3.823
  206TCM     c1 1193   0.990   4.862   1.139
  206TCM    cl1 1194   0.901   4.716   1.084
  206TCM    cl2 1195   0.901   4.940   1.274
  206TCM     h1 1196   1.090   4.833   1.173
  206TCM    cl3 1197   1.003   4.979   1.003
  207TCM     c1 1198   2.451   3.174   0.967
  207TCM    cl1 1199   2.518   3.146   1.131
  207TCM    cl2 1200   2.570   3.268   0.871
  207TCM     h1 1201   2.433   3.078   0.918
  207TCM    cl3 1202   2.298   3.267   0.977
  208TCM     c1 1203   0.787   3.719   0.564
  208TCM    cl1 1204   0.810   3.804   0.407
  208TCM    cl2 1205   0.773   3.542   0.534
  208TCM     h1 1206   0.872   3.738   0.629
  208TCM    cl3 1207   0.636   3.777   0.642
  209TCM     c1 1208   3.768   2.113   1.875
  209TCM    cl1 1209   3.837   2.267   1.936
  209TCM    cl2 1210   3.830   1.976   1.973
  209TCM     h1 1211   3.659   2.116   1.882
  209TCM    cl3 1212   3.815   2.090   1.703
  210TCM     c1 1213   2.505   2.168   1.237
  210TCM    cl1 1214   2.432   2.096   1.090
  210TCM    cl2 1215   2.589   2.321   1.195
  210TCM     h1 1216   2.426   2.188   1.310
  210TCM    cl3 1217   2.623   2.053   1.309
  211TCM     c1 1218   2.650   3.175   4.043
  211TCM    cl1 1219   2.717   3.337   4.078
  211TCM    cl2 1220   2.733   3.105   3.899
  211TCM     h1 1221   2.665   3.109   4.129
  211TCM    cl3 1222   2.474   3.188   4.009
  212TCM     c1 1223   0.902   2.843   4.413
  212TCM    cl1 1224   0.979   2.792   4.568
  212TCM    cl2 1225   0.740   2.765   4.398
  212TCM     h1 1226   0.890   2.951   4.412
  212TCM    cl3 1227   1.005   2.792   4.276
  213TCM     c1 1228   1.464   2.838   3.041
  213TCM    cl1 1229   1.439   2.712   3.166
  213TCM    cl2 1230   1.328   2.833   2.924
  213TCM     h1 1231   1.468   2.936   3.088
  213TCM    cl3 1232   1.618   2.806   2.955
  214TCM     c1 1233   3.798   4.526   3.847
  214TCM    cl1 1234   3.683   4.389   3.832
  214TCM    cl2 1235   3.734   4.645   3.965
  214TCM     h1 1236   3.895   4.489   3.881
  214TCM    cl3 1237   3.817   4.604   3.686
  215TCM     c1 1238   0.121   3.093   0.433
  215TCM    cl1 1239   0.256   3.208   0.407
  215TCM    cl2 1240   0.130   2.963   0.309
  215TCM     h1 1241   0.129   3.049   0.533
  215TCM    cl3 1242  -0.035   3.179   0.418
  216TCM     c1 1243   1.266   2.140   0.258
  216TCM    cl1 1244   1.305   1.968   0.288
  216TCM    cl2 1245   1.358   2.242   0.374
  216TCM     h1 1246   1.294   2.167   0.156
  216TCM    cl3 1247   1.090   2.166   0.282
  217TCM     c1 1248   0.272   2.025   2.820
  217TCM    cl1 1249   0.234   1.876   2.728
  217TCM    cl2 1250   0.401   2.117   2.736
  217TCM     h1 1251   0.183   2.087   2.828
  217TCM    cl3 1252   0.329   1.979   2.984
  218TCM     c1 1253   3.453   0.116   4.652
  218TCM    cl1 1254   3.335   0.104   4.518
  218TCM    cl2 1255   3.439  -0.029   4.756
  218TCM     h1 1256   3.555   0.123   4.611
  218TCM    cl3 1257   3.418   0.263   4.749
  219TCM     c1 1258   1.546   2.662   1.901
  219TCM    cl1 1259   1.609   2.778   2.023
  219TCM    cl2 1260   1.394   2.726   1.832
  219TCM     h1 1261   1.620   2.649   1.822
  219TCM    cl3 1262   1.515   2.504   1.980
  220TCM     c1 1263   3.806   0.434   4.022
  220TCM    cl1 1264   3.954   0.339   3.987
  220TCM    cl2 1265   3.672   0.324   4.069
  220TCM     h1 1266   3.826   0.505   4.103
  220TCM    cl3 1267   3.759   0.525   3.874
  221TCM     c1 1268   0.142   3.675   1.293
  221TCM    cl1 1269   0.285   3.761   1.358
  221TCM    cl2 1270   0.057   3.591   1.426
  221TCM     h1 1271   0.074   3.747   1.246
  221TCM    cl3 1272   0.194   3.555   1.171
  222TCM     c1 1273   0.112   1.359   0.443
  222TCM    cl1 1274  -0.023   1.476   0.442
  222TCM    cl2 1275   0.203   1.375   0.596
  222TCM     h1 1276   0.072   1.257   0.435
  222TCM    cl3 1277   0.222   1.391   0.305
  223TCM     c1 1278   3.362   2.464   2.380
  223TCM    cl1 1279   3.336   2.638   2.413
  223TCM    cl2 1280   3.336   2.370   2.531
  223TCM     h1 1281   3.292   2.430   2.303
  223TCM    cl3 1282   3.530   2.439   2.323
  224TCM     c1 1283   0.301   4.662   2.928
  224TCM    cl1 1284   0.361   4.497   2.896
  224TCM    cl2 1285   0.297   4.691   3.106
  224TCM     h1 1286   0.367   4.735   2.881
  224TCM    cl3 1287   0.135   4.679   2.862
  225TCM     c1 1288   0.157   4.459   2.573
  225TCM    cl1 1289   0.051   4.582   2.498
  225TCM    cl2 1290   0.328   4.495   2.532
  225TCM     h1 1291   0.145   4.462   2.682
  225TCM    cl3 1292   0.113   4.296   2.512
  226TCM     c1 1293   0.107   2.286   2.325
  226TCM    cl1 1294  -0.023   2.180   2.260
  226TCM    cl2 1295   0.196   2.361   2.188
  226TCM     h1 1296   0.064   2.364   2.388
  226TCM    cl3 1297   0.221   2.187   2.422
  227TCM     c1 1298   0.337   3.911   2.896
  227TCM    cl1 1299   0.189   3.834   2.961
  227TCM    cl2 1300   0.439   3.788   2.814
  227TCM     h1 1301   0.310   3.989   2.824
  227TCM    cl3 1302   0.430   3.985   3.031
  228TCM     c1 1303   2.275   0.518   3.859
  228TCM    cl1 1304   2.187   0.564   4.008
  228TCM    cl2 1305   2.252   0.644   3.734
  228TCM     h1 1306   2.381   0.507   3.881
  228TCM    cl3 1307   2.209   0.362   3.799
  229TCM     c1 1308   1.687   1.755   2.242
  229TCM    cl1 1309   1.575   1.782   2.104
  229TCM    cl2 1310   1.592   1.741   2.394
  229TCM     h1 1311   1.744   1.663   2.226
  229TCM    cl3 1312   1.799   1.894   2.255
  230TCM     c1 1313   0.881   3.164   2.296
  230TCM    cl1 1314   0.738   3.106   2.387
  230TCM    cl2 1315   0.867   3.341   2.269
  230TCM     h1 1316   0.972   3.143   2.354
  230TCM    cl3 1317   0.889   3.080   2.138
  231TCM     c1 1318   4.576   3.726   3.000
  231TCM    cl1 1319   4.534   3.900   2.998
  231TCM    cl2 1320   4.668   3.685   2.852
  231TCM     h1 1321   4.637   3.704   3.088
  231TCM    cl3 1322   4.425   3.629   3.007
  232TCM     c1 1323   4.232   0.753   4.536
  232TCM    cl1 1324   4.231   0.794   4.710
  232TCM    cl2 1325   4.385   0.810   4.462
  232TCM     h1 1326   4.223   0.645   4.523
  232TCM    cl3 1327   4.094   0.834   4.455
  233TCM     c1 1328   0.113   2.998   4.622
  233TCM    cl1 1329   0.279   3.043   4.672
  233TCM    cl2 1330   0.001   3.134   4.656
  233TCM     h1 1331   0.112   2.974   4.515
  233TCM    cl3 1332   0.062   2.854   4.716
  234TCM     c1 1333   0.773   1.895   0.450
  234TCM    cl1 1334   0.748   1.830   0.615
  234TCM    cl2 1335   0.771   2.075   0.456
  234TCM     h1 1336   0.869   1.861   0.411
  234TCM    cl3 1337   0.641   1.838   0.342
  235TCM     c1 1338   1.637   1.949   1.733
  235TCM    cl1 1339   1.493   2.030   1.804
  235TCM    cl2 1340   1.595   1.779   1.694
  235TCM     h1 1341   1.666   2.001   1.641
  235TCM    cl3 1342   1.773   1.952   1.849
  236TCM     c1 1343   2.469   4.298   3.775
  236TCM    cl1 1344   2.294   4.335   3.789
  236TCM    cl2 1345   2.523   4.321   3.606
  236TCM     h1 1346   2.525   4.364   3.841
  236TCM    cl3 1347   2.496   4.127   3.823
  237TCM     c1 1348   3.002   0.389   1.563
  237TCM    cl1 1349   2.896   0.248   1.594
  237TCM    cl2 1350   2.989   0.438   1.391
  237TCM     h1 1351   2.971   0.472   1.628
  237TCM    cl3 1352   3.172   0.346   1.598
  238TCM     c1 1353   2.235   4.572   4.752
  238TCM    cl1 1354   2.089   4.629   4.840
  238TCM    cl2 1355   2.268   4.681   4.614
  238TCM     h1 1356   2.321   4.570   4.819
  238TCM    cl3 1357   2.204   4.406   4.691
  239TCM     c1 1358   2.504   1.603   3.186
  239TCM    cl1 1359   2.513   1.481   3.317
  239TCM    cl2 1360   2.480   1.520   3.028
  239TCM     h1 1361   2.419   1.669   3.204
  239TCM    cl3 1362   2.655   1.698   3.183
  240TCM     c1 1363   0.572   1.725   4.903
  240TCM    cl1 1364   0.561   1.590   5.021
  240TCM    cl2 1365   0.731   1.715   4.821
  240TCM     h1 1366   0.492   1.716   4.829
  240TCM    cl3 1367   0.558   1.882   4.988
  241TCM     c1 1368   2.733   0.922   2.895
  241TCM    cl1 1369   2.853   0.790   2.874
  241TCM    cl2 1370   2.810   1.079   2.854
  241TCM     h1 1371   2.648   0.905   2.829
  241TCM    cl3 1372   2.677   0.925   3.065
  242TCM     c1 1373   3.255   0.685   1.446
  242TCM    cl1 1374   3.311   0.751   1.289
  242TCM    cl2 1375   3.101   0.765   1.492
  242TCM     h1 1376   3.239   0.577   1.436
  242TCM    cl3 1377   3.379   0.715   1.573
  243TCM     c1 1378   0.465   0.049   0.339
  243TCM    cl1 1379   0.446   0.137   0.494
  243TCM    cl2 1380   0.315   0.067   0.242
  243TCM     h1 1381   0.550   0.089   0.283
  243TCM    cl3 1382   0.493  -0.125   0.373
  244TCM     c1 1383   0.440   3.708   3.832
  244TCM    cl1 1384   0.595   3.753   3.911
  244TCM    cl2 1385   0.379   3.555   3.902
  244TCM     h1 1386   0.367   3.788   3.848
  244TCM    cl3 1387   0.468   3.685   3.656
  245TCM     c1 1388   4.876   4.158   4.317
  245TCM    cl1 1389   4.887   4.143   4.496
  245TCM    cl2 1390   4.971   4.300   4.264
  245TCM     h1 1391   4.915   4.068   4.270
  245TCM    cl3 1392   4.704   4.182   4.270
  246TCM     c1 1393   3.698   1.743   0.730
  246TCM    cl1 1394   3.555   1.647   0.680
  246TCM    cl2 1395   3.711   1.742   0.909
  246TCM     h1 1396   3.788   1.700   0.686
  246TCM    cl3 1397   3.679   1.913   0.674
  247TCM     c1 1398   3.305   4.233   3.791
  247TCM    cl1 1399   3.143   4.167   3.829
  247TCM    cl2 1400   3.345   4.196   3.620
  247TCM     h1 1401   3.306   4.341   3.806
  247TCM    cl3 1402   3.426   4.155   3.898
  248TCM     c1 1403   1.802   4.585   3.225
  248TCM    cl1 1404   1.877   4.423   3.205
  248TCM    cl2 1405   1.830   4.683   3.077
  248TCM     h1 1406   1.695   4.574   3.241
  248TCM    cl3 1407   1.875   4.667   3.367
  249TCM     c1 1408   2.357   0.212   2.347
  249TCM    cl1 1409   2.317   0.170   2.516
  249TCM    cl2 1410   2.265   0.358   2.298
  249TCM     h1 1411   2.465   0.232   2.338
  249TCM    cl3 1412   2.314   0.075   2.239
  250TCM     c1 1413   3.079   2.043   4.243
  250TCM    cl1 1414   3.257   2.017   4.250
  250TCM    cl2 1415   3.006   1.925   4.130
  250TCM     h1 1416   3.036   2.030   4.343
  250TCM    cl3 1417   3.046   2.209   4.185
  251TCM     c1 1418   2.887   2.243   0.540
  251TCM    cl1 1419   2.771   2.379   0.518
  251TCM    cl2 1420   3.040   2.279   0.454
  251TCM     h1 1421   2.907   2.230   0.647
  251TCM    cl3 1422   2.817   2.092   0.473
  252TCM     c1 1423   1.175   0.093   4.847
  252TCM    cl1 1424   1.286  -0.018   4.760
  252TCM    cl2 1425   1.072   0.179   4.728
  252TCM     h1 1426   1.112   0.035   4.915
  252TCM    cl3 1427   1.271   0.212   4.940
  253TCM     c1 1428   0.629   1.492   1.814
  253TCM    cl1 1429   0.532   1.642   1.803
  253TCM    cl2 1430   0.750   1.509   1.945
  253TCM     h1 1431   0.563   1.407   1.835
  253TCM    cl3 1432   0.715   1.463   1.659
  254TCM     c1 1433   4.782   2.852   0.413
  254TCM    cl1 1434   4.756   2.684   0.357
  254TCM    cl2 1435   4.885   2.849   0.560
  254TCM     h1 1436   4.831   2.910   0.335
  254TCM    cl3 1437   4.625   2.929   0.455
  255TCM     c1 1438   0.365   1.440   4.179
  255TCM    cl1 1439   0.479   1.302   4.165
  255TCM    cl2 1440   0.358   1.492   4.350
  255TCM     h1 1441   0.400   1.522   4.117
  255TCM    cl3 1442   0.203   1.388   4.124
  256TCM     c1 1443   0.814   0.421   0.419
  256TCM    cl1 1444   0.694   0.332   0.320
  256TCM    cl2 1445   0.975   0.343   0.401
  256TCM     h1 1446   0.820   0.525   0.385
  256TCM    cl3 1447   0.764   0.417   0.591
  257TCM     c1 1448   3.530   4.533   4.739
  257TCM    cl1 1449   3.465   4.613   4.886
  257TCM    cl2 1450   3.704   4.495   4.765
  257TCM     h1 1451   3.475   4.441   4.719
  257TCM    cl3 1452   3.513   4.644   4.599
  258TCM     c1 1453   3.095   3.624   3.536
  258TCM    cl1 1454   2.930   3.569   3.580
  258TCM    cl2 1455   3.184   3.488   3.459
  258TCM     h1 1456   3.089   3.708   3.467
  258TCM    cl3 1457   3.181   3.675   3.685
  259TCM     c1 1458   2.655   4.234   3.094
  259TCM    cl1 1459   2.580   4.329   2.961
  259TCM    cl2 1460   2.540   4.223   3.232
  259TCM     h1 1461   2.678   4.134   3.058
  259TCM    cl3 1462   2.805   4.316   3.148
  260TCM     c1 1463   3.314   0.970   2.764
  260TCM    cl1 1464   3.326   0.961   2.585
  260TCM    cl2 1465   3.183   1.084   2.808
  260TCM     h1 1466   3.292   0.871   2.805
  260TCM    cl3 1467   3.469   1.031   2.830
  261TCM     c1 1468   4.404   1.814   4.920
  261TCM    cl1 1469   4.461   1.801   5.090
  261TCM    cl2 1470   4.225   1.798   4.916
  261TCM     h1 1471   4.433   1.911   4.880
  261TCM    cl3 1472   4.477   1.684   4.821
  262TCM     c1 1473   2.980   1.859   0.701
  262TCM    cl1 1474   3.014   1.788   0.540
  262TCM    cl2 1475   3.077   2.009   0.721
  262TCM     h1 1476   2.874   1.883   0.709
  262TCM    cl3 1477   3.026   1.742   0.829
  263TCM     c1 1478   4.544   4.507   1.241
  263TCM    cl1 1479   4.608   4.352   1.305
  263TCM    cl2 1480   4.556   4.633   1.368
  263TCM     h1 1481   4.602   4.537   1.153
  263TCM    cl3 1482   4.371   4.486   1.195
  264TCM     c1 1483   4.366   0.564   3.203
  264TCM    cl1 1484   4.335   0.387   3.197
  264TCM    cl2 1485   4.216   0.651   3.156
  264TCM     h1 1486   4.395   0.593   3.304
  264TCM    cl3 1487   4.498   0.605   3.088
  265TCM     c1 1488   3.336   2.068   0.447
  265TCM    cl1 1489   3.405   2.166   0.581
  265TCM    cl2 1490   3.360   1.894   0.482
  265TCM     h1 1491   3.229   2.088   0.438
  265TCM    cl3 1492   3.418   2.109   0.293
  266TCM     c1 1493   1.574   0.182   2.663
  266TCM    cl1 1494   1.488   0.104   2.800
  266TCM    cl2 1495   1.643   0.339   2.717
  266TCM     h1 1496   1.654   0.117   2.627
  266TCM    cl3 1497   1.456   0.213   2.531
  267TCM     c1 1498   1.093   4.492   4.951
  267TCM    cl1 1499   1.171   4.654   4.950
  267TCM    cl2 1500   1.025   4.462   5.114
  267TCM     h1 1501   1.013   4.489   4.877
  267TCM    cl3 1502   1.216   4.366   4.914
  268TCM     c1 1503   4.822   4.946   4.541
  268TCM    cl1 1504   4.903   4.900   4.387
  268TCM    cl2 1505   4.906   4.867   4.678
  268TCM     h1 1506   4.824   5.054   4.553
  268TCM    cl3 1507   4.652   4.889   4.535
  269TCM     c1 1508   4.233   4.438   0.199
  269TCM    cl1 1509   4.132   4.399   0.342
  269TCM    cl2 1510   4.398   4.482   0.253
  269TCM     h1 1511   4.238   4.352   0.133
  269TCM    cl3 1512   4.159   4.577   0.114
  270TCM     c1 1513   0.308   2.360   3.677
  270TCM    cl1 1514   0.463   2.271   3.667
  270TCM    cl2 1515   0.308   2.464   3.823
  270TCM     h1 1516   0.296   2.422   3.588
  270TCM    cl3 1517   0.173   2.243   3.688
  271TCM     c1 1518   3.868   1.210   1.777
  271TCM    cl1 1519   3.971   1.116   1.664
  271TCM    cl2 1520   3.885   1.385   1.744
  271TCM     h1 1521   3.763   1.180   1.765
  271TCM    cl3 1522   3.920   1.179   1.945
  272TCM     c1 1523   1.369   4.584   0.253
  272TCM    cl1 1524   1.521   4.632   0.336
  272TCM    cl2 1525   1.233   4.683   0.317
  272TCM     h1 1526   1.379   4.601   0.146
  272TCM    cl3 1527   1.337   4.410   0.284
  273TCM     c1 1528   3.336   0.787   3.667
  273TCM    cl1 1529   3.255   0.703   3.803
  273TCM    cl2 1530   3.508   0.736   3.659
  273TCM     h1 1531   3.286   0.761   3.573
  273TCM    cl3 1532   3.327   0.965   3.693
  274TCM     c1 1533   4.238   3.363   3.325
  274TCM    cl1 1534   4.409   3.350   3.272
  274TCM    cl2 1535   4.146   3.221   3.265
  274TCM     h1 1536   4.234   3.366   3.434
  274TCM    cl3 1537   4.166   3.513   3.257
  275TCM     c1 1538   1.240   0.620   0.536
  275TCM    cl1 1539   1.087   0.611   0.629
  275TCM    cl2 1540   1.309   0.455   0.519
  275TCM     h1 1541   1.221   0.662   0.437
  275TCM    cl3 1542   1.357   0.725   0.623
  276TCM     c1 1543   0.977   1.869   1.117
  276TCM    cl1 1544   0.892   1.745   1.216
  276TCM    cl2 1545   0.912   1.866   0.950
  276TCM     h1 1546   0.960   1.968   1.161
  276TCM    cl3 1547   1.152   1.833   1.114
  277TCM     c1 1548   3.284   2.831   2.083
  277TCM    cl1 1549   3.155   2.806   1.960
  277TCM    cl2 1550   3.348   2.998   2.069
  277TCM     h1 1551   3.242   2.816   2.183
  277TCM    cl3 1552   3.417   2.714   2.055
  278TCM     c1 1553   2.897   3.299   2.598
  278TCM    cl1 1554   2.742   3.387   2.618
  278TCM    cl2 1555   2.967   3.335   2.436
  278TCM     h1 1556   2.967   3.331   2.675
  278TCM    cl3 1557   2.869   3.122   2.611
  279TCM     c1 1558   1.015   0.907   0.250
  279TCM    cl1 1559   0.948   0.760   0.326
  279TCM    cl2 1560   1.015   0.888   0.071
  279TCM     h1 1561   0.954   0.994   0.277
  279TCM    cl3 1562   1.183   0.932   0.308
  280TCM     c1 1563   2.957   4.932   0.567
  280TCM    cl1 1564   3.083   4.977   0.686
  280TCM    cl2 1565   2.833   4.830   0.647
  280TCM     h1 1566   2.911   5.022   0.527
  280TCM    cl3 1567   3.033   4.839   0.433
  281TCM     c1 1568   1.891   3.397   0.829
  281TCM    cl1 1569   2.025   3.500   0.888
  281TCM    cl2 1570   1.742   3.436   0.922
  281TCM     h1 1571   1.873   3.416   0.723
  281TCM    cl3 1572   1.934   3.224   0.853
  282TCM     c1 1573   2.577   3.675   1.757
  282TCM    cl1 1574   2.724   3.752   1.689
  282TCM    cl2 1575   2.533   3.757   1.911
  282TCM     h1 1576   2.495   3.684   1.686
  282TCM    cl3 1577   2.610   3.502   1.790
  283TCM     c1 1578   4.492   0.132   4.075
  283TCM    cl1 1579   4.504   0.127   4.254
  283TCM    cl2 1580   4.484   0.303   4.021
  283TCM     h1 1581   4.581   0.085   4.032
  283TCM    cl3 1582   4.346   0.045   4.020
  284TCM     c1 1583   4.786   2.606   4.769
  284TCM    cl1 1584   4.932   2.521   4.828
  284TCM    cl2 1585   4.656   2.598   4.892
  284TCM     h1 1586   4.810   2.711   4.749
  284TCM    cl3 1587   4.728   2.528   4.618
  285TCM     c1 1588   0.628   4.588   2.131
  285TCM    cl1 1589   0.784   4.641   2.060
  285TCM    cl2 1590   0.640   4.590   2.310
  285TCM     h1 1591   0.549   4.656   2.099
  285TCM    cl3 1592   0.591   4.422   2.076
  286TCM     c1 1593   4.993   4.887   0.434
  286TCM    cl1 1594   4.847   4.788   0.466
  286TCM    cl2 1595   4.982   4.955   0.269
  286TCM     h1 1596   4.999   4.969   0.507
  286TCM    cl3 1597   5.138   4.783   0.447
  287TCM     c1 1598   4.395   0.259   3.529
  287TCM    cl1 1599   4.520   0.151   3.459
  287TCM    cl2 1600   4.458   0.426   3.537
  287TCM     h1 1601   4.305   0.257   3.466
  287TCM    cl3 1602   4.353   0.203   3.694
  288TCM     c1 1603   3.422   4.903   4.109
  288TCM    cl1 1604   3.400   4.810   4.261
  288TCM    cl2 1605   3.388   5.076   4.142
  288TCM     h1 1606   3.524   4.891   4.072
  288TCM    cl3 1607   3.305   4.843   3.987
  289TCM     c1 1608   1.080   1.749   1.615
  289TCM    cl1 1609   1.083   1.892   1.506
  289TCM    cl2 1610   0.937   1.757   1.722
  289TCM     h1 1611   1.076   1.658   1.555
  289TCM    cl3 1612   1.230   1.748   1.714
  290TCM     c1 1613   0.250   0.145   1.529
  290TCM    cl1 1614   0.236   0.020   1.657
  290TCM    cl2 1615   0.087   0.211   1.493
  290TCM     h1 1616   0.315   0.226   1.564
  290TCM    cl3 1617   0.319   0.072   1.381
  291TCM     c1 1618   3.223   1.454   2.727
  291TCM    cl1 1619   3.060   1.439   2.653
  291TCM    cl2 1620   3.269   1.628   2.731
  291TCM     h1 1621   3.221   1.414   2.829
  291TCM    cl3 1622   3.342   1.363   2.629
  292TCM     c1 1623   3.502   0.025   0.236
  292TCM    cl1 1624   3.452   0.132   0.102
  292TCM    cl2 1625   3.554  -0.134   0.169
  292TCM     h1 1626   3.585   0.070   0.291
  292TCM    cl3 1627   3.363   0.000   0.346
  293TCM     c1 1628   0.388   1.122   2.005
  293TCM    cl1 1629   0.358   1.113   1.828
  293TCM    cl2 1630   0.241   1.070   2.093
  293TCM     h1 1631   0.471   1.056   2.030
  293TCM    cl3 1632   0.428   1.290   2.050
  294TCM     c1 1633   2.684   3.616   1.254
  294TCM    cl1 1634   2.607   3.527   1.119
  294TCM    cl2 1635   2.630   3.545   1.409
  294TCM     h1 1636   2.793   3.610   1.245
  294TCM    cl3 1637   2.634   3.788   1.246
  295TCM     c1 1638   2.248   2.369   4.341
  295TCM    cl1 1639   2.290   2.315   4.175
  295TCM    cl2 1640   2.390   2.345   4.449
  295TCM     h1 1641   2.222   2.475   4.340
  295TCM    cl3 1642   2.110   2.274   4.403
  296TCM     c1 1643   0.263   2.016   0.672
  296TCM    cl1 1644   0.428   2.006   0.601
  296TCM    cl2 1645   0.232   2.185   0.725
  296TCM     h1 1646   0.189   1.986   0.598
  296TCM    cl3 1647   0.255   1.909   0.815
  297TCM     c1 1648   2.560   0.068   1.612
  297TCM    cl1 1649   2.676  -0.024   1.713
  297TCM    cl2 1650   2.516   0.219   1.698
  297TCM     h1 1651   2.606   0.093   1.516
  297TCM    cl3 1652   2.413  -0.031   1.585
  298TCM     c1 1653   2.327   3.579   4.900
  298TCM    cl1 1654   2.429   3.502   4.773
  298TCM    cl2 1655   2.200   3.464   4.954
  298TCM     h1 1656   2.390   3.607   4.985
  298TCM    cl3 1657   2.248   3.725   4.832
  299TCM     c1 1658   0.188   3.349   4.981
  299TCM    cl1 1659   0.161   3.175   5.011
  299TCM    cl2 1660   0.254   3.372   4.816
  299TCM     h1 1661   0.094   3.403   4.991
  299TCM    cl3 1662   0.306   3.413   5.101
  300TCM     c1 1663   3.580   1.736   1.650
  300TCM    cl1 1664   3.510   1.846   1.773
  300TCM    cl2 1665   3.756   1.721   1.680
  300TCM     h1 1666   3.532   1.638   1.657
  300TCM    cl3 1667   3.554   1.804   1.485
  301TCM     c1 1668   1.998   2.938   2.596
  301TCM    cl1 1669   1.857   2.984   2.494
  301TCM    cl2 1670   2.108   2.834   2.500
  301TCM     h1 1671   2.051   3.029   2.627
  301TCM    cl3 1672   1.940   2.850   2.741
  302TCM     c1 1673   4.449   2.597   0.675
  302TCM    cl1 1674   4.402   2.651   0.511
  302TCM    cl2 1675   4.627   2.617   0.696
  302TCM     h1 1676   4.397   2.656   0.750
  302TCM    cl3 1677   4.406   2.424   0.694
  303TCM     c1 1678   0.116   4.182   1.354
  303TCM    cl1 1679   0.033   4.032   1.300
  303TCM    cl2 1680   0.070   4.317   1.245
  303TCM     h1 1681   0.086   4.206   1.456
  303TCM    cl3 1682   0.294   4.157   1.348
  304TCM     c1 1683   2.997   1.336   3.623
  304TCM    cl1 1684   3.107   1.259   3.503
  304TCM    cl2 1685   3.052   1.293   3.788
  304TCM     h1 1686   2.998   1.444   3.611
  304TCM    cl3 1687   2.830   1.275   3.599
  305TCM     c1 1688   1.003   3.672   1.895
  305TCM    cl1 1689   1.132   3.611   1.786
  305TCM    cl2 1690   1.078   3.734   2.046
  305TCM     h1 1691   0.948   3.752   1.845
  305TCM    cl3 1692   0.891   3.538   1.936
  306TCM     c1 1693   2.731   4.080   2.072
  306TCM    cl1 1694   2.819   3.978   1.954
  306TCM    cl2 1695   2.692   3.981   2.217
  306TCM     h1 1696   2.792   4.165   2.101
  306TCM    cl3 1697   2.579   4.137   1.995
  307TCM     c1 1698   1.175   2.820   2.200
  307TCM    cl1 1699   1.224   2.936   2.072
  307TCM    cl2 1700   1.153   2.910   2.354
  307TCM     h1 1701   1.082   2.771   2.172
  307TCM    cl3 1702   1.304   2.697   2.221
  308TCM     c1 1703   4.572   4.967   0.096
  308TCM    cl1 1704   4.721   4.944  -0.002
  308TCM    cl2 1705   4.617   5.013   0.263
  308TCM     h1 1706   4.510   5.045   0.052
  308TCM    cl3 1707   4.480   4.813   0.100
  309TCM     c1 1708   4.228   4.842   2.730
  309TCM    cl1 1709   4.164   4.995   2.662
  309TCM    cl2 1710   4.162   4.703   2.637
  309TCM     h1 1711   4.337   4.841   2.725
  309TCM    cl3 1712   4.176   4.828   2.902
  310TCM     c1 1713   1.377   4.947   3.142
  310TCM    cl1 1714   1.323   5.118   3.128
  310TCM    cl2 1715   1.556   4.940   3.130
  310TCM     h1 1716   1.346   4.907   3.239
  310TCM    cl3 1717   1.303   4.851   3.010
  311TCM     c1 1718   3.465   4.779   3.630
  311TCM    cl1 1719   3.564   4.870   3.748
  311TCM    cl2 1720   3.430   4.614   3.692
  311TCM     h1 1721   3.371   4.832   3.612
  311TCM    cl3 1722   3.556   4.765   3.476
  312TCM     c1 1723   3.502   2.113   4.763
  312TCM    cl1 1724   3.457   2.126   4.590
  312TCM    cl2 1725   3.664   2.187   4.789
  312TCM     h1 1726   3.428   2.165   4.824
  312TCM    cl3 1727   3.508   1.940   4.811
  313TCM     c1 1728   4.357   3.985   2.706
  313TCM    cl1 1729   4.390   4.160   2.733
  313TCM    cl2 1730   4.496   3.912   2.619
  313TCM     h1 1731   4.343   3.935   2.802
  313TCM    cl3 1732   4.210   3.967   2.606
  314TCM     c1 1733   4.574   2.683   2.282
  314TCM    cl1 1734   4.694   2.642   2.410
  314TCM    cl2 1735   4.535   2.858   2.292
  314TCM     h1 1736   4.617   2.660   2.184
  314TCM    cl3 1737   4.425   2.586   2.308
  315TCM     c1 1738   0.975   2.251   0.755
  315TCM    cl1 1739   1.040   2.200   0.914
  315TCM    cl2 1740   1.110   2.302   0.649
  315TCM     h1 1741   0.920   2.169   0.709
  315TCM    cl3 1742   0.865   2.391   0.779
  316TCM     c1 1743   0.606   1.782   4.078
  316TCM    cl1 1744   0.670   1.618   4.109
  316TCM    cl2 1745   0.726   1.904   4.131
  316TCM     h1 1746   0.586   1.795   3.971
  316TCM    cl3 1747   0.454   1.805   4.170
  317TCM     c1 1748   3.871   3.253   1.337
  317TCM    cl1 1749   3.991   3.356   1.252
  317TCM    cl2 1750   3.706   3.301   1.284
  317TCM     h1 1751   3.888   3.148   1.312
  317TCM    cl3 1752   3.888   3.278   1.513
  318TCM     c1 1753   0.218   4.631   2.125
  318TCM    cl1 1754   0.300   4.652   1.966
  318TCM    cl2 1755   0.301   4.733   2.247
  318TCM     h1 1756   0.113   4.662   2.116
  318TCM    cl3 1757   0.226   4.459   2.174
  319TCM     c1 1758   1.078   2.234   1.805
  319TCM    cl1 1759   1.237   2.316   1.791
  319TCM    cl2 1760   0.978   2.318   1.928
  319TCM     h1 1761   1.027   2.237   1.708
  319TCM    cl3 1762   1.103   2.063   1.854
  320TCM     c1 1763   0.390   2.224   4.128
  320TCM    cl1 1764   0.547   2.215   4.041
  320TCM    cl2 1765   0.410   2.160   4.295
  320TCM     h1 1766   0.358   2.328   4.133
  320TCM    cl3 1767   0.268   2.127   4.040
  321TCM     c1 1768   0.879   0.450   4.949
  321TCM    cl1 1769   0.800   0.566   5.060
  321TCM    cl2 1770   0.937   0.308   5.042
  321TCM     h1 1771   0.808   0.417   4.873
  321TCM    cl3 1772   1.018   0.530   4.868
  322TCM     c1 1773   3.248   2.821   1.181
  322TCM    cl1 1774   3.131   2.786   1.313
  322TCM    cl2 1775   3.257   2.999   1.160
  322TCM     h1 1776   3.346   2.782   1.207
  322TCM    cl3 1777   3.191   2.744   1.030
  323TCM     c1 1778   3.475   4.594   2.937
  323TCM    cl1 1779   3.520   4.694   3.080
  323TCM    cl2 1780   3.364   4.688   2.833
  323TCM     h1 1781   3.565   4.567   2.881
  323TCM    cl3 1782   3.392   4.446   2.993
  324TCM     c1 1783   4.349   3.197   0.073
  324TCM    cl1 1784   4.255   3.350   0.073
  324TCM    cl2 1785   4.444   3.187   0.225
  324TCM     h1 1786   4.281   3.112   0.067
  324TCM    cl3 1787   4.461   3.196  -0.067
  325TCM     c1 1788   4.282   2.648   2.650
  325TCM    cl1 1789   4.447   2.715   2.668
  325TCM    cl2 1790   4.165   2.755   2.734
  325TCM     h1 1791   4.256   2.641   2.544
  325TCM    cl3 1792   4.277   2.485   2.725
  326TCM     c1 1793   2.111   4.279   3.443
  326TCM    cl1 1794   2.204   4.134   3.494
  326TCM    cl2 1795   2.218   4.424   3.447
  326TCM     h1 1796   2.074   4.265   3.341
  326TCM    cl3 1797   1.973   4.305   3.555
  327TCM     c1 1798   3.449   2.030   0.936
  327TCM    cl1 1799   3.521   2.023   1.100
  327TCM    cl2 1800   3.335   2.169   0.929
  327TCM     h1 1801   3.528   2.044   0.862
  327TCM    cl3 1802   3.361   1.878   0.902
  328TCM     c1 1803   2.077   1.817   2.603
  328TCM    cl1 1804   2.056   1.864   2.775
  328TCM    cl2 1805   2.085   1.965   2.502
  328TCM     h1 1806   2.169   1.759   2.591
  328TCM    cl3 1807   1.937   1.717   2.551
  329TCM     c1 1808   2.657   2.792   3.197
  329TCM    cl1 1809   2.614   2.951   3.267
  329TCM    cl2 1810   2.509   2.716   3.128
  329TCM     h1 1811   2.731   2.805   3.118
  329TCM    cl3 1812   2.723   2.686   3.326
  330TCM     c1 1813   4.919   1.766   1.533
  330TCM    cl1 1814   4.868   1.847   1.381
  330TCM    cl2 1815   4.935   1.589   1.505
  330TCM     h1 1816   5.016   1.806   1.565
  330TCM    cl3 1817   4.796   1.795   1.660
  331TCM     c1 1818   1.656   0.912   3.502
  331TCM    cl1 1819   1.508   1.005   3.540
  331TCM    cl2 1820   1.760   0.901   3.648
  331TCM     h1 1821   1.628   0.811   3.469
  331TCM    cl3 1822   1.748   0.995   3.372
  332TCM     c1 1823   3.162   4.131   2.108
  332TCM    cl1 1824   3.097   3.980   2.180
  332TCM    cl2 1825   3.050   4.267   2.145
  332TCM     h1 1826   3.260   4.152   2.151
  332TCM    cl3 1827   3.176   4.113   1.931
  333TCM     c1 1828   1.989   3.336   0.388
  333TCM    cl1 1829   2.056   3.483   0.310
  333TCM    cl2 1830   1.826   3.372   0.454
  333TCM     h1 1831   1.982   3.256   0.315
  333TCM    cl3 1832   2.096   3.284   0.523
  334TCM     c1 1833   4.549   2.007   3.188
  334TCM    cl1 1834   4.580   1.989   3.012
  334TCM    cl2 1835   4.377   1.966   3.222
  334TCM     h1 1836   4.614   1.940   3.244
  334TCM    cl3 1837   4.581   2.176   3.237
  335TCM     c1 1838   2.274   3.684   1.214
  335TCM    cl1 1839   2.318   3.736   1.380
  335TCM    cl2 1840   2.297   3.819   1.099
  335TCM     h1 1841   2.336   3.599   1.185
  335TCM    cl3 1842   2.101   3.636   1.213
  336TCM     c1 1843   0.843   4.700   4.619
  336TCM    cl1 1844   0.964   4.808   4.695
  336TCM    cl2 1845   0.690   4.707   4.713
  336TCM     h1 1846   0.824   4.732   4.516
  336TCM    cl3 1847   0.905   4.532   4.620
  337TCM     c1 1848   3.420   3.083   3.473
  337TCM    cl1 1849   3.399   2.998   3.630
  337TCM    cl2 1850   3.302   3.019   3.354
  337TCM     h1 1851   3.403   3.190   3.487
  337TCM    cl3 1852   3.586   3.055   3.412
  338TCM     c1 1853   3.670   3.690   1.098
  338TCM    cl1 1854   3.846   3.654   1.087
  338TCM    cl2 1855   3.628   3.720   1.270
  338TCM     h1 1856   3.647   3.779   1.039
  338TCM    cl3 1857   3.576   3.550   1.037
  339TCM     c1 1858   2.556   0.978   3.637
  339TCM    cl1 1859   2.430   1.038   3.749
  339TCM    cl2 1860   2.498   0.994   3.467
  339TCM     h1 1861   2.648   1.036   3.650
  339TCM    cl3 1862   2.587   0.805   3.673
  340TCM     c1 1863   2.111   3.341   4.533
  340TCM    cl1 1864   1.975   3.251   4.460
  340TCM    cl2 1865   2.183   3.244   4.666
  340TCM     h1 1866   2.187   3.360   4.457
  340TCM    cl3 1867   2.051   3.497   4.598
  341TCM     c1 1868   4.102   3.812   3.038
  341TCM    cl1 1869   4.106   3.740   2.874
  341TCM    cl2 1870   3.932   3.824   3.093
  341TCM     h1 1871   4.159   3.750   3.107
  341TCM    cl3 1872   4.173   3.976   3.031
  342TCM     c1 1873   2.237   0.048   4.648
  342TCM    cl1 1874   2.414   0.017   4.651
  342TCM    cl2 1875   2.182   0.057   4.478
  342TCM     h1 1876   2.185  -0.033   4.699
  342TCM    cl3 1877   2.204   0.204   4.731
  343TCM     c1 1878   3.102   1.936   4.777
  343TCM    cl1 1879   3.130   1.939   4.600
  343TCM    cl2 1880   2.928   1.908   4.809
  343TCM     h1 1881   3.161   1.856   4.822
  343TCM    cl3 1882   3.149   2.094   4.848
  344TCM     c1 1883   0.248   0.476   3.905
  344TCM    cl1 1884   0.318   0.433   4.065
  344TCM    cl2 1885   0.090   0.393   3.887
  344TCM     h1 1886   0.233   0.585   3.900
  344TCM    cl3 1887   0.358   0.424   3.774
  345TCM     c1 1888   3.135   0.793   1.926
  345TCM    cl1 1889   3.109   0.940   1.827
  345TCM    cl2 1890   3.303   0.789   1.989
  345TCM     h1 1891   3.065   0.793   2.010
  345TCM    cl3 1892   3.108   0.646   1.826
  346TCM     c1 1893   2.802   4.961   2.503
  346TCM    cl1 1894   2.945   5.069   2.494
  346TCM    cl2 1895   2.833   4.812   2.409
  346TCM     h1 1896   2.783   4.935   2.607
  346TCM    cl3 1897   2.658   5.045   2.436
  347TCM     c1 1898   2.430   4.224   2.405
  347TCM    cl1 1899   2.499   4.126   2.538
  347TCM    cl2 1900   2.351   4.116   2.285
  347TCM     h1 1901   2.355   4.293   2.445
  347TCM    cl3 1902   2.561   4.317   2.325
  348TCM     c1 1903   0.643   0.856   2.250
  348TCM    cl1 1904   0.821   0.864   2.274
  348TCM    cl2 1905   0.608   0.821   2.077
  348TCM     h1 1906   0.601   0.778   2.313
  348TCM    cl3 1907   0.570   1.014   2.293
  349TCM     c1 1908   2.227   4.368   2.921
  349TCM    cl1 1909   2.215   4.321   3.093
  349TCM    cl2 1910   2.082   4.464   2.875
  349TCM     h1 1911   2.317   4.428   2.906
  349TCM    cl3 1912   2.236   4.220   2.819
  350TCM     c1 1913   3.979   1.908   4.662
  350TCM    cl1 1914   4.112   1.844   4.560
  350TCM    cl2 1915   3.825   1.901   4.572
  350TCM     h1 1916   3.971   1.847   4.752
  350TCM    cl3 1917   4.016   2.077   4.708
  351TCM     c1 1918   4.982   0.193   4.983
  351TCM    cl1 1919   4.881   0.271   5.110
  351TCM    cl2 1920   5.144   0.270   4.981
  351TCM     h1 1921   4.992   0.086   5.004
  351TCM    cl3 1922   4.904   0.217   4.824
  352TCM     c1 1923   3.680   3.494   0.086
  352TCM    cl1 1924   3.842   3.418   0.083
  352TCM    cl2 1925   3.665   3.589   0.238
  352TCM     h1 1926   3.668   3.560  -0.001
  352TCM    cl3 1927   3.553   3.367   0.083
  353TCM     c1 1928   1.894   2.315   2.581
  353TCM    cl1 1929   1.857   2.255   2.416
  353TCM    cl2 1930   1.741   2.351   2.668
  353TCM     h1 1931   1.950   2.238   2.635
  353TCM    cl3 1932   1.993   2.465   2.570
  354TCM     c1 1933   1.855   3.890   1.465
  354TCM    cl1 1934   1.788   3.777   1.343
  354TCM    cl2 1935   1.763   4.044   1.460
  354TCM     h1 1936   1.847   3.846   1.565
  354TCM    cl3 1937   2.027   3.923   1.428
  355TCM     c1 1938   4.059   3.473   1.765
  355TCM    cl1 1939   4.183   3.344   1.780
  355TCM    cl2 1940   4.127   3.628   1.824
  355TCM     h1 1941   4.030   3.484   1.660
  355TCM    cl3 1942   3.916   3.430   1.864
  356TCM     c1 1943   2.282   4.417   0.535
  356TCM    cl1 1944   2.296   4.344   0.698
  356TCM    cl2 1945   2.446   4.444   0.469
  356TCM     h1 1946   2.226   4.350   0.469
  356TCM    cl3 1947   2.196   4.574   0.547
  357TCM     c1 1948   2.733   2.212   4.538
  357TCM    cl1 1949   2.789   2.055   4.473
  357TCM    cl2 1950   2.773   2.342   4.421
  357TCM     h1 1951   2.625   2.209   4.555
  357TCM    cl3 1952   2.818   2.244   4.693
  358TCM     c1 1953   1.479   3.090   2.468
  358TCM    cl1 1954   1.519   2.974   2.338
  358TCM    cl2 1955   1.584   3.235   2.451
  358TCM     h1 1956   1.375   3.120   2.460
  358TCM    cl3 1957   1.507   3.014   2.628
  359TCM     c1 1958   0.619   4.088   4.707
  359TCM    cl1 1959   0.702   3.974   4.818
  359TCM    cl2 1960   0.476   4.006   4.635
  359TCM     h1 1961   0.586   4.176   4.763
  359TCM    cl3 1962   0.731   4.136   4.576
  360TCM     c1 1963   0.050   2.229   1.540
  360TCM    cl1 1964  -0.116   2.278   1.492
  360TCM    cl2 1965   0.146   2.194   1.392
  360TCM     h1 1966   0.097   2.309   1.597
  360TCM    cl3 1967   0.040   2.080   1.640
  361TCM     c1 1968   4.257   0.574   4.115
  361TCM    cl1 1969   4.093   0.646   4.124
  361TCM    cl2 1970   4.291   0.491   4.271
  361TCM     h1 1971   4.261   0.502   4.033
  361TCM    cl3 1972   4.379   0.703   4.090
  362TCM     c1 1973   4.074   0.860   0.053
  362TCM    cl1 1974   4.020   0.696   0.003
  362TCM    cl2 1975   4.182   0.846   0.196
  362TCM     h1 1976   4.128   0.907  -0.029
  362TCM    cl3 1977   3.930   0.959   0.095
  363TCM     c1 1978   1.872   1.415   3.544
  363TCM    cl1 1979   1.835   1.589   3.567
  363TCM    cl2 1980   1.874   1.377   3.368
  363TCM     h1 1981   1.969   1.393   3.588
  363TCM    cl3 1982   1.745   1.316   3.623
  364TCM     c1 1983   0.107   1.577   1.903
  364TCM    cl1 1984  -0.069   1.551   1.923
  364TCM    cl2 1985   0.135   1.725   1.805
  364TCM     h1 1986   0.154   1.588   2.002
  364TCM    cl3 1987   0.178   1.436   1.819
  365TCM     c1 1988   1.643   0.280   3.244
  365TCM    cl1 1989   1.610   0.322   3.073
  365TCM    cl2 1990   1.546   0.387   3.349
  365TCM     h1 1991   1.616   0.176   3.262
  365TCM    cl3 1992   1.818   0.303   3.277
  366TCM     c1 1993   1.962   3.991   1.062
  366TCM    cl1 1994   2.072   4.118   0.999
  366TCM    cl2 1995   1.958   3.854   0.947
  366TCM     h1 1996   1.999   3.956   1.159
  366TCM    cl3 1997   1.797   4.059   1.081
  367TCM     c1 1998   3.258   1.643   4.189
  367TCM    cl1 1999   3.154   1.653   4.336
  367TCM    cl2 2000   3.160   1.586   4.050
  367TCM     h1 2001   3.300   1.741   4.167
  367TCM    cl3 2002   3.391   1.526   4.219
  368TCM     c1 2003   2.098   3.537   4.110
  368TCM    cl1 2004   2.147   3.369   4.149
  368TCM    cl2 2005   1.977   3.594   4.230
  368TCM     h1 2006   2.186   3.602   4.113
  368TCM    cl3 2007   2.026   3.543   3.945
  369TCM     c1 2008   2.887   0.627   4.654
  369TCM    cl1 2009   2.773   0.624   4.515
  369TCM    cl2 2010   2.800   0.574   4.801
  369TCM     h1 2011   2.971   0.561   4.634
  369TCM    cl3 2012   2.947   0.795   4.677
  370TCM     c1 2013   2.847   2.593   2.314
  370TCM    cl1 2014   3.015   2.607   2.252
  370TCM    cl2 2015   2.731   2.599   2.178
  370TCM     h1 2016   2.836   2.498   2.368
  370TCM    cl3 2017   2.813   2.729   2.427
  371TCM     c1 2018   4.568   4.018   0.688
  371TCM    cl1 2019   4.715   3.994   0.587
  371TCM    cl2 2020   4.559   4.190   0.737
  371TCM     h1 2021   4.479   3.992   0.630
  371TCM    cl3 2022   4.578   3.914   0.834
  372TCM     c1 2023   1.834   2.535   4.270
  372TCM    cl1 2024   1.718   2.654   4.201
  372TCM    cl2 2025   1.963   2.623   4.360
  372TCM     h1 2026   1.781   2.468   4.338
  372TCM    cl3 2027   1.908   2.440   4.138
  373TCM     c1 2028   2.610   3.988   4.270
  373TCM    cl1 2029   2.633   4.103   4.406
  373TCM    cl2 2030   2.438   3.940   4.261
  373TCM     h1 2031   2.640   4.035   4.176
  373TCM    cl3 2032   2.712   3.843   4.299
  374TCM     c1 2033   4.533   0.068   2.861
  374TCM    cl1 2034   4.543  -0.098   2.928
  374TCM    cl2 2035   4.383   0.147   2.920
  374TCM     h1 2036   4.620   0.126   2.893
  374TCM    cl3 2037   4.528   0.059   2.682
  375TCM     c1 2038   1.748   3.485   1.965
  375TCM    cl1 2039   1.839   3.350   1.889
  375TCM    cl2 2040   1.850   3.633   1.964
  375TCM     h1 2041   1.656   3.504   1.909
  375TCM    cl3 2042   1.707   3.443   2.134
  376TCM     c1 2043   3.139   0.472   0.882
  376TCM    cl1 2044   3.038   0.414   1.019
  376TCM    cl2 2045   3.164   0.339   0.765
  376TCM     h1 2046   3.088   0.556   0.832
  376TCM    cl3 2047   3.297   0.528   0.946
  377TCM     c1 2048   4.946   3.784   3.222
  377TCM    cl1 2049   4.870   3.908   3.117
  377TCM    cl2 2050   4.883   3.622   3.177
  377TCM     h1 2051   5.054   3.786   3.209
  377TCM    cl3 2052   4.904   3.819   3.392
  378TCM     c1 2053   2.688   2.614   4.784
  378TCM    cl1 2054   2.793   2.534   4.906
  378TCM    cl2 2055   2.545   2.511   4.750
  378TCM     h1 2056   2.655   2.711   4.822
  378TCM    cl3 2057   2.782   2.637   4.633
  379TCM     c1 2058   1.738   0.338   0.253
  379TCM    cl1 2059   1.784   0.495   0.326
  379TCM    cl2 2060   1.817   0.322   0.092
  379TCM     h1 2061   1.771   0.256   0.318
  379TCM    cl3 2062   1.560   0.332   0.233
  380TCM     c1 2063   2.711   0.146   2.042
  380TCM    cl1 2064   2.664  -0.023   2.081
  380TCM    cl2 2065   2.835   0.202   2.159
  380TCM     h1 2066   2.751   0.151   1.940
  380TCM    cl3 2067   2.567   0.253   2.056
  381TCM     c1 2068   1.672   3.479   4.455
  381TCM    cl1 2069   1.537   3.520   4.344
  381TCM    cl2 2070   1.632   3.329   4.544
  381TCM     h1 2071   1.764   3.465   4.398
  381TCM    cl3 2072   1.694   3.613   4.572
  382TCM     c1 2073   0.483   2.508   0.609
  382TCM    cl1 2074   0.623   2.618   0.635
  382TCM    cl2 2075   0.372   2.521   0.750
  382TCM     h1 2076   0.431   2.535   0.518
  382TCM    cl3 2077   0.543   2.339   0.597
  383TCM     c1 2078   2.793   0.010   3.300
  383TCM    cl1 2079   2.882   0.096   3.170
  383TCM    cl2 2080   2.904  -0.108   3.377
  383TCM     h1 2081   2.757   0.081   3.374
  383TCM    cl3 2082   2.654  -0.079   3.229
  384TCM     c1 2083   2.105   2.920   1.060
  384TCM    cl1 2084   2.206   2.914   0.912
  384TCM    cl2 2085   2.209   2.964   1.200
  384TCM     h1 2086   2.026   2.995   1.048
  384TCM    cl3 2087   2.033   2.759   1.088
  385TCM     c1 2088   3.023   4.943   4.267
  385TCM    cl1 2089   2.879   5.046   4.240
  385TCM    cl2 2090   3.005   4.791   4.175
  385TCM     h1 2091   3.113   4.995   4.235
  385TCM    cl3 2092   3.035   4.902   4.442
  386TCM     c1 2093   4.953   0.259   4.197
  386TCM    cl1 2094   5.104   0.163   4.213
  386TCM    cl2 2095   4.871   0.269   4.357
  386TCM     h1 2096   4.977   0.359   4.161
  386TCM    cl3 2097   4.843   0.178   4.082
  387TCM     c1 2098   2.440   2.355   3.828
  387TCM    cl1 2099   2.544   2.493   3.876
  387TCM    cl2 2100   2.508   2.277   3.681
  387TCM     h1 2101   2.436   2.282   3.909
  387TCM    cl3 2102   2.274   2.415   3.793
  388TCM     c1 2103   0.827   1.336   4.958
  388TCM    cl1 2104   0.910   1.262   4.817
  388TCM    cl2 2105   0.916   1.483   5.009
  388TCM     h1 2106   0.725   1.363   4.930
  388TCM    cl3 2107   0.823   1.218   5.093
  389TCM     c1 2108   4.562   2.762   1.835
  389TCM    cl1 2109   4.434   2.697   1.942
  389TCM    cl2 2110   4.708   2.799   1.932
  389TCM     h1 2111   4.587   2.688   1.758
  389TCM    cl3 2112   4.504   2.912   1.756
  390TCM     c1 2113   2.934   3.131   0.351
  390TCM    cl1 2114   2.830   3.083   0.213
  390TCM    cl2 2115   3.040   3.267   0.300
  390TCM     h1 2116   2.872   3.163   0.435
  390TCM    cl3 2117   3.036   2.992   0.400
  391TCM     c1 2118   2.432   4.607   1.285
  391TCM    cl1 2119   2.358   4.768   1.257
  391TCM    cl2 2120   2.309   4.479   1.255
  391TCM     h1 2121   2.517   4.593   1.218
  391TCM    cl3 2122   2.487   4.597   1.456
  392TCM     c1 2123   2.671   3.824   4.701
  392TCM    cl1 2124   2.763   3.681   4.645
  392TCM    cl2 2125   2.634   3.808   4.876
  392TCM     h1 2126   2.730   3.915   4.685
  392TCM    cl3 2127   2.517   3.835   4.610
  393TCM     c1 2128   3.782   3.852   2.664
  393TCM    cl1 2129   3.864   3.991   2.742
  393TCM    cl2 2130   3.719   3.742   2.790
  393TCM     h1 2131   3.700   3.888   2.602
  393TCM    cl3 2132   3.900   3.763   2.561
  394TCM     c1 2133   2.129   1.427   2.323
  394TCM    cl1 2134   2.075   1.307   2.444
  394TCM    cl2 2135   2.238   1.546   2.402
  394TCM     h1 2136   2.183   1.376   2.243
  394TCM    cl3 2137   1.987   1.512   2.256
  395TCM     c1 2138   4.744   2.161   0.532
  395TCM    cl1 2139   4.653   2.032   0.447
  395TCM    cl2 2140   4.682   2.321   0.479
  395TCM     h1 2141   4.731   2.151   0.640
  395TCM    cl3 2142   4.917   2.149   0.489
  396TCM     c1 2143   3.974   0.370   3.089
  396TCM    cl1 2144   3.846   0.329   3.208
  396TCM    cl2 2145   3.917   0.506   2.986
  396TCM     h1 2146   4.065   0.400   3.142
  396TCM    cl3 2147   4.008   0.227   2.986
  397TCM     c1 2148   4.766   2.239   0.127
  397TCM    cl1 2149   4.871   2.095   0.134
  397TCM    cl2 2150   4.693   2.249  -0.037
  397TCM     h1 2151   4.686   2.230   0.201
  397TCM    cl3 2152   4.864   2.386   0.160
  398TCM     c1 2153   3.188   1.118   0.937
  398TCM    cl1 2154   3.087   1.099   0.790
  398TCM    cl2 2155   3.253   1.286   0.943
  398TCM     h1 2156   3.127   1.099   1.025
  398TCM    cl3 2157   3.324   1.001   0.931
  399TCM     c1 2158   2.611   4.252   4.737
  399TCM    cl1 2159   2.604   4.424   4.788
  399TCM    cl2 2160   2.458   4.170   4.782
  399TCM     h1 2161   2.625   4.247   4.629
  399TCM    cl3 2162   2.746   4.170   4.820
  400TCM     c1 2163   1.228   0.089   0.439
  400TCM    cl1 2164   1.405   0.072   0.461
  400TCM    cl2 2165   1.142  -0.035   0.537
  400TCM     h1 2166   1.196   0.189   0.470
  400TCM    cl3 2167   1.188   0.065   0.265
  401TCM     c1 2168   1.273   3.239   4.347
  401TCM    cl1 2169   1.290   3.217   4.524
  401TCM    cl2 2170   1.124   3.154   4.292
  401TCM     h1 2171   1.264   3.346   4.325
  401TCM    cl3 2172   1.416   3.171   4.263
  402TCM     c1 2173   1.383   2.175   2.111
  402TCM    cl1 2174   1.302   2.299   2.214
  402TCM    cl2 2175   1.311   2.015   2.146
  402TCM     h1 2176   1.368   2.200   2.006
  402TCM    cl3 2177   1.559   2.171   2.146
  403TCM     c1 2178   0.968   1.158   0.626
  403TCM    cl1 2179   0.949   1.214   0.456
  403TCM    cl2 2180   1.121   1.222   0.693
  403TCM     h1 2181   0.884   1.194   0.686
  403TCM    cl3 2182   0.971   0.979   0.629
  404TCM     c1 2183   0.478   0.232   3.269
  404TCM    cl1 2184   0.484   0.234   3.449
  404TCM    cl2 2185   0.617   0.324   3.204
  404TCM     h1 2186   0.483   0.128   3.234
  404TCM    cl3 2187   0.325   0.307   3.213
  405TCM     c1 2188   2.584   3.547   0.306
  405TCM    cl1 2189   2.632   3.690   0.210
  405TCM    cl2 2190   2.724   3.437   0.324
  405TCM     h1 2191   2.550   3.579   0.405
  405TCM    cl3 2192   2.451   3.462   0.221
  406TCM     c1 2193   4.898   1.705   0.732
  406TCM    cl1 2194   4.922   1.771   0.897
  406TCM    cl2 2195   4.957   1.822   0.610
  406TCM     h1 2196   4.953   1.611   0.721
  406TCM    cl3 2197   4.723   1.676   0.704
  407TCM     c1 2198   3.241   4.484   4.106
  407TCM    cl1 2199   3.131   4.510   3.967
  407TCM    cl2 2200   3.411   4.502   4.051
  407TCM     h1 2201   3.220   4.557   4.184
  407TCM    cl3 2202   3.218   4.317   4.169
  408TCM     c1 2203   0.218   2.920   3.394
  408TCM    cl1 2204   0.225   2.758   3.316
  408TCM    cl2 2205   0.184   3.045   3.270
  408TCM     h1 2206   0.138   2.921   3.469
  408TCM    cl3 2207   0.375   2.955   3.473
  409TCM     c1 2208   2.688   0.594   1.926
  409TCM    cl1 2209   2.765   0.749   1.879
  409TCM    cl2 2210   2.783   0.458   1.857
  409TCM     h1 2211   2.686   0.585   2.035
  409TCM    cl3 2212   2.521   0.588   1.861
  410TCM     c1 2213   4.624   4.720   4.205
  410TCM    cl1 2214   4.693   4.820   4.073
  410TCM    cl2 2215   4.634   4.546   4.161
  410TCM     h1 2216   4.679   4.738   4.298
  410TCM    cl3 2217   4.451   4.764   4.228
  411TCM     c1 2218   3.658   0.810   1.920
  411TCM    cl1 2219   3.620   0.653   1.842
  411TCM    cl2 2220   3.597   0.945   1.819
  411TCM     h1 2221   3.611   0.814   2.019
  411TCM    cl3 2222   3.836   0.825   1.938
  412TCM     c1 2223   2.325   4.698   2.275
  412TCM    cl1 2224   2.285   4.776   2.432
  412TCM    cl2 2225   2.263   4.529   2.277
  412TCM     h1 2226   2.278   4.753   2.194
  412TCM    cl3 2227   2.503   4.695   2.254
  413TCM     c1 2228   2.171   2.457   0.896
  413TCM    cl1 2229   2.056   2.325   0.858
  413TCM    cl2 2230   2.161   2.584   0.769
  413TCM     h1 2231   2.147   2.500   0.993
  413TCM    cl3 2232   2.338   2.390   0.898
  414TCM     c1 2233   1.860   4.362   0.311
  414TCM    cl1 2234   1.730   4.348   0.189
  414TCM    cl2 2235   1.876   4.532   0.364
  414TCM     h1 2236   1.836   4.299   0.398
  414TCM    cl3 2237   2.016   4.308   0.240
  415TCM     c1 2238   3.522   1.009   2.285
  415TCM    cl1 2239   3.663   1.060   2.187
  415TCM    cl2 2240   3.518   0.829   2.293
  415TCM     h1 2241   3.530   1.050   2.386
  415TCM    cl3 2242   3.371   1.069   2.208
  416TCM     c1 2243   3.316   4.000   0.970
  416TCM    cl1 2244   3.170   4.025   0.868
  416TCM    cl2 2245   3.266   3.989   1.142
  416TCM     h1 2246   3.366   3.908   0.941
  416TCM    cl3 2247   3.427   4.140   0.948
  417TCM     c1 2248   1.652   4.052   1.890
  417TCM    cl1 2249   1.789   3.966   1.813
  417TCM    cl2 2250   1.545   4.121   1.764
  417TCM     h1 2251   1.595   3.982   1.952
  417TCM    cl3 2252   1.715   4.185   1.993
  418TCM     c1 2253   4.629   2.511   2.921
  418TCM    cl1 2254   4.653   2.507   3.098
  418TCM    cl2 2255   4.600   2.344   2.860
  418TCM     h1 2256   4.542   2.573   2.897
  418TCM    cl3 2257   4.775   2.578   2.841
  419TCM     c1 2258   1.358   0.936   2.167
  419TCM    cl1 2259   1.309   1.108   2.153
  419TCM    cl2 2260   1.215   0.830   2.145
  419TCM     h1 2261   1.433   0.913   2.090
  419TCM    cl3 2262   1.429   0.906   2.329
  420TCM     c1 2263   0.929   4.066   0.190
  420TCM    cl1 2264   0.965   4.118   0.023
  420TCM    cl2 2265   0.859   4.203   0.282
  420TCM     h1 2266   0.857   3.984   0.188
  420TCM    cl3 2267   1.080   4.011   0.270
  421TCM     c1 2268   3.058   2.669   0.640
  421TCM    cl1 2269   3.065   2.631   0.465
  421TCM    cl2 2270   3.065   2.517   0.736
  421TCM     h1 2271   3.142   2.733   0.667
  421TCM    cl3 2272   2.904   2.754   0.675
  422TCM     c1 2273   0.601   1.858   2.490
  422TCM    cl1 2274   0.672   2.020   2.457
  422TCM    cl2 2275   0.430   1.857   2.436
  422TCM     h1 2276   0.657   1.782   2.436
  422TCM    cl3 2277   0.608   1.825   2.666
  423TCM     c1 2278   2.455   0.523   4.710
  423TCM    cl1 2279   2.503   0.385   4.605
  423TCM    cl2 2280   2.448   0.467   4.880
  423TCM     h1 2281   2.529   0.603   4.701
  423TCM    cl3 2282   2.294   0.583   4.659
  424TCM     c1 2283   0.234   4.173   3.930
  424TCM    cl1 2284   0.272   4.299   4.053
  424TCM    cl2 2285   0.100   4.071   3.991
  424TCM     h1 2286   0.205   4.221   3.836
  424TCM    cl3 2287   0.379   4.071   3.903
  425TCM     c1 2288   4.648   3.874   1.200
  425TCM    cl1 2289   4.489   3.791   1.189
  425TCM    cl2 2290   4.776   3.754   1.237
  425TCM     h1 2291   4.670   3.923   1.104
  425TCM    cl3 2292   4.643   3.997   1.330
  426TCM     c1 2293   2.320   2.229   0.404
  426TCM    cl1 2294   2.227   2.290   0.263
  426TCM    cl2 2295   2.341   2.360   0.525
  426TCM     h1 2296   2.266   2.145   0.450
  426TCM    cl3 2297   2.481   2.172   0.350
  427TCM     c1 2298   3.115   2.423   1.856
  427TCM    cl1 2299   2.956   2.495   1.895
  427TCM    cl2 2300   3.090   2.256   1.796
  427TCM     h1 2301   3.165   2.483   1.780
  427TCM    cl3 2302   3.216   2.418   2.005
  428TCM     c1 2303   3.898   1.100   4.757
  428TCM    cl1 2304   4.071   1.121   4.796
  428TCM    cl2 2305   3.864   0.926   4.729
  428TCM     h1 2306   3.836   1.137   4.840
  428TCM    cl3 2307   3.859   1.193   4.608
  429TCM     c1 2308   0.586   1.924   4.517
  429TCM    cl1 2309   0.426   1.888   4.589
  429TCM    cl2 2310   0.668   1.770   4.476
  429TCM     h1 2311   0.574   1.985   4.427
  429TCM    cl3 2312   0.685   2.014   4.637
  430TCM     c1 2313   0.215   0.131   2.132
  430TCM    cl1 2314   0.324   0.035   2.026
  430TCM    cl2 2315   0.252   0.095   2.303
  430TCM     h1 2316   0.230   0.238   2.112
  430TCM    cl3 2317   0.044   0.086   2.098
  431TCM     c1 2318   3.419   0.246   1.169
  431TCM    cl1 2319   3.323   0.357   1.273
  431TCM    cl2 2320   3.308   0.157   1.059
  431TCM     h1 2321   3.491   0.303   1.111
  431TCM    cl3 2322   3.505   0.128   1.274
  432TCM     c1 2323   2.822   1.766   3.642
  432TCM    cl1 2324   2.904   1.868   3.519
  432TCM    cl2 2325   2.941   1.703   3.759
  432TCM     h1 2326   2.747   1.826   3.694
  432TCM    cl3 2327   2.742   1.628   3.559
  433TCM     c1 2328   3.509   2.632   3.595
  433TCM    cl1 2329   3.664   2.723   3.603
  433TCM    cl2 2330   3.542   2.456   3.606
  433TCM     h1 2331   3.445   2.662   3.678
  433TCM    cl3 2332   3.426   2.668   3.440
  434TCM     c1 2333   2.962   4.264   1.650
  434TCM    cl1 2334   2.889   4.331   1.500
  434TCM    cl2 2335   2.979   4.087   1.634
  434TCM     h1 2336   3.060   4.309   1.666
  434TCM    cl3 2337   2.855   4.301   1.790
  435TCM     c1 2338   0.280   0.965   4.099
  435TCM    cl1 2339   0.414   0.922   4.211
  435TCM    cl2 2340   0.191   0.817   4.051
  435TCM     h1 2341   0.212   1.034   4.149
  435TCM    cl3 2342   0.347   1.044   3.953
  436TCM     c1 2343   0.322   1.896   1.289
  436TCM    cl1 2344   0.467   1.818   1.217
  436TCM    cl2 2345   0.284   1.819   1.447
  436TCM     h1 2346   0.341   2.002   1.304
  436TCM    cl3 2347   0.182   1.875   1.179
  437TCM     c1 2348   4.775   2.490   1.206
  437TCM    cl1 2349   4.746   2.495   1.029
  437TCM    cl2 2350   4.645   2.582   1.289
  437TCM     h1 2351   4.774   2.386   1.240
  437TCM    cl3 2352   4.933   2.566   1.243
  438TCM     c1 2353   1.011   3.323   4.751
  438TCM    cl1 2354   0.956   3.259   4.910
  438TCM    cl2 2355   0.960   3.495   4.737
  438TCM     h1 2356   1.119   3.315   4.744
  438TCM    cl3 2357   0.935   3.227   4.619
  439TCM     c1 2358   3.246   1.191   1.450
  439TCM    cl1 2359   3.072   1.216   1.485
  439TCM    cl2 2360   3.263   1.134   1.281
  439TCM     h1 2361   3.301   1.285   1.463
  439TCM    cl3 2362   3.314   1.067   1.560
  440TCM     c1 2363   3.459   1.622   4.577
  440TCM    cl1 2364   3.323   1.636   4.693
  440TCM    cl2 2365   3.611   1.594   4.667
  440TCM     h1 2366   3.441   1.538   4.509
  440TCM    cl3 2367   3.473   1.774   4.482
  441TCM     c1 2368   0.348   3.917   4.306
  441TCM    cl1 2369   0.194   3.995   4.352
  441TCM    cl2 2370   0.469   4.043   4.263
  441TCM     h1 2371   0.386   3.857   4.389
  441TCM    cl3 2372   0.319   3.811   4.164
  442TCM     c1 2373   3.379   3.027   0.081
  442TCM    cl1 2374   3.324   2.896   0.190
  442TCM    cl2 2375   3.244   3.140   0.050
  442TCM     h1 2376   3.462   3.081   0.128
  442TCM    cl3 2377   3.434   2.956  -0.074
  443TCM     c1 2378   0.713   2.110   1.429
  443TCM    cl1 2379   0.702   1.943   1.495
  443TCM    cl2 2380   0.730   2.103   1.251
  443TCM     h1 2381   0.623   2.166   1.456
  443TCM    cl3 2382   0.857   2.191   1.499
  444TCM     c1 2383   4.100   4.928   0.192
  444TCM    cl1 2384   3.948   5.003   0.252
  444TCM    cl2 2385   4.200   4.876   0.332
  444TCM     h1 2386   4.076   4.842   0.130
  444TCM    cl3 2387   4.191   5.049   0.095
  445TCM     c1 2388   4.482   1.038   4.790
  445TCM    cl1 2389   4.557   1.199   4.764
  445TCM    cl2 2390   4.420   1.029   4.958
  445TCM     h1 2391   4.400   1.023   4.720
  445TCM    cl3 2392   4.606   0.910   4.766
  446TCM     c1 2393   3.022   0.472   3.387
  446TCM    cl1 2394   2.867   0.382   3.387
  446TCM    cl2 2395   3.024   0.586   3.526
  446TCM     h1 2396   3.105   0.403   3.396
  446TCM    cl3 2397   3.036   0.564   3.233
  447TCM     c1 2398   4.191   1.325   4.513
  447TCM    cl1 2399   4.308   1.454   4.557
  447TCM    cl2 2400   4.277   1.167   4.506
  447TCM     h1 2401   4.112   1.320   4.588
  447TCM    cl3 2402   4.120   1.361   4.352
  448TCM     c1 2403   4.822   2.041   3.599
  448TCM    cl1 2404   4.686   1.943   3.534
  448TCM    cl2 2405   4.838   2.191   3.503
  448TCM     h1 2406   4.801   2.066   3.704
  448TCM    cl3 2407   4.974   1.947   3.590
  449TCM     c1 2408   4.709   4.732   3.640
  449TCM    cl1 2409   4.721   4.621   3.500
  449TCM    cl2 2410   4.854   4.713   3.744
  449TCM     h1 2411   4.703   4.836   3.605
  449TCM    cl3 2412   4.562   4.693   3.736
  450TCM     c1 2413   3.300   0.323   3.779
  450TCM    cl1 2414   3.124   0.352   3.798
  450TCM    cl2 2415   3.354   0.390   3.621
  450TCM     h1 2416   3.354   0.373   3.860
  450TCM    cl3 2417   3.332   0.147   3.785
  451TCM     c1 2418   3.474   3.570   1.546
  451TCM    cl1 2419   3.640   3.523   1.593
  451TCM    cl2 2420   3.367   3.556   1.690
  451TCM     h1 2421   3.473   3.673   1.510
  451TCM    cl3 2422   3.414   3.461   1.417
  452TCM     c1 2423   0.485   4.794   1.179
  452TCM    cl1 2424   0.561   4.768   1.340
  452TCM    cl2 2425   0.469   4.636   1.095
  452TCM     h1 2426   0.387   4.839   1.193
  452TCM    cl3 2427   0.588   4.903   1.081
  453TCM     c1 2428   2.052   3.570   3.515
  453TCM    cl1 2429   2.221   3.509   3.507
  453TCM    cl2 2430   1.944   3.455   3.429
  453TCM     h1 2431   2.021   3.578   3.619
  453TCM    cl3 2432   2.043   3.731   3.435
  454TCM     c1 2433   4.083   3.677   1.361
  454TCM    cl1 2434   3.941   3.693   1.470
  454TCM    cl2 2435   4.215   3.594   1.450
  454TCM     h1 2436   4.056   3.618   1.274
  454TCM    cl3 2437   4.137   3.840   1.308
  455TCM     c1 2438   3.071   4.027   4.441
  455TCM    cl1 2439   2.972   4.111   4.316
  455TCM    cl2 2440   3.115   3.864   4.382
  455TCM     h1 2441   3.161   4.085   4.461
  455TCM    cl3 2442   2.975   4.012   4.592
  456TCM     c1 2443   1.637   2.128   4.698
  456TCM    cl1 2444   1.464   2.173   4.683
  456TCM    cl2 2445   1.706   2.102   4.535
  456TCM     h1 2446   1.691   2.208   4.749
  456TCM    cl3 2447   1.650   1.976   4.794
  457TCM     c1 2448   1.460   3.153   1.857
  457TCM    cl1 2449   1.460   3.318   1.787
  457TCM    cl2 2450   1.502   3.163   2.031
  457TCM     h1 2451   1.361   3.108   1.846
  457TCM    cl3 2452   1.583   3.053   1.773
  458TCM     c1 2453   1.826   4.641   1.343
  458TCM    cl1 2454   1.989   4.660   1.415
  458TCM    cl2 2455   1.805   4.760   1.209
  458TCM     h1 2456   1.814   4.540   1.304
  458TCM    cl3 2457   1.702   4.673   1.469
  459TCM     c1 2458   3.906   4.066   3.677
  459TCM    cl1 2459   3.985   4.227   3.691
  459TCM    cl2 2460   3.807   4.037   3.823
  459TCM     h1 2461   3.842   4.064   3.588
  459TCM    cl3 2462   4.032   3.940   3.665
  460TCM     c1 2463   0.451   0.926   3.575
  460TCM    cl1 2464   0.320   1.035   3.520
  460TCM    cl2 2465   0.380   0.794   3.675
  460TCM     h1 2466   0.502   0.883   3.489
  460TCM    cl3 2467   0.569   1.020   3.673
  461TCM     c1 2468   1.523   4.134   0.427
  461TCM    cl1 2469   1.583   4.265   0.534
  461TCM    cl2 2470   1.403   4.033   0.515
  461TCM     h1 2471   1.475   4.178   0.339
  461TCM    cl3 2472   1.662   4.033   0.374
  462TCM     c1 2473   3.121   4.987   4.986
  462TCM    cl1 2474   2.984   4.990   5.101
  462TCM    cl2 2475   3.058   4.963   4.819
  462TCM     h1 2476   3.176   5.081   4.991
  462TCM    cl3 2477   3.229   4.851   5.029
  463TCM     c1 2478   3.462   0.671   3.177
  463TCM    cl1 2479   3.340   0.755   3.076
  463TCM    cl2 2480   3.534   0.536   3.084
  463TCM     h1 2481   3.540   0.741   3.206
  463TCM    cl3 2482   3.382   0.606   3.325
  464TCM     c1 2483   4.721   4.302   3.899
  464TCM    cl1 2484   4.665   4.350   3.735
  464TCM    cl2 2485   4.875   4.386   3.935
  464TCM     h1 2486   4.646   4.329   3.973
  464TCM    cl3 2487   4.748   4.124   3.902
  465TCM     c1 2488   4.273   1.375   0.100
  465TCM    cl1 2489   4.200   1.523   0.170
  465TCM    cl2 2490   4.278   1.390  -0.079
  465TCM     h1 2491   4.374   1.362   0.138
  465TCM    cl3 2492   4.173   1.233   0.144
  466TCM     c1 2493   0.481   0.462   2.554
  466TCM    cl1 2494   0.606   0.549   2.460
  466TCM    cl2 2495   0.348   0.414   2.445
  466TCM     h1 2496   0.525   0.373   2.600
  466TCM    cl3 2497   0.417   0.570   2.682
  467TCM     c1 2498   0.272   1.984   2.124
  467TCM    cl1 2499   0.304   1.809   2.104
  467TCM    cl2 2500   0.183   2.045   1.980
  467TCM     h1 2501   0.213   2.001   2.214
  467TCM    cl3 2502   0.428   2.073   2.137
  468TCM     c1 2503   3.348   2.178   1.560
  468TCM    cl1 2504   3.449   2.201   1.413
  468TCM    cl2 2505   3.451   2.191   1.706
  468TCM     h1 2506   3.270   2.254   1.564
  468TCM    cl3 2507   3.271   2.016   1.553
  469TCM     c1 2508   2.496   0.778   4.149
  469TCM    cl1 2509   2.560   0.669   4.022
  469TCM    cl2 2510   2.442   0.680   4.290
  469TCM     h1 2511   2.574   0.847   4.181
  469TCM    cl3 2512   2.357   0.871   4.084
  470TCM     c1 2513   4.291   2.317   4.787
  470TCM    cl1 2514   4.295   2.463   4.891
  470TCM    cl2 2515   4.330   2.173   4.887
  470TCM     h1 2516   4.192   2.305   4.743
  470TCM    cl3 2517   4.414   2.333   4.658
  471TCM     c1 2518   3.640   0.619   2.728
  471TCM    cl1 2519   3.462   0.641   2.723
  471TCM    cl2 2520   3.713   0.756   2.817
  471TCM     h1 2521   3.664   0.525   2.779
  471TCM    cl3 2522   3.704   0.614   2.561
  472TCM     c1 2523   3.042   1.835   3.182
  472TCM    cl1 2524   3.092   1.730   3.045
  472TCM    cl2 2525   2.938   1.968   3.119
  472TCM     h1 2526   2.985   1.776   3.255
  472TCM    cl3 2527   3.187   1.905   3.260
  473TCM     c1 2528   3.598   1.425   1.415
  473TCM    cl1 2529   3.766   1.489   1.402
  473TCM    cl2 2530   3.589   1.310   1.552
  473TCM     h1 2531   3.529   1.507   1.431
  473TCM    cl3 2532   3.557   1.340   1.263
  474TCM     c1 2533   0.137   3.012   1.274
  474TCM    cl1 2534   0.068   3.123   1.397
  474TCM    cl2 2535   0.004   2.920   1.196
  474TCM     h1 2536   0.190   3.071   1.198
  474TCM    cl3 2537   0.249   2.897   1.353
  475TCM     c1 2538   2.463   3.566   4.347
  475TCM    cl1 2539   2.307   3.633   4.403
  475TCM    cl2 2540   2.473   3.586   4.169
  475TCM     h1 2541   2.546   3.618   4.395
  475TCM    cl3 2542   2.470   3.391   4.388
  476TCM     c1 2543   1.340   1.387   1.869
  476TCM    cl1 2544   1.381   1.499   2.003
  476TCM    cl2 2545   1.444   1.424   1.728
  476TCM     h1 2546   1.357   1.285   1.902
  476TCM    cl3 2547   1.168   1.408   1.823
  477TCM     c1 2548   4.377   2.365   0.292
  477TCM    cl1 2549   4.494   2.468   0.203
  477TCM    cl2 2550   4.401   2.194   0.242
  477TCM     h1 2551   4.394   2.374   0.399
  477TCM    cl3 2552   4.210   2.417   0.252
  478TCM     c1 2553   2.968   4.426   3.481
  478TCM    cl1 2554   2.828   4.536   3.503
  478TCM    cl2 2555   2.915   4.256   3.503
  478TCM     h1 2556   3.009   4.438   3.381
  478TCM    cl3 2557   3.095   4.466   3.602
  479TCM     c1 2558   5.001   3.669   0.188
  479TCM    cl1 2559   4.964   3.497   0.225
  479TCM    cl2 2560   4.853   3.769   0.209
  479TCM     h1 2561   5.078   3.705   0.256
  479TCM    cl3 2562   5.058   3.682   0.019
  480TCM     c1 2563   1.137   2.519   3.016
  480TCM    cl1 2564   1.056   2.644   3.116
  480TCM    cl2 2565   1.015   2.430   2.920
  480TCM     h1 2566   1.208   2.567   2.949
  480TCM    cl3 2567   1.224   2.405   3.123
  481TCM     c1 2568   2.329   2.558   1.308
  481TCM    cl1 2569   2.379   2.643   1.158
  481TCM    cl2 2570   2.238   2.409   1.264
  481TCM     h1 2571   2.417   2.531   1.367
  481TCM    cl3 2572   2.222   2.664   1.406
  482TCM     c1 2573   4.787   3.338   3.519
  482TCM    cl1 2574   4.837   3.301   3.351
  482TCM    cl2 2575   4.637   3.247   3.558
  482TCM     h1 2576   4.866   3.309   3.589
  482TCM    cl3 2577   4.755   3.514   3.535
  483TCM     c1 2578   2.366   4.707   3.139
  483TCM    cl1 2579   2.471   4.585   3.217
  483TCM    cl2 2580   2.195   4.679   3.186
  483TCM     h1 2581   2.396   4.807   3.171
  483TCM    cl3 2582   2.380   4.694   2.961
  484TCM     c1 2583   0.040   2.554   4.051
  484TCM    cl1 2584   0.135   2.705   4.062
  484TCM    cl2 2585  -0.133   2.591   4.080
  484TCM     h1 2586   0.052   2.510   3.952
  484TCM    cl3 2587   0.098   2.438   4.175
  485TCM     c1 2588   2.479   2.013   3.407
  485TCM    cl1 2589   2.517   1.918   3.554
  485TCM    cl2 2590   2.363   1.921   3.306
  485TCM     h1 2591   2.434   2.109   3.437
  485TCM    cl3 2592   2.629   2.043   3.314
  486TCM     c1 2593   1.839   0.354   3.783
  486TCM    cl1 2594   1.763   0.303   3.938
  486TCM    cl2 2595   1.874   0.530   3.790
  486TCM     h1 2596   1.932   0.299   3.768
  486TCM    cl3 2597   1.726   0.321   3.649
  487TCM     c1 2598   0.794   0.009   0.713
  487TCM    cl1 2599   0.674   0.113   0.797
  487TCM    cl2 2600   0.791   0.047   0.538
  487TCM     h1 2601   0.893   0.029   0.753
  487TCM    cl3 2602   0.751  -0.163   0.738
  488TCM     c1 2603   3.849   1.132   3.576
  488TCM    cl1 2604   3.791   1.198   3.732
  488TCM    cl2 2605   3.760   0.981   3.539
  488TCM     h1 2606   3.832   1.205   3.496
  488TCM    cl3 2607   4.025   1.097   3.588
  489TCM     c1 2608   3.177   4.693   3.180
  489TCM    cl1 2609   3.015   4.617   3.178
  489TCM    cl2 2610   3.228   4.716   3.351
  489TCM     h1 2611   3.249   4.629   3.129
  489TCM    cl3 2612   3.169   4.853   3.099
  490TCM     c1 2613   2.091   2.095   3.041
  490TCM    cl1 2614   1.997   2.195   2.925
  490TCM    cl2 2615   2.068   2.160   3.207
  490TCM     h1 2616   2.055   1.991   3.038
  490TCM    cl3 2617   2.265   2.101   2.999
  491TCM     c1 2618   1.364   0.607   0.111
  491TCM    cl1 2619   1.455   0.685   0.245
  491TCM    cl2 2620   1.329   0.729  -0.016
  491TCM     h1 2621   1.424   0.527   0.068
  491TCM    cl3 2622   1.210   0.540   0.175
  492TCM     c1 2623   2.002   4.174   4.088
  492TCM    cl1 2624   1.931   4.209   3.927
  492TCM    cl2 2625   1.980   4.317   4.194
  492TCM     h1 2626   1.953   4.087   4.132
  492TCM    cl3 2627   2.177   4.141   4.067
  493TCM     c1 2628   0.595   3.633   4.830
  493TCM    cl1 2629   0.614   3.640   4.652
  493TCM    cl2 2630   0.619   3.465   4.887
  493TCM     h1 2631   0.668   3.699   4.877
  493TCM    cl3 2632   0.430   3.689   4.874
  494TCM     c1 2633   4.910   2.771   1.540
  494TCM    cl1 2634   4.841   2.622   1.612
  494TCM    cl2 2635   5.010   2.856   1.663
  494TCM     h1 2636   4.972   2.746   1.454
  494TCM    cl3 2637   4.776   2.879   1.488
  495TCM     c1 2638   2.982   0.916   3.278
  495TCM    cl1 2639   3.123   0.896   3.387
  495TCM    cl2 2640   3.039   0.992   3.126
  495TCM     h1 2641   2.938   0.818   3.256
  495TCM    cl3 2642   2.860   1.021   3.357
  496TCM     c1 2643   4.864   1.195   1.872
  496TCM    cl1 2644   4.992   1.086   1.808
  496TCM    cl2 2645   4.876   1.203   2.051
  496TCM     h1 2646   4.877   1.295   1.830
  496TCM    cl3 2647   4.702   1.132   1.826
  497TCM     c1 2648   1.416   4.817   1.106
  497TCM    cl1 2649   1.310   4.774   0.967
  497TCM    cl2 2650   1.426   4.677   1.217
  497TCM     h1 2651   1.516   4.843   1.070
  497TCM    cl3 2652   1.344   4.957   1.193
  498TCM     c1 2653   2.496   2.904   3.610
  498TCM    cl1 2654   2.659   2.844   3.653
  498TCM    cl2 2655   2.499   3.083   3.596
  498TCM     h1 2656   2.465   2.860   3.515
  498TCM    cl3 2657   2.380   2.856   3.738
  499TCM     c1 2658   4.681   2.886   1.040
  499TCM    cl1 2659   4.746   2.944   0.884
  499TCM    cl2 2660   4.522   2.808   1.012
  499TCM     h1 2661   4.750   2.814   1.085
  499TCM    cl3 2662   4.660   3.026   1.150
  500TCM     c1 2663   1.539   0.012   0.093
  500TCM    cl1 2664   1.441  -0.135   0.064
  500TCM    cl2 2665   1.607   0.069  -0.062
  500TCM     h1 2666   1.475   0.090   0.136
  500TCM    cl3 2667   1.672  -0.025   0.208
  501TCM     c1 2668   0.913   1.560   2.845
  501TCM    cl1 2669   0.890   1.382   2.859
  501TCM    cl2 2670   1.076   1.605   2.906
  501TCM     h1 2671   0.904   1.589   2.740
  501TCM    cl3 2672   0.788   1.645   2.941
  502TCM     c1 2673   2.671   3.578   2.227
  502TCM    cl1 2674   2.747   3.438   2.144
  502TCM    cl2 2675   2.788   3.651   2.341
  502TCM     h1 2676   2.641   3.653   2.153
  502TCM    cl3 2677   2.527   3.523   2.318
  503TCM     c1 2678   1.311   0.428   2.875
  503TCM    cl1 2679   1.186   0.359   2.765
  503TCM    cl2 2680   1.236   0.464   3.034
  503TCM     h1 2681   1.392   0.356   2.888
  503TCM    cl3 2682   1.375   0.579   2.804
  504TCM     c1 2683   4.933   4.941   2.696
  504TCM    cl1 2684   4.822   4.801   2.708
  504TCM    cl2 2685   4.890   5.063   2.820
  504TCM     h1 2686   5.036   4.908   2.712
  504TCM    cl3 2687   4.920   5.015   2.532
  505TCM     c1 2688   2.371   3.843   3.223
  505TCM    cl1 2689   2.256   3.967   3.162
  505TCM    cl2 2690   2.531   3.867   3.146
  505TCM     h1 2691   2.380   3.851   3.331
  505TCM    cl3 2692   2.309   3.680   3.180
  506TCM     c1 2693   4.995   4.593   0.148
  506TCM    cl1 2694   5.055   4.707   0.024
  506TCM    cl2 2695   5.036   4.425   0.101
  506TCM     h1 2696   5.041   4.616   0.244
  506TCM    cl3 2697   4.817   4.610   0.161
  507TCM     c1 2698   1.396   3.977   4.939
  507TCM    cl1 2699   1.237   3.896   4.926
  507TCM    cl2 2700   1.525   3.852   4.948
  507TCM     h1 2701   1.413   4.040   4.851
  507TCM    cl3 2702   1.400   4.079   5.087
  508TCM     c1 2703   0.297   1.780   3.364
  508TCM    cl1 2704   0.202   1.698   3.236
  508TCM    cl2 2705   0.253   1.712   3.525
  508TCM     h1 2706   0.404   1.764   3.346
  508TCM    cl3 2707   0.261   1.956   3.361
  509TCM     c1 2708   4.324   4.843   4.706
  509TCM    cl1 2709   4.402   4.986   4.783
  509TCM    cl2 2710   4.255   4.891   4.548
  509TCM     h1 2711   4.398   4.764   4.692
  509TCM    cl3 2712   4.192   4.785   4.813
  510TCM     c1 2713   4.033   2.317   2.271
  510TCM    cl1 2714   4.168   2.200   2.254
  510TCM    cl2 2715   4.068   2.429   2.406
  510TCM     h1 2716   4.022   2.374   2.178
  510TCM    cl3 2717   3.880   2.227   2.304
  511TCM     c1 2718   3.152   4.641   1.720
  511TCM    cl1 2719   3.174   4.563   1.560
  511TCM    cl2 2720   3.292   4.748   1.753
  511TCM     h1 2721   3.059   4.700   1.720
  511TCM    cl3 2722   3.143   4.515   1.847
  512TCM     c1 2723   0.023   4.597   0.797
  512TCM    cl1 2724  -0.025   4.770   0.811
  512TCM    cl2 2725  -0.120   4.495   0.832
  512TCM     h1 2726   0.059   4.577   0.695
  512TCM    cl3 2727   0.152   4.561   0.915
  513TCM     c1 2728   3.760   4.865   4.870
  513TCM    cl1 2729   3.860   4.758   4.973
  513TCM    cl2 2730   3.821   4.864   4.702
  513TCM     h1 2731   3.656   4.830   4.872
  513TCM    cl3 2732   3.767   5.033   4.934
  514TCM     c1 2733   0.703   0.099   2.190
  514TCM    cl1 2734   0.603   0.227   2.265
  514TCM    cl2 2735   0.719   0.131   2.014
  514TCM     h1 2736   0.802   0.097   2.236
  514TCM    cl3 2737   0.622  -0.059   2.215
  515TCM     c1 2738   2.591   4.806   4.253
  515TCM    cl1 2739   2.413   4.800   4.281
  515TCM    cl2 2740   2.636   4.683   4.130
  515TCM     h1 2741   2.618   4.905   4.217
  515TCM    cl3 2742   2.677   4.773   4.407
  516TCM     c1 2743   4.276   3.957   1.713
  516TCM    cl1 2744   4.104   3.958   1.662
  516TCM    cl2 2745   4.325   4.123   1.760
  516TCM     h1 2746   4.288   3.890   1.799
  516TCM    cl3 2747   4.378   3.900   1.578
  517TCM     c1 2748   2.926   3.360   4.972
  517TCM    cl1 2749   3.073   3.457   5.005
  517TCM    cl2 2750   2.951   3.265   4.822
  517TCM     h1 2751   2.906   3.292   5.055
  517TCM    cl3 2752   2.785   3.470   4.951
  518TCM     c1 2753   2.529   0.322   4.255
  518TCM    cl1 2754   2.525   0.153   4.316
  518TCM    cl2 2755   2.462   0.326   4.089
  518TCM     h1 2756   2.469   0.386   4.321
  518TCM    cl3 2757   2.699   0.381   4.254
  519TCM     c1 2758   3.121   3.178   1.684
  519TCM    cl1 2759   3.130   3.270   1.531
  519TCM    cl2 2760   3.254   3.230   1.793
  519TCM     h1 2761   3.025   3.196   1.733
  519TCM    cl3 2762   3.139   3.003   1.648
  520TCM     c1 2763   4.765   2.893   3.328
  520TCM    cl1 2764   4.874   2.839   3.196
  520TCM    cl2 2765   4.863   2.956   3.464
  520TCM     h1 2766   4.698   2.971   3.291
  520TCM    cl3 2767   4.669   2.753   3.386
  521TCM     c1 2768   1.747   3.154   2.946
  521TCM    cl1 2769   1.843   3.250   3.063
  521TCM    cl2 2770   1.785   3.207   2.779
  521TCM     h1 2771   1.771   3.048   2.957
  521TCM    cl3 2772   1.572   3.179   2.977
  522TCM     c1 2773   2.574   4.092   1.634
  522TCM    cl1 2774   2.662   4.040   1.487
  522TCM    cl2 2775   2.424   3.996   1.649
  522TCM     h1 2776   2.637   4.077   1.722
  522TCM    cl3 2777   2.531   4.266   1.619
  523TCM     c1 2778   0.129   1.522   2.772
  523TCM    cl1 2779   0.008   1.569   2.648
  523TCM    cl2 2780   0.168   1.348   2.754
  523TCM     h1 2781   0.220   1.582   2.759
  523TCM    cl3 2782   0.061   1.550   2.936
  524TCM     c1 2783   4.218   3.238   2.844
  524TCM    cl1 2784   4.383   3.231   2.914
  524TCM    cl2 2785   4.131   3.380   2.911
  524TCM     h1 2786   4.225   3.248   2.736
  524TCM    cl3 2787   4.129   3.089   2.887
  525TCM     c1 2788   2.573   4.567   2.588
  525TCM    cl1 2789   2.719   4.480   2.648
  525TCM    cl2 2790   2.573   4.735   2.649
  525TCM     h1 2791   2.574   4.567   2.479
  525TCM    cl3 2792   2.425   4.484   2.646
  526TCM     c1 2793   2.906   3.085   2.167
  526TCM    cl1 2794   2.787   2.965   2.104
  526TCM    cl2 2795   2.991   3.162   2.029
  526TCM     h1 2796   2.854   3.161   2.225
  526TCM    cl3 2797   3.025   3.000   2.272
  527TCM     c1 2798   1.764   3.171   4.028
  527TCM    cl1 2799   1.864   3.219   3.886
  527TCM    cl2 2800   1.767   3.303   4.149
  527TCM     h1 2801   1.661   3.154   3.995
  527TCM    cl3 2802   1.831   3.022   4.101
  528TCM     c1 2803   4.913   1.736   0.106
  528TCM    cl1 2804   4.818   1.774  -0.041
  528TCM    cl2 2805   4.970   1.566   0.097
  528TCM     h1 2806   4.999   1.803   0.113
  528TCM    cl3 2807   4.810   1.754   0.252
  529TCM     c1 2808   1.934   2.971   2.106
  529TCM    cl1 2809   2.099   3.013   2.163
  529TCM    cl2 2810   1.931   2.967   1.927
  529TCM     h1 2811   1.906   2.873   2.146
  529TCM    cl3 2812   1.820   3.096   2.164
  530TCM     c1 2813   1.850   0.311   4.712
  530TCM    cl1 2814   1.940   0.438   4.623
  530TCM    cl2 2815   1.844   0.163   4.610
  530TCM     h1 2816   1.900   0.289   4.806
  530TCM    cl3 2817   1.683   0.369   4.745
  531TCM     c1 2818   0.241   4.977   3.840
  531TCM    cl1 2819   0.351   5.052   3.961
  531TCM    cl2 2820   0.234   5.082   3.695
  531TCM     h1 2821   0.279   4.879   3.813
  531TCM    cl3 2822   0.077   4.961   3.910
  532TCM     c1 2823   1.513   4.295   1.441
  532TCM    cl1 2824   1.415   4.428   1.510
  532TCM    cl2 2825   1.600   4.353   1.295
  532TCM     h1 2826   1.586   4.261   1.515
  532TCM    cl3 2827   1.405   4.159   1.397
  533TCM     c1 2828   4.774   0.630   4.179
  533TCM    cl1 2829   4.657   0.556   4.293
  533TCM    cl2 2830   4.770   0.541   4.023
  533TCM     h1 2831   4.747   0.735   4.162
  533TCM    cl3 2832   4.940   0.622   4.248
  534TCM     c1 2833   2.330   3.060   0.060
  534TCM    cl1 2834   2.250   2.977  -0.078
  534TCM    cl2 2835   2.209   3.157   0.150
  534TCM     h1 2836   2.375   2.986   0.126
  534TCM    cl3 2837   2.459   3.169  -0.004
  535TCM     c1 2838   2.501   4.135   1.165
  535TCM    cl1 2839   2.603   4.275   1.214
  535TCM    cl2 2840   2.434   4.165   1.001
  535TCM     h1 2841   2.561   4.044   1.163
  535TCM    cl3 2842   2.366   4.117   1.282
  536TCM     c1 2843   1.441   0.588   3.824
  536TCM    cl1 2844   1.406   0.413   3.845
  536TCM    cl2 2845   1.508   0.617   3.660
  536TCM     h1 2846   1.349   0.645   3.837
  536TCM    cl3 2847   1.561   0.639   3.948
  537TCM     c1 2848   1.271   1.038   2.815
  537TCM    cl1 2849   1.396   0.994   2.694
  537TCM    cl2 2850   1.199   0.888   2.883
  537TCM     h1 2851   1.316   1.097   2.895
  537TCM    cl3 2852   1.142   1.134   2.735
  538TCM     c1 2853   2.038   2.922   3.312
  538TCM    cl1 2854   1.984   2.908   3.141
  538TCM    cl2 2855   2.045   3.096   3.358
  538TCM     h1 2856   1.968   2.870   3.377
  538TCM    cl3 2857   2.202   2.851   3.329
  539TCM     c1 2858   3.612   4.012   3.021
  539TCM    cl1 2859   3.647   4.078   3.184
  539TCM    cl2 2860   3.575   4.146   2.907
  539TCM     h1 2861   3.700   3.957   2.985
  539TCM    cl3 2862   3.471   3.902   3.031
  540TCM     c1 2863   2.620   4.885   0.262
  540TCM    cl1 2864   2.702   4.734   0.312
  540TCM    cl2 2865   2.707   5.027   0.328
  540TCM     h1 2866   2.618   4.891   0.153
  540TCM    cl3 2867   2.452   4.884   0.325
  541TCM     c1 2868   1.586   3.541   3.836
  541TCM    cl1 2869   1.654   3.613   3.986
  541TCM    cl2 2870   1.515   3.380   3.874
  541TCM     h1 2871   1.509   3.606   3.796
  541TCM    cl3 2872   1.718   3.521   3.715
  542TCM     c1 2873   2.031   2.006   1.343
  542TCM    cl1 2874   2.199   2.029   1.402
  542TCM    cl2 2875   1.994   2.133   1.222
  542TCM     h1 2876   2.022   1.907   1.297
  542TCM    cl3 2877   1.917   2.018   1.481
  543TCM     c1 2878   2.949   4.872   3.754
  543TCM    cl1 2879   3.103   4.821   3.678
  543TCM    cl2 2880   2.983   5.000   3.876
  543TCM     h1 2881   2.882   4.912   3.677
  543TCM    cl3 2882   2.871   4.732   3.833
  544TCM     c1 2883   1.766   1.077   2.006
  544TCM    cl1 2884   1.615   1.171   1.981
  544TCM    cl2 2885   1.724   0.921   2.083
  544TCM     h1 2886   1.815   1.059   1.910
  544TCM    cl3 2887   1.876   1.170   2.113
  545TCM     c1 2888   2.240   2.650   0.301
  545TCM    cl1 2889   2.286   2.816   0.352
  545TCM    cl2 2890   2.250   2.639   0.122
  545TCM     h1 2891   2.307   2.578   0.347
  545TCM    cl3 2892   2.071   2.617   0.354
  546TCM     c1 2893   3.403   2.366   4.282
  546TCM    cl1 2894   3.483   2.457   4.413
  546TCM    cl2 2895   3.527   2.287   4.179
  546TCM     h1 2896   3.338   2.289   4.325
  546TCM    cl3 2897   3.306   2.478   4.181
  547TCM     c1 2898   0.522   0.439   1.914
  547TCM    cl1 2899   0.473   0.302   1.810
  547TCM    cl2 2900   0.411   0.453   2.054
  547TCM     h1 2901   0.624   0.423   1.950
  547TCM    cl3 2902   0.516   0.590   1.817
  548TCM     c1 2903   4.862   2.566   3.643
  548TCM    cl1 2904   4.818   2.715   3.734
  548TCM    cl2 2905   4.868   2.428   3.758
  548TCM     h1 2906   4.788   2.547   3.566
  548TCM    cl3 2907   5.024   2.588   3.569
  549TCM     c1 2908   4.178   4.499   0.751
  549TCM    cl1 2909   4.169   4.607   0.894
  549TCM    cl2 2910   4.267   4.582   0.619
  549TCM     h1 2911   4.231   4.407   0.778
  549TCM    cl3 2912   4.012   4.458   0.696
  550TCM     c1 2913   4.954   4.097   0.956
  550TCM    cl1 2914   4.933   3.919   0.950
  550TCM    cl2 2915   4.803   4.172   1.017
  550TCM     h1 2916   5.037   4.122   1.023
  550TCM    cl3 2917   4.990   4.157   0.791
  551TCM     c1 2918   2.149   2.009   3.688
  551TCM    cl1 2919   2.181   2.136   3.565
  551TCM    cl2 2920   2.270   2.022   3.820
  551TCM     h1 2921   2.049   2.022   3.729
  551TCM    cl3 2922   2.161   1.847   3.611
  552TCM     c1 2923   0.393   4.076   0.957
  552TCM    cl1 2924   0.294   3.948   1.035
  552TCM    cl2 2925   0.314   4.235   0.984
  552TCM     h1 2926   0.493   4.077   0.999
  552TCM    cl3 2927   0.402   4.045   0.780
  553TCM     c1 2928   1.510   3.629   0.233
  553TCM    cl1 2929   1.386   3.751   0.278
  553TCM    cl2 2930   1.475   3.475   0.318
  553TCM     h1 2931   1.507   3.613   0.125
  553TCM    cl3 2932   1.673   3.687   0.281
  554TCM     c1 2933   3.138   1.828   2.446
  554TCM    cl1 2934   3.262   1.761   2.336
  554TCM    cl2 2935   3.002   1.894   2.349
  554TCM     h1 2936   3.100   1.749   2.512
  554TCM    cl3 2937   3.210   1.960   2.544
  555TCM     c1 2938   1.652   2.646   2.374
  555TCM    cl1 2939   1.660   2.682   2.549
  555TCM    cl2 2940   1.589   2.480   2.349
  555TCM     h1 2941   1.586   2.717   2.325
  555TCM    cl3 2942   1.817   2.660   2.302
  556TCM     c1 2943   3.061   4.844   2.025
  556TCM    cl1 2944   2.989   4.935   1.889
  556TCM    cl2 2945   2.945   4.719   2.079
  556TCM     h1 2946   3.154   4.796   1.992
  556TCM    cl3 2947   3.098   4.956   2.160
  557TCM     c1 2948   0.797   2.311   4.482
  557TCM    cl1 2949   0.912   2.445   4.450
  557TCM    cl2 2950   0.787   2.205   4.337
  557TCM     h1 2951   0.832   2.253   4.567
  557TCM    cl3 2952   0.634   2.378   4.517
  558TCM     c1 2953   4.685   3.493   4.917
  558TCM    cl1 2954   4.626   3.488   5.087
  558TCM    cl2 2955   4.828   3.387   4.899
  558TCM     h1 2956   4.605   3.459   4.850
  558TCM    cl3 2957   4.729   3.662   4.875
  559TCM     c1 2958   0.015   1.695   3.925
  559TCM    cl1 2959   0.191   1.728   3.924
  559TCM    cl2 2960  -0.032   1.612   3.773
  559TCM     h1 2961  -0.009   1.630   4.010
  559TCM    cl3 2962  -0.075   1.849   3.940
  560TCM     c1 2963   4.002   1.994   2.656
  560TCM    cl1 2964   3.959   2.168   2.660
  560TCM    cl2 2965   4.027   1.942   2.486
  560TCM     h1 2966   4.094   1.977   2.713
  560TCM    cl3 2967   3.869   1.898   2.729
  561TCM     c1 2968   1.328   2.687   0.050
  561TCM    cl1 2969   1.355   2.824   0.163
  561TCM    cl2 2970   1.153   2.675   0.014
  561TCM     h1 2971   1.384   2.705  -0.042
  561TCM    cl3 2972   1.385   2.536   0.127
  562TCM     c1 2973   3.389   1.963   2.855
  562TCM    cl1 2974   3.240   2.053   2.900
  562TCM    cl2 2975   3.442   1.861   2.992
  562TCM     h1 2976   3.368   1.900   2.768
  562TCM    cl3 2977   3.518   2.081   2.813
  563TCM     c1 2978   2.592   4.659   0.855
  563TCM    cl1 2979   2.623   4.788   0.976
  563TCM    cl2 2980   2.478   4.719   0.731
  563TCM     h1 2981   2.686   4.631   0.806
  563TCM    cl3 2982   2.522   4.516   0.937
  564TCM     c1 2983   1.695   3.749   0.717
  564TCM    cl1 2984   1.840   3.693   0.626
  564TCM    cl2 2985   1.547   3.686   0.636
  564TCM     h1 2986   1.699   3.712   0.819
  564TCM    cl3 2987   1.691   3.928   0.718
  565TCM     c1 2988   4.852   2.992   4.982
  565TCM    cl1 2989   4.784   3.093   5.114
  565TCM    cl2 2990   4.728   2.964   4.856
  565TCM     h1 2991   4.938   3.044   4.937
  565TCM    cl3 2992   4.905   2.835   5.049
  566TCM     c1 2993   2.843   4.818   2.923
  566TCM    cl1 2994   2.739   4.956   2.873
  566TCM    cl2 2995   2.953   4.776   2.788
  566TCM     h1 2996   2.901   4.847   3.011
  566TCM    cl3 2997   2.741   4.676   2.963
  567TCM     c1 2998   4.423   3.768   3.476
  567TCM    cl1 2999   4.385   3.612   3.556
  567TCM    cl2 3000   4.273   3.837   3.406
  567TCM     h1 3001   4.465   3.837   3.550
  567TCM    cl3 3002   4.542   3.740   3.345
  568TCM     c1 3003   1.424   0.759   3.160
  568TCM    cl1 3004   1.439   0.938   3.154
  568TCM    cl2 3005   1.367   0.710   3.323
  568TCM     h1 3006   1.352   0.726   3.085
  568TCM    cl3 3007   1.584   0.686   3.128
  569TCM     c1 3008   3.126   2.442   4.617
  569TCM    cl1 3009   3.262   2.441   4.735
  569TCM    cl2 3010   3.131   2.291   4.522
  569TCM     h1 3011   3.031   2.449   4.671
  569TCM    cl3 3012   3.143   2.582   4.506
  570TCM     c1 3013   2.038   3.998   0.597
  570TCM    cl1 3014   1.984   4.169   0.592
  570TCM    cl2 3015   2.195   3.988   0.682
  570TCM     h1 3016   1.964   3.937   0.650
  570TCM    cl3 3017   2.055   3.937   0.429
  571TCM     c1 3018   3.136   1.808   0.187
  571TCM    cl1 3019   3.280   1.809   0.080
  571TCM    cl2 3020   3.006   1.712   0.110
  571TCM     h1 3021   3.163   1.764   0.283
  571TCM    cl3 3022   3.080   1.977   0.211
  572TCM     c1 3023   2.376   1.541   3.670
  572TCM    cl1 3024   2.448   1.651   3.792
  572TCM    cl2 3025   2.205   1.505   3.715
  572TCM     h1 3026   2.379   1.588   3.571
  572TCM    cl3 3027   2.469   1.388   3.666
  573TCM     c1 3028   1.125   0.650   2.533
  573TCM    cl1 3029   1.254   0.585   2.426
  573TCM    cl2 3030   0.969   0.571   2.491
  573TCM     h1 3031   1.150   0.629   2.637
  573TCM    cl3 3032   1.108   0.827   2.509
  574TCM     c1 3033   2.367   4.054   0.150
  574TCM    cl1 3034   2.328   4.138   0.304
  574TCM    cl2 3035   2.320   3.881   0.162
  574TCM     h1 3036   2.314   4.102   0.067
  574TCM    cl3 3037   2.544   4.065   0.123
  575TCM     c1 3038   2.166   4.269   1.549
  575TCM    cl1 3039   2.205   4.431   1.615
  575TCM    cl2 3040   2.042   4.286   1.420
  575TCM     h1 3041   2.256   4.224   1.507
  575TCM    cl3 3042   2.102   4.165   1.680
  576TCM     c1 3043   0.811   2.588   4.963
  576TCM    cl1 3044   0.647   2.633   5.020
  576TCM    cl2 3045   0.805   2.549   4.788
  576TCM     h1 3046   0.879   2.673   4.979
  576TCM    cl3 3047   0.871   2.445   5.052
  577TCM     c1 3048   1.368   1.030   1.631
  577TCM    cl1 3049   1.298   1.157   1.524
  577TCM    cl2 3050   1.297   1.045   1.795
  577TCM     h1 3051   1.346   0.931   1.590
  577TCM    cl3 3052   1.546   1.052   1.642
  578TCM     c1 3053   0.169   3.424   3.623
  578TCM    cl1 3054   0.052   3.463   3.753
  578TCM    cl2 3055   0.138   3.532   3.483
  578TCM     h1 3056   0.271   3.439   3.659
  578TCM    cl3 3057   0.147   3.254   3.572
  579TCM     c1 3058   4.824   0.147   3.724
  579TCM    cl1 3059   4.884   0.068   3.574
  579TCM    cl2 3060   4.680   0.058   3.781
  579TCM     h1 3061   4.902   0.145   3.800
  579TCM    cl3 3062   4.779   0.317   3.689
  580TCM     c1 3063   4.172   4.954   3.336
  580TCM    cl1 3064   4.212   4.910   3.505
  580TCM    cl2 3065   4.319   4.939   3.234
  580TCM     h1 3066   4.094   4.886   3.298
  580TCM    cl3 3067   4.113   5.123   3.330
  581TCM     c1 3068   3.036   3.783   1.463
  581TCM    cl1 3069   3.214   3.807   1.468
  581TCM    cl2 3070   3.000   3.608   1.454
  581TCM     h1 3071   2.992   3.824   1.554
  581TCM    cl3 3072   2.968   3.867   1.320
  582TCM     c1 3073   4.321   4.101   3.802
  582TCM    cl1 3074   4.376   4.214   3.931
  582TCM    cl2 3075   4.417   3.950   3.809
  582TCM     h1 3076   4.216   4.078   3.816
  582TCM    cl3 3077   4.345   4.177   3.641
  583TCM     c1 3078   1.007   3.623   0.143
  583TCM    cl1 3079   0.900   3.488   0.191
  583TCM    cl2 3080   0.914   3.735   0.037
  583TCM     h1 3081   1.042   3.677   0.232
  583TCM    cl3 3082   1.149   3.558   0.054
  584TCM     c1 3083   0.169   2.157   4.900
  584TCM    cl1 3084   0.193   2.257   5.048
  584TCM    cl2 3085   0.174   1.983   4.945
  584TCM     h1 3086   0.072   2.181   4.856
  584TCM    cl3 3087   0.299   2.192   4.782
  585TCM     c1 3088   0.933   0.148   2.536
  585TCM    cl1 3089   0.799   0.260   2.578
  585TCM    cl2 3090   1.016   0.209   2.389
  585TCM     h1 3091   1.004   0.142   2.619
  585TCM    cl3 3092   0.865  -0.015   2.502
  586TCM     c1 3093   0.827   1.189   3.980
  586TCM    cl1 3094   0.873   1.284   4.125
  586TCM    cl2 3095   0.736   1.294   3.866
  586TCM     h1 3096   0.917   1.152   3.930
  586TCM    cl3 3097   0.723   1.052   4.029
  587TCM     c1 3098   3.670   2.694   4.089
  587TCM    cl1 3099   3.573   2.622   3.956
  587TCM    cl2 3100   3.773   2.567   4.164
  587TCM     h1 3101   3.734   2.773   4.049
  587TCM    cl3 3102   3.560   2.763   4.213
  588TCM     c1 3103   1.900   3.243   4.933
  588TCM    cl1 3104   1.864   3.107   4.822
  588TCM    cl2 3105   1.826   3.211   5.093
  588TCM     h1 3106   2.009   3.254   4.944
  588TCM    cl3 3107   1.831   3.395   4.867
  589TCM     c1 3108   1.195   0.258   0.882
  589TCM    cl1 3109   1.069   0.260   0.753
  589TCM    cl2 3110   1.276   0.417   0.890
  589TCM     h1 3111   1.148   0.236   0.978
  589TCM    cl3 3112   1.316   0.131   0.844
  590TCM     c1 3113   0.458   3.704   0.325
  590TCM    cl1 3114   0.573   3.633   0.207
  590TCM    cl2 3115   0.382   3.574   0.422
  590TCM     h1 3116   0.512   3.772   0.391
  590TCM    cl3 3117   0.331   3.794   0.236
  591TCM     c1 3118   2.936   1.337   3.186
  591TCM    cl1 3119   2.935   1.490   3.279
  591TCM    cl2 3120   3.041   1.355   3.041
  591TCM     h1 3121   2.975   1.256   3.249
  591TCM    cl3 3122   2.769   1.298   3.134
  592TCM     c1 3123   2.377   4.557   0.134
  592TCM    cl1 3124   2.465   4.667   0.022
  592TCM    cl2 3125   2.343   4.402   0.051
  592TCM     h1 3126   2.439   4.539   0.222
  592TCM    cl3 3127   2.222   4.631   0.185
  593TCM     c1 3128   3.643   3.421   3.184
  593TCM    cl1 3129   3.778   3.373   3.292
  593TCM    cl2 3130   3.649   3.599   3.157
  593TCM     h1 3131   3.653   3.369   3.088
  593TCM    cl3 3132   3.487   3.378   3.260
  594TCM     c1 3133   2.805   3.892   0.904
  594TCM    cl1 3134   2.833   4.036   1.007
  594TCM    cl2 3135   2.629   3.863   0.892
  594TCM     h1 3136   2.847   3.908   0.804
  594TCM    cl3 3137   2.884   3.749   0.979
  595TCM     c1 3138   4.230   4.090   1.054
  595TCM    cl1 3139   4.133   4.224   0.983
  595TCM    cl2 3140   4.402   4.139   1.062
  595TCM     h1 3141   4.193   4.068   1.155
  595TCM    cl3 3142   4.213   3.944   0.951
  596TCM     c1 3143   4.347   2.785   0.097
  596TCM    cl1 3144   4.242   2.853   0.226
  596TCM    cl2 3145   4.516   2.836   0.126
  596TCM     h1 3146   4.341   2.676   0.098
  596TCM    cl3 3147   4.293   2.847  -0.062
  597TCM     c1 3148   2.731   0.937   2.226
  597TCM    cl1 3149   2.693   0.765   2.255
  597TCM    cl2 3150   2.616   1.004   2.105
  597TCM     h1 3151   2.723   0.993   2.319
  597TCM    cl3 3152   2.899   0.949   2.162
  598TCM     c1 3153   3.092   4.327   2.738
  598TCM    cl1 3154   3.212   4.417   2.640
  598TCM    cl2 3155   3.038   4.430   2.875
  598TCM     h1 3156   3.006   4.301   2.676
  598TCM    cl3 3157   3.168   4.178   2.803
  599TCM     c1 3158   3.505   3.428   3.772
  599TCM    cl1 3159   3.605   3.401   3.919
  599TCM    cl2 3160   3.346   3.348   3.792
  599TCM     h1 3161   3.491   3.535   3.756
  599TCM    cl3 3162   3.588   3.356   3.630
  600TCM     c1 3163   3.971   0.315   4.782
  600TCM    cl1 3164   4.067   0.448   4.708
  600TCM    cl2 3165   4.057   0.159   4.758
  600TCM     h1 3166   3.958   0.334   4.889
  600TCM    cl3 3167   3.810   0.306   4.702
  601TCM     c1 3168   2.912   3.108   3.559
  601TCM    cl1 3169   3.068   3.177   3.615
  601TCM    cl2 3170   2.945   2.967   3.452
  601TCM     h1 3171   2.853   3.075   3.645
  601TCM    cl3 3172   2.822   3.231   3.466
  602TCM     c1 3173   0.442   2.215   1.784
  602TCM    cl1 3174   0.600   2.294   1.750
  602TCM    cl2 3175   0.408   2.095   1.655
  602TCM     h1 3176   0.446   2.165   1.881
  602TCM    cl3 3177   0.314   2.340   1.784
  603TCM     c1 3178   0.046   4.229   3.049
  603TCM    cl1 3179   0.031   4.404   3.084
  603TCM    cl2 3180   0.134   4.148   3.184
  603TCM     h1 3181  -0.054   4.185   3.040
  603TCM    cl3 3182   0.136   4.206   2.896
  604TCM     c1 3183   2.102   3.319   1.368
  604TCM    cl1 3184   2.277   3.335   1.331
  604TCM    cl2 3185   2.079   3.196   1.496
  604TCM     h1 3186   2.063   3.415   1.403
  604TCM    cl3 3187   2.013   3.270   1.220
  605TCM     c1 3188   0.131   1.315   2.388
  605TCM    cl1 3189   0.129   1.409   2.234
  605TCM    cl2 3190   0.291   1.237   2.407
  605TCM     h1 3191   0.112   1.383   2.471
  605TCM    cl3 3192   0.004   1.189   2.385
  606TCM     c1 3193   3.847   3.028   3.661
  606TCM    cl1 3194   3.731   3.049   3.795
  606TCM    cl2 3195   3.985   2.927   3.717
  606TCM     h1 3196   3.798   2.978   3.577
  606TCM    cl3 3197   3.909   3.187   3.607
  607TCM     c1 3198   1.691   3.190   3.400
  607TCM    cl1 3199   1.666   3.037   3.309
  607TCM    cl2 3200   1.656   3.163   3.573
  607TCM     h1 3201   1.795   3.223   3.388
  607TCM    cl3 3202   1.582   3.317   3.335
  608TCM     c1 3203   2.476   3.054   2.359
  608TCM    cl1 3204   2.496   2.933   2.490
  608TCM    cl2 3205   2.618   3.163   2.356
  608TCM     h1 3206   2.466   3.003   2.262
  608TCM    cl3 3207   2.329   3.152   2.390
  609TCM     c1 3208   1.852   2.737   0.078
  609TCM    cl1 3209   1.935   2.632  -0.042
  609TCM    cl2 3210   1.698   2.795   0.007
  609TCM     h1 3211   1.832   2.680   0.169
  609TCM    cl3 3212   1.957   2.877   0.118
  610TCM     c1 3213   4.631   0.577   2.746
  610TCM    cl1 3214   4.639   0.399   2.771
  610TCM    cl2 3215   4.569   0.612   2.581
  610TCM     h1 3216   4.564   0.621   2.820
  610TCM    cl3 3217   4.796   0.646   2.765
  611TCM     c1 3218   4.991   2.152   1.012
  611TCM    cl1 3219   4.897   2.140   0.860
  611TCM    cl2 3220   4.878   2.137   1.151
  611TCM     h1 3221   5.065   2.072   1.016
  611TCM    cl3 3222   5.073   2.311   1.019
  612TCM     c1 3223   2.938   3.810   0.071
  612TCM    cl1 3224   3.045   3.750   0.202
  612TCM    cl2 3225   3.024   3.802  -0.086
  612TCM     h1 3226   2.848   3.748   0.066
  612TCM    cl3 3227   2.894   3.980   0.106
  613TCM     c1 3228   2.753   3.869   3.519
  613TCM    cl1 3229   2.844   3.936   3.658
  613TCM    cl2 3230   2.852   3.882   3.370
  613TCM     h1 3231   2.730   3.764   3.539
  613TCM    cl3 3232   2.600   3.960   3.497
  614TCM     c1 3233   1.886   4.502   1.763
  614TCM    cl1 3234   1.978   4.430   1.899
  614TCM    cl2 3235   1.767   4.620   1.827
  614TCM     h1 3236   1.955   4.553   1.695
  614TCM    cl3 3237   1.798   4.373   1.673
  615TCM     c1 3238   1.172   1.786   0.585
  615TCM    cl1 3239   1.158   1.706   0.745
  615TCM    cl2 3240   1.101   1.951   0.595
  615TCM     h1 3241   1.277   1.793   0.555
  615TCM    cl3 3242   1.081   1.692   0.463
  616TCM     c1 3243   0.399   2.627   4.432
  616TCM    cl1 3244   0.328   2.791   4.414
  616TCM    cl2 3245   0.437   2.562   4.269
  616TCM     h1 3246   0.491   2.633   4.491
  616TCM    cl3 3247   0.281   2.519   4.513
  617TCM     c1 3248   0.481   1.277   4.667
  617TCM    cl1 3249   0.541   1.446   4.673
  617TCM    cl2 3250   0.531   1.191   4.817
  617TCM     h1 3251   0.372   1.277   4.661
  617TCM    cl3 3252   0.549   1.193   4.525
  618TCM     c1 3253   0.069   2.503   0.478
  618TCM    cl1 3254  -0.006   2.464   0.636
  618TCM    cl2 3255   0.181   2.372   0.429
  618TCM     h1 3256  -0.008   2.516   0.402
  618TCM    cl3 3257   0.163   2.655   0.495
  619TCM     c1 3258   2.086   3.886   4.546
  619TCM    cl1 3259   1.926   3.881   4.626
  619TCM    cl2 3260   2.186   4.013   4.622
  619TCM     h1 3261   2.135   3.789   4.556
  619TCM    cl3 3262   2.064   3.925   4.371
  620TCM     c1 3263   2.917   3.185   3.116
  620TCM    cl1 3264   2.876   3.273   2.965
  620TCM    cl2 3265   3.070   3.250   3.183
  620TCM     h1 3266   2.837   3.198   3.189
  620TCM    cl3 3267   2.936   3.011   3.078
  621TCM     c1 3268   2.830   4.319   0.239
  621TCM    cl1 3269   2.767   4.233   0.382
  621TCM    cl2 3270   2.953   4.439   0.292
  621TCM     h1 3271   2.876   4.248   0.170
  621TCM    cl3 3272   2.695   4.403   0.156
  622TCM     c1 3273   3.230   4.229   0.418
  622TCM    cl1 3274   3.177   4.114   0.291
  622TCM    cl2 3275   3.397   4.188   0.472
  622TCM     h1 3276   3.229   4.330   0.378
  622TCM    cl3 3277   3.118   4.218   0.558
  623TCM     c1 3278   2.315   3.510   0.693
  623TCM    cl1 3279   2.227   3.631   0.595
  623TCM    cl2 3280   2.404   3.594   0.825
  623TCM     h1 3281   2.245   3.439   0.737
  623TCM    cl3 3282   2.432   3.422   0.589
  624TCM     c1 3283   3.866   3.590   3.565
  624TCM    cl1 3284   3.872   3.712   3.434
  624TCM    cl2 3285   3.794   3.664   3.712
  624TCM     h1 3286   3.806   3.505   3.534
  624TCM    cl3 3287   4.033   3.535   3.602
  625TCM     c1 3288   0.196   4.665   4.162
  625TCM    cl1 3289   0.020   4.660   4.129
  625TCM    cl2 3290   0.237   4.815   4.250
  625TCM     h1 3291   0.224   4.578   4.222
  625TCM    cl3 3292   0.286   4.661   4.007
  626TCM     c1 3293   3.833   0.171   3.576
  626TCM    cl1 3294   3.986   0.191   3.667
  626TCM    cl2 3295   3.695   0.208   3.684
  626TCM     h1 3296   3.832   0.239   3.491
  626TCM    cl3 3297   3.822   0.002   3.517
  627TCM     c1 3298   2.317   2.502   3.353
  627TCM    cl1 3299   2.413   2.575   3.485
  627TCM    cl2 3300   2.149   2.476   3.410
  627TCM     h1 3301   2.316   2.570   3.267
  627TCM    cl3 3302   2.389   2.345   3.305
  628TCM     c1 3303   4.728   4.277   2.807
  628TCM    cl1 3304   4.849   4.405   2.776
  628TCM    cl2 3305   4.677   4.283   2.980
  628TCM     h1 3306   4.641   4.292   2.743
  628TCM    cl3 3307   4.800   4.116   2.773
  629TCM     c1 3308   2.225   0.716   2.017
  629TCM    cl1 3309   2.175   0.545   2.001
  629TCM    cl2 3310   2.345   0.731   2.150
  629TCM     h1 3311   2.270   0.750   1.923
  629TCM    cl3 3312   2.082   0.817   2.056
  630TCM     c1 3313   0.167   2.421   3.174
  630TCM    cl1 3314   0.013   2.501   3.133
  630TCM    cl2 3315   0.219   2.316   3.038
  630TCM     h1 3316   0.244   2.496   3.193
  630TCM    cl3 3317   0.144   2.320   3.321
  631TCM     c1 3318   0.918   4.055   0.779
  631TCM    cl1 3319   0.833   4.100   0.628
  631TCM    cl2 3320   1.029   3.918   0.746
  631TCM     h1 3321   0.975   4.141   0.816
  631TCM    cl3 3322   0.796   4.006   0.903
  632TCM     c1 3323   2.531   3.026   0.515
  632TCM    cl1 3324   2.511   3.123   0.365
  632TCM    cl2 3325   2.391   3.057   0.624
  632TCM     h1 3326   2.535   2.920   0.490
  632TCM    cl3 3327   2.683   3.075   0.597
  633TCM     c1 3328   0.307   4.988   0.814
  633TCM    cl1 3329   0.363   4.830   0.751
  633TCM    cl2 3330   0.244   4.966   0.981
  633TCM     h1 3331   0.391   5.059   0.815
  633TCM    cl3 3332   0.175   5.052   0.710
  634TCM     c1 3333   4.978   2.021   3.090
  634TCM    cl1 3334   4.901   1.961   3.240
  634TCM    cl2 3335   4.894   2.170   3.035
  634TCM     h1 3336   5.083   2.043   3.109
  634TCM    cl3 3337   4.963   1.895   2.964
  635TCM     c1 3338   2.546   0.657   3.282
  635TCM    cl1 3339   2.573   0.535   3.153
  635TCM    cl2 3340   2.704   0.697   3.357
  635TCM     h1 3341   2.503   0.747   3.239
  635TCM    cl3 3342   2.436   0.590   3.407
  636TCM     c1 3343   4.967   0.736   2.053
  636TCM    cl1 3344   4.964   0.857   2.186
  636TCM    cl2 3345   5.128   0.736   1.974
  636TCM     h1 3346   4.947   0.637   2.095
  636TCM    cl3 3347   4.841   0.777   1.933
  637TCM     c1 3348   3.998   0.208   4.387
  637TCM    cl1 3349   3.854   0.102   4.376
  637TCM    cl2 3350   3.948   0.379   4.364
  637TCM     h1 3351   4.045   0.197   4.485
  637TCM    cl3 3352   4.115   0.163   4.259
  638TCM     c1 3353   4.886   0.633   4.768
  638TCM    cl1 3354   4.855   0.549   4.613
  638TCM    cl2 3355   5.056   0.605   4.817
  638TCM     h1 3356   4.869   0.741   4.755
  638TCM    cl3 3357   4.775   0.569   4.893
  639TCM     c1 3358   2.581   0.531   1.422
  639TCM    cl1 3359   2.705   0.603   1.531
  639TCM    cl2 3360   2.423   0.527   1.506
  639TCM     h1 3361   2.573   0.592   1.332
  639TCM    cl3 3362   2.630   0.364   1.377
  640TCM     c1 3363   2.072   1.113   3.563
  640TCM    cl1 3364   2.059   1.159   3.735
  640TCM    cl2 3365   2.134   0.946   3.548
  640TCM     h1 3366   1.973   1.119   3.515
  640TCM    cl3 3367   2.185   1.226   3.481
   5.00000   5.00000   5.00000
