GROningen MAchine for Chemical Simulation
 3367
    1POP     C1    1   2.476   2.057   0.774
    1POP     O2    2   2.510   2.133   0.862
    1POP     C3    3   2.474   1.909   0.789
    1POP     C4    4   2.429   1.823   0.689
    1POP     C5    5   2.441   1.685   0.704
    1POP     C6    6   2.498   1.629   0.820
    1POP     C7    7   2.521   1.484   0.831
    1POP     C8    8   2.650   1.427   0.851
    1POP     C9    9   2.659   1.287   0.865
    1POP    C10   10   2.546   1.203   0.859
    1POP    O11   11   2.572   1.070   0.875
    1POP    C12   12   2.461   0.981   0.871
    1POP    C13   13   2.421   1.259   0.837
    1POP    C14   14   2.409   1.398   0.824
    1POP    C15   15   2.774   1.507   0.856
    1POP    C16   16   2.858   1.506   0.968
    1POP    C17   17   2.978   1.579   0.970
    1POP    C18   18   3.016   1.657   0.860
    1POP    C19   19   2.931   1.661   0.749
    1POP    C20   20   2.812   1.587   0.747
    1POP    C21   21   3.150   1.728   0.853
    1POP    N22   22   3.158   1.838   0.949
    1POP    C23   23   3.265   1.629   0.863
    1POP    C24   24   2.539   1.717   0.922
    1POP    C25   25   2.527   1.855   0.906
    1POP    H26   26   2.386   1.862   0.596
    1POP    H27   27   2.409   1.619   0.623
    1POP    H28   28   2.757   1.240   0.879
    1POP    H29   29   2.497   0.879   0.884
    1POP    H30   30   2.411   0.985   0.773
    1POP    H31   31   2.390   1.002   0.952
    1POP    H32   32   2.332   1.200   0.832
    1POP    H33   33   2.310   1.440   0.808
    1POP    H34   34   2.832   1.446   1.055
    1POP    H35   35   3.042   1.575   1.059
    1POP    H36   36   2.957   1.721   0.662
    1POP    H37   37   2.749   1.593   0.658
    1POP    H38   38   3.157   1.776   0.754
    1POP    H39   39   3.080   1.852   1.011
    1POP    H40   40   3.363   1.677   0.848
    1POP    H41   41   3.256   1.552   0.786
    1POP    H42   42   3.270   1.579   0.960
    1POP    H43   43   2.583   1.678   1.013
    1POP    H44   44   2.563   1.921   0.986
    2POP    C45   45   3.251   1.939   0.928
    2POP    O46   46   3.346   1.923   0.852
    2POP    C47   47   3.230   2.072   0.991
    2POP    C48   48   3.109   2.112   1.048
    2POP    C49   49   3.093   2.245   1.091
    2POP    C50   50   3.196   2.340   1.076
    2POP    C51   51   3.179   2.480   1.119
    2POP    C52   52   3.267   2.543   1.212
    2POP    C53   53   3.243   2.678   1.243
    2POP    C54   54   3.138   2.752   1.189
    2POP    O55   55   3.130   2.882   1.230
    2POP    C56   56   3.030   2.962   1.169
    2POP    C57   57   3.052   2.688   1.099
    2POP    C58   58   3.072   2.554   1.065
    2POP    C59   59   3.379   2.473   1.276
    2POP    C60   60   3.511   2.517   1.260
    2POP    C61   61   3.618   2.448   1.321
    2POP    C62   62   3.595   2.335   1.400
    2POP    C63   63   3.463   2.290   1.414
    2POP    C64   64   3.356   2.357   1.353
    2POP    C65   65   3.703   2.269   1.483
    2POP    N66   66   3.810   2.209   1.404
    2POP    C67   67   3.757   2.368   1.587
    2POP    C68   68   3.316   2.297   1.019
    2POP    C69   69   3.334   2.165   0.978
    2POP    H70   70   3.026   2.045   1.058
    2POP    H71   71   2.998   2.275   1.135
    2POP    H72   72   3.309   2.729   1.315
    2POP    H73   73   3.041   3.065   1.208
    2POP    H74   74   2.929   2.929   1.197
    2POP    H75   75   3.043   2.966   1.060
    2POP    H76   76   2.967   2.740   1.053
    2POP    H77   77   3.005   2.508   0.993
    2POP    H78   78   3.533   2.605   1.202
    2POP    H79   79   3.719   2.487   1.310
    2POP    H80   80   3.440   2.202   1.474
    2POP    H81   81   3.255   2.319   1.367
    2POP    H82   82   3.657   2.187   1.540
    2POP    H83   83   3.828   2.244   1.311
    2POP    H84   84   3.831   2.320   1.653
    2POP    H85   85   3.677   2.406   1.649
    2POP    H86   86   3.807   2.454   1.539
    2POP    H87   87   3.398   2.368   1.004
    2POP    H88   88   3.429   2.136   0.933
    3POP    C89   89   3.884   2.106   1.459
    3POP    O90   90   3.861   2.065   1.574
    3POP    C91   91   3.993   2.039   1.382
    3POP    C92   92   4.045   2.090   1.262
    3POP    C93   93   4.149   2.021   1.198
    3POP    C94   94   4.204   1.902   1.250
    3POP    C95   95   4.316   1.834   1.183
    3POP    C96   96   4.443   1.812   1.244
    3POP    C97   97   4.544   1.749   1.168
    3POP    C98   98   4.524   1.706   1.037
    3POP    O99   99   4.631   1.646   0.977
    3POP   C100  100   4.613   1.599   0.844
    3POP   C101  101   4.400   1.727   0.978
    3POP   C102  102   4.298   1.790   1.050
    3POP   C103  103   4.472   1.858   1.382
    3POP   C104  104   4.511   1.769   1.483
    3POP   C105  105   4.539   1.814   1.613
    3POP   C106  106   4.531   1.950   1.645
    3POP   C107  107   4.490   2.040   1.544
    3POP   C108  108   4.463   1.994   1.415
    3POP   C109  109   4.577   2.009   1.778
    3POP   N110  110   4.503   1.961   1.894
    3POP   C111  111   4.728   1.988   1.794
    3POP   C112  112   4.150   1.854   1.370
    3POP   C113  113   4.047   1.921   1.435
    3POP   H114  114   4.009   2.182   1.219
    3POP   H115  115   4.193   2.065   1.107
    3POP   H116  116   4.643   1.736   1.213
    3POP   H117  117   4.706   1.551   0.811
    3POP   H118  118   4.593   1.684   0.776
    3POP   H119  119   4.533   1.525   0.838
    3POP   H120  120   4.379   1.697   0.877
    3POP   H121  121   4.202   1.805   1.000
    3POP   H122  122   4.521   1.663   1.462
    3POP   H123  123   4.571   1.742   1.689
    3POP   H124  124   4.483   2.146   1.564
    3POP   H125  125   4.434   2.066   1.340
    3POP   H126  126   4.560   2.118   1.773
    3POP   H127  127   4.441   1.882   1.885
    3POP   H128  128   4.766   2.036   1.886
    3POP   H129  129   4.781   2.034   1.710
    3POP   H130  130   4.754   1.883   1.798
    3POP   H131  131   4.191   1.763   1.415
    3POP   H132  132   4.010   1.882   1.529
    4POP   C133  133   4.503   2.040   2.009
    4POP   O134  134   4.566   2.146   2.016
    4POP   C135  135   4.424   1.997   2.128
    4POP   C136  136   4.380   1.865   2.147
    4POP   C137  137   4.310   1.831   2.264
    4POP   C138  138   4.285   1.926   2.365
    4POP   C139  139   4.217   1.887   2.490
    4POP   C140  140   4.279   1.895   2.618
    4POP   C141  141   4.205   1.852   2.731
    4POP   C142  142   4.075   1.803   2.721
    4POP   O143  143   4.017   1.764   2.838
    4POP   C144  144   3.885   1.710   2.829
    4POP   C145  145   4.016   1.796   2.595
    4POP   C146  146   4.086   1.838   2.482
    4POP   C147  147   4.418   1.941   2.636
    4POP   C148  148   4.449   2.052   2.718
    4POP   C149  149   4.581   2.096   2.734
    4POP   C150  150   4.687   2.030   2.672
    4POP   C151  151   4.657   1.921   2.589
    4POP   C152  152   4.525   1.877   2.572
    4POP   C153  153   4.833   2.064   2.698
    4POP   N154  154   4.871   2.195   2.645
    4POP   C155  155   4.863   2.047   2.847
    4POP   C156  156   4.328   2.058   2.344
    4POP   C157  157   4.397   2.092   2.227
    4POP   H158  158   4.402   1.787   2.076
    4POP   H159  159   4.277   1.728   2.278
    4POP   H160  160   4.251   1.857   2.829
    4POP   H161  161   3.851   1.687   2.930
    4POP   H162  162   3.885   1.617   2.771
    4POP   H163  163   3.817   1.784   2.787
    4POP   H164  164   3.914   1.758   2.581
    4POP   H165  165   4.036   1.831   2.385
    4POP   H166  166   4.368   2.104   2.770
    4POP   H167  167   4.600   2.181   2.800
    4POP   H168  168   4.737   1.866   2.539
    4POP   H169  169   4.506   1.791   2.508
    4POP   H170  170   4.895   1.993   2.643
    4POP   H171  171   4.815   2.234   2.570
    4POP   H172  172   4.971   2.052   2.869
    4POP   H173  173   4.830   1.947   2.881
    4POP   H174  174   4.814   2.122   2.909
    4POP   H175  175   4.310   2.135   2.419
    4POP   H176  176   4.432   2.195   2.215
    5CAP   C177  177   2.456   2.231   0.618
    5CAP   O178  178   2.443   2.092   0.647
    5CAP   H179  179   2.424   2.294   0.701
    5CAP   H180  180   2.393   2.254   0.532
    5CAP   H181  181   2.560   2.253   0.592
    6CAP   C182  182   5.147   2.463   2.396
    6CAP   C183  183   5.158   2.376   2.521
    6CAP   C184  184   5.255   2.261   2.489
    6CAP   C185  185   5.208   2.462   2.638
    6CAP   O186  186   5.023   2.328   2.548
    6CAP   C187  187   5.002   2.233   2.642
    6CAP   O188  188   5.090   2.181   2.710
    6CAP   H189  189   5.245   2.504   2.368
    6CAP   H190  190   5.107   2.405   2.311
    6CAP   H191  191   5.077   2.547   2.412
    6CAP   H192  192   5.213   2.193   2.416
    6CAP   H193  193   5.281   2.203   2.578
    6CAP   H194  194   5.350   2.300   2.449
    6CAP   H195  195   5.138   2.544   2.658
    6CAP   H196  196   5.215   2.404   2.730
    6CAP   H197  197   5.306   2.505   2.616
    1TCM     c1  198   4.336   0.335   2.672
    1TCM    cl1  199   4.461   0.360   2.548
    1TCM    cl2  200   4.240   0.484   2.690
    1TCM     h1  201   4.270   0.252   2.642
    1TCM    cl3  202   4.414   0.296   2.828
    1TCM     c1  203   1.693   2.478   4.344
    1TCM    cl1  204   1.602   2.326   4.353
    1TCM    cl2  205   1.626   2.594   4.461
    1TCM     h1  206   1.800   2.459   4.368
    1TCM    cl3  207   1.680   2.545   4.180
    1TCM     c1  208   1.816   2.262   0.996
    1TCM    cl1  209   1.903   2.111   0.964
    1TCM    cl2  210   1.795   2.352   0.844
    1TCM     h1  211   1.716   2.239   1.039
    1TCM    cl3  212   1.909   2.361   1.110
    1TCM     c1  213   2.652   0.610   3.807
    1TCM    cl1  214   2.697   0.501   3.674
    1TCM    cl2  215   2.684   0.531   3.963
    1TCM     h1  216   2.712   0.704   3.800
    1TCM    cl3  217   2.479   0.650   3.796
    1TCM     c1  218   2.172   1.757   2.862
    1TCM    cl1  219   2.032   1.812   2.768
    1TCM    cl2  220   2.123   1.726   3.030
    1TCM     h1  221   2.212   1.663   2.817
    1TCM    cl3  222   2.298   1.882   2.859
    1TCM     c1  223   5.035   1.288   0.555
    1TCM    cl1  224   5.172   1.233   0.457
    1TCM    cl2  225   5.082   1.289   0.727
    1TCM     h1  226   5.006   1.391   0.524
    1TCM    cl3  227   4.897   1.179   0.532
    1TCM     c1  228   2.864   0.768   2.497
    1TCM    cl1  229   2.903   0.627   2.397
    1TCM    cl2  230   2.913   0.737   2.665
    1TCM     h1  231   2.918   0.857   2.459
    1TCM    cl3  232   2.688   0.798   2.491
    1TCM     c1  233   3.779   4.024   4.738
    1TCM    cl1  234   3.714   3.933   4.600
    1TCM    cl2  235   3.651   4.126   4.807
    1TCM     h1  236   3.815   3.953   4.816
    1TCM    cl3  237   3.914   4.126   4.685
    1TCM     c1  238   0.770   4.146   3.478
    1TCM    cl1  239   0.813   3.980   3.428
    1TCM    cl2  240   0.831   4.262   3.358
    1TCM     h1  241   0.659   4.154   3.484
    1TCM    cl3  242   0.842   4.180   3.636
    1TCM     c1  243   3.900   1.332   2.584
    1TCM    cl1  244   3.883   1.346   2.761
    1TCM    cl2  245   4.058   1.259   2.546
    1TCM     h1  246   3.819   1.268   2.544
    1TCM    cl3  247   3.891   1.493   2.511
    1TCM     c1  248   4.915   3.090   4.462
    1TCM    cl1  249   4.739   3.072   4.483
    1TCM    cl2  250   4.984   2.934   4.412
    1TCM     h1  251   4.935   3.167   4.384
    1TCM    cl3  252   4.988   3.141   4.616
    1TCM     c1  253   0.568   2.838   1.426
    1TCM    cl1  254   0.546   3.011   1.458
    1TCM    cl2  255   0.409   2.757   1.423
    1TCM     h1  256   0.618   2.825   1.327
    1TCM    cl3  257   0.668   2.766   1.553
    1TCM     c1  258   1.497   1.959   2.428
    1TCM    cl1  259   1.372   1.877   2.524
    1TCM    cl2  260   1.449   1.959   2.256
    1TCM     h1  261   1.507   2.064   2.463
    1TCM    cl3  262   1.652   1.874   2.446
    1TCM     c1  263   4.281   4.435   0.737
    1TCM    cl1  264   4.441   4.412   0.810
    1TCM    cl2  265   4.250   4.304   0.620
    1TCM     h1  266   4.203   4.433   0.816
    1TCM    cl3  267   4.276   4.591   0.652
    1TCM     c1  268   2.572   5.228   3.826
    1TCM    cl1  269   2.670   5.083   3.855
    1TCM    cl2  270   2.583   5.336   3.967
    1TCM     h1  271   2.610   5.281   3.737
    1TCM    cl3  272   2.403   5.181   3.800
    1TCM     c1  273   2.877   1.893   3.051
    1TCM    cl1  274   2.985   1.807   2.939
    1TCM    cl2  275   2.825   1.782   3.180
    1TCM     h1  276   2.931   1.979   3.096
    1TCM    cl3  277   2.734   1.952   2.963
    1TCM     c1  278   0.683   3.112   5.018
    1TCM    cl1  279   0.814   3.197   4.932
    1TCM    cl2  280   0.694   2.937   4.984
    1TCM     h1  281   0.694   3.129   5.127
    1TCM    cl3  282   0.526   3.173   4.962
    1TCM     c1  283   4.596   3.534   2.146
    1TCM    cl1  284   4.540   3.646   2.020
    1TCM    cl2  285   4.457   3.453   2.221
    1TCM     h1  286   4.663   3.458   2.100
    1TCM    cl3  287   4.686   3.625   2.270
    1TCM     c1  288   5.245   3.664   4.906
    1TCM    cl1  289   5.095   3.744   4.854
    1TCM    cl2  290   5.340   3.776   5.007
    1TCM     h1  291   5.219   3.573   4.965
    1TCM    cl3  292   5.340   3.616   4.764
    1TCM     c1  293   2.177   1.160   3.521
    1TCM    cl1  294   2.307   1.278   3.544
    1TCM    cl2  295   2.199   1.077   3.365
    1TCM     h1  296   2.180   1.085   3.603
    1TCM    cl3  297   2.020   1.243   3.522
    1TCM     c1  298   1.322   2.059   2.757
    1TCM    cl1  299   1.369   1.887   2.756
    1TCM    cl2  300   1.171   2.079   2.666
    1TCM     h1  301   1.307   2.093   2.861
    1TCM    cl3  302   1.451   2.156   2.681
    1TCM     c1  303   3.140   4.711   4.807
    1TCM    cl1  304   3.198   4.712   4.639
    1TCM    cl2  305   3.128   4.543   4.864
    1TCM     h1  306   3.211   4.766   4.871
    1TCM    cl3  307   2.980   4.787   4.815
    1TCM     c1  308   2.704   2.466   2.023
    1TCM    cl1  309   2.623   2.435   1.868
    1TCM    cl2  310   2.659   2.627   2.083
    1TCM     h1  311   2.674   2.389   2.097
    1TCM    cl3  312   2.881   2.459   2.000
    1TCM     c1  313   2.730   2.025   5.067
    1TCM    cl1  314   2.833   1.932   5.179
    1TCM    cl2  315   2.827   2.076   4.926
    1TCM     h1  316   2.646   1.962   5.033
    1TCM    cl3  317   2.667   2.169   5.150
    1TCM     c1  318   4.927   0.262   1.254
    1TCM    cl1  319   4.777   0.168   1.237
    1TCM    cl2  320   4.911   0.376   1.389
    1TCM     h1  321   5.011   0.193   1.273
    1TCM    cl3  322   4.956   0.352   1.103
    1TCM     c1  323   3.035   0.847   1.261
    1TCM    cl1  324   3.105   0.685   1.236
    1TCM    cl2  325   2.861   0.842   1.227
    1TCM     h1  326   3.052   0.878   1.366
    1TCM    cl3  327   3.114   0.963   1.152
    1TCM     c1  328   3.962   3.277   1.868
    1TCM    cl1  329   3.954   3.105   1.821
    1TCM    cl2  330   3.968   3.289   2.045
    1TCM     h1  331   4.052   3.323   1.824
    1TCM    cl3  332   3.817   3.361   1.808
    1TCM     c1  333   1.033   0.851   3.698
    1TCM    cl1  334   0.909   0.905   3.583
    1TCM    cl2  335   0.998   0.921   3.859
    1TCM     h1  336   1.032   0.741   3.705
    1TCM    cl3  337   1.193   0.906   3.644
    1TCM     c1  338   0.702   5.163   4.127
    1TCM    cl1  339   0.601   5.298   4.182
    1TCM    cl2  340   0.858   5.168   4.212
    1TCM     h1  341   0.651   5.067   4.149
    1TCM    cl3  342   0.729   5.177   3.952
    1TCM     c1  343   2.781   3.623   3.443
    1TCM    cl1  344   2.931   3.551   3.505
    1TCM    cl2  345   2.810   3.689   3.280
    1TCM     h1  346   2.702   3.546   3.438
    1TCM    cl3  347   2.730   3.755   3.551
    1TCM     c1  348   0.302   0.966   2.473
    1TCM    cl1  349   0.133   0.982   2.526
    1TCM    cl2  350   0.311   0.845   2.342
    1TCM     h1  351   0.338   1.064   2.435
    1TCM    cl3  352   0.403   0.913   2.609
    1TCM     c1  353   4.984   1.986   2.122
    1TCM    cl1  354   5.098   2.007   2.258
    1TCM    cl2  355   4.986   2.132   2.021
    1TCM     h1  356   5.015   1.898   2.062
    1TCM    cl3  357   4.820   1.960   2.186
    1TCM     c1  358   1.252   3.561   2.332
    1TCM    cl1  359   1.336   3.404   2.348
    1TCM    cl2  360   1.153   3.560   2.184
    1TCM     h1  361   1.187   3.576   2.420
    1TCM    cl3  362   1.372   3.691   2.322
    1TCM     c1  363   3.905   1.413   2.029
    1TCM    cl1  364   3.788   1.281   2.007
    1TCM    cl2  365   3.897   1.473   2.197
    1TCM     h1  366   4.007   1.377   2.008
    1TCM    cl3  367   3.866   1.546   1.917
    1TCM     c1  368   0.857   2.176   2.072
    1TCM    cl1  369   0.737   2.097   2.177
    1TCM    cl2  370   0.803   2.169   1.903
    1TCM     h1  371   0.869   2.282   2.103
    1TCM    cl3  372   1.013   2.093   2.088
    1TCM     c1  373   2.199   3.833   1.793
    1TCM    cl1  374   2.372   3.836   1.830
    1TCM    cl2  375   2.177   3.816   1.617
    1TCM     h1  376   2.151   3.747   1.844
    1TCM    cl3  377   2.124   3.985   1.847
    1TCM     c1  378   1.046   4.555   1.143
    1TCM    cl1  379   0.903   4.549   1.038
    1TCM    cl2  380   1.118   4.392   1.153
    1TCM     h1  381   1.121   4.625   1.100
    1TCM    cl3  382   0.999   4.609   1.306
    1TCM     c1  383   0.261   1.280   4.844
    1TCM    cl1  384   0.096   1.345   4.828
    1TCM    cl2  385   0.361   1.394   4.936
    1TCM     h1  386   0.257   1.183   4.897
    1TCM    cl3  387   0.332   1.257   4.682
    1TCM     c1  388   1.321   3.895   4.779
    1TCM    cl1  389   1.459   4.007   4.787
    1TCM    cl2  390   1.343   3.766   4.900
    1TCM     h1  391   1.227   3.950   4.800
    1TCM    cl3  392   1.313   3.823   4.617
    1TCM     c1  393   0.310   0.744   4.845
    1TCM    cl1  394   0.397   0.700   4.994
    1TCM    cl2  395   0.372   0.647   4.710
    1TCM     h1  396   0.202   0.724   4.859
    1TCM    cl3  397   0.335   0.916   4.811
    1TCM     c1  398   1.064   4.307   2.235
    1TCM    cl1  399   0.947   4.271   2.363
    1TCM    cl2  400   0.985   4.400   2.106
    1TCM     h1  401   1.148   4.366   2.277
    1TCM    cl3  402   1.127   4.155   2.168
    1TCM     c1  403   3.688   4.128   0.168
    1TCM    cl1  404   3.766   4.010   0.060
    1TCM    cl2  405   3.748   4.106   0.334
    1TCM     h1  406   3.713   4.231   0.134
    1TCM    cl3  407   3.512   4.104   0.165
    1TCM     c1  408   1.578   1.541   1.406
    1TCM    cl1  409   1.449   1.625   1.494
    1TCM    cl2  410   1.713   1.653   1.376
    1TCM     h1  411   1.614   1.455   1.467
    1TCM    cl3  412   1.515   1.481   1.251
    1TCM     c1  413   3.468   0.651   2.305
    1TCM    cl1  414   3.293   0.615   2.303
    1TCM    cl2  415   3.551   0.532   2.408
    1TCM     h1  416   3.508   0.646   2.202
    1TCM    cl3  417   3.494   0.814   2.371
    1TCM     c1  418   0.136   0.611   1.985
    1TCM    cl1  419   0.031   0.633   2.127
    1TCM    cl2  420   0.283   0.709   2.005
    1TCM     h1  421   0.164   0.503   1.977
    1TCM    cl3  422   0.050   0.662   1.839
    1TCM     c1  423   3.868   2.617   1.094
    1TCM    cl1  424   3.965   2.497   1.182
    1TCM    cl2  425   3.974   2.717   0.993
    1TCM     h1  426   3.793   2.565   1.030
    1TCM    cl3  427   3.783   2.721   1.211
    1TCM     c1  428   4.171   0.090   0.792
    1TCM    cl1  429   4.054   0.000   0.692
    1TCM    cl2  430   4.198   0.251   0.722
    1TCM     h1  431   4.131   0.100   0.895
    1TCM    cl3  432   4.325   0.001   0.797
    1TCM     c1  433   4.951   1.741   3.392
    1TCM    cl1  434   4.824   1.765   3.270
    1TCM    cl2  435   4.880   1.661   3.535
    1TCM     h1  436   5.031   1.677   3.350
    1TCM    cl3  437   5.018   1.898   3.440
    1TCM     c1  438   1.986   3.585   2.404
    1TCM    cl1  439   2.066   3.524   2.257
    1TCM    cl2  440   1.892   3.731   2.365
    1TCM     h1  441   1.918   3.507   2.444
    1TCM    cl3  442   2.109   3.624   2.527
    1TCM     c1  443   0.571   0.261   4.868
    1TCM    cl1  444   0.458   0.290   5.002
    1TCM    cl2  445   0.562   0.090   4.818
    1TCM     h1  446   0.545   0.326   4.782
    1TCM    cl3  447   0.737   0.297   4.922
    1TCM     c1  448   4.526   0.697   4.559
    1TCM    cl1  449   4.524   0.855   4.477
    1TCM    cl2  450   4.485   0.719   4.731
    1TCM     h1  451   4.451   0.630   4.512
    1TCM    cl3  452   4.688   0.624   4.545
    1TCM     c1  453   3.842   4.613   1.566
    1TCM    cl1  454   3.753   4.751   1.636
    1TCM    cl2  455   3.881   4.648   1.396
    1TCM     h1  456   3.936   4.597   1.623
    1TCM    cl3  457   3.742   4.467   1.575
    1TCM     c1  458   4.491   4.565   4.891
    1TCM    cl1  459   4.327   4.523   4.944
    1TCM    cl2  460   4.605   4.438   4.943
    1TCM     h1  461   4.493   4.574   4.781
    1TCM    cl3  462   4.539   4.720   4.964
    1TCM     c1  463   3.982   4.326   1.754
    1TCM    cl1  464   3.832   4.264   1.681
    1TCM    cl2  465   4.050   4.203   1.863
    1TCM     h1  466   4.055   4.350   1.675
    1TCM    cl3  467   3.946   4.474   1.847
    1TCM     c1  468   3.855   4.067   3.374
    1TCM    cl1  469   3.737   3.935   3.358
    1TCM    cl2  470   3.924   4.066   3.537
    1TCM     h1  471   3.936   4.053   3.299
    1TCM    cl3  472   3.774   4.223   3.345
    1TCM     c1  473   0.367   0.896   3.404
    1TCM    cl1  474   0.275   1.046   3.380
    1TCM    cl2  475   0.409   0.879   3.576
    1TCM     h1  476   0.306   0.809   3.372
    1TCM    cl3  477   0.517   0.902   3.307
    1TCM     c1  478   3.050   2.653   2.848
    1TCM    cl1  479   3.093   2.667   3.020
    1TCM    cl2  480   2.983   2.807   2.791
    1TCM     h1  481   3.142   2.628   2.790
    1TCM    cl3  482   2.930   2.524   2.827
    1TCM     c1  483   3.699   2.451   2.415
    1TCM    cl1  484   3.638   2.464   2.249
    1TCM    cl2  485   3.614   2.320   2.500
    1TCM     h1  486   3.808   2.429   2.413
    1TCM    cl3  487   3.672   2.605   2.501
    1TCM     c1  488   5.010   0.665   2.430
    1TCM    cl1  489   5.114   0.623   2.569
    1TCM    cl2  490   5.106   0.660   2.281
    1TCM     h1  491   4.927   0.592   2.423
    1TCM    cl3  492   4.944   0.828   2.453
    1TCM     c1  493   0.353   0.174   3.012
    1TCM    cl1  494   0.465   0.057   2.939
    1TCM    cl2  495   0.186   0.119   2.989
    1TCM     h1  496   0.375   0.183   3.121
    1TCM    cl3  497   0.375   0.333   2.934
    1TCM     c1  498   5.212   3.672   1.365
    1TCM    cl1  499   5.071   3.693   1.259
    1TCM    cl2  500   5.157   3.629   1.529
    1TCM     h1  501   5.277   3.590   1.325
    1TCM    cl3  502   5.305   3.823   1.372
    1TCM     c1  503   1.557   3.297   0.951
    1TCM    cl1  504   1.518   3.470   0.967
    1TCM    cl2  505   1.677   3.276   0.821
    1TCM     h1  506   1.598   3.260   1.046
    1TCM    cl3  507   1.409   3.207   0.910
    1TCM     c1  508   2.737   4.413   4.198
    1TCM    cl1  509   2.582   4.498   4.210
    1TCM    cl2  510   2.840   4.495   4.078
    1TCM     h1  511   2.788   4.414   4.297
    1TCM    cl3  512   2.709   4.245   4.148
    1TCM     c1  513   4.628   1.691   0.401
    1TCM    cl1  514   4.486   1.640   0.307
    1TCM    cl2  515   4.597   1.851   0.473
    1TCM     h1  516   4.647   1.617   0.482
    1TCM    cl3  517   4.770   1.700   0.295
    1TCM     c1  518   2.926   4.759   4.489
    1TCM    cl1  519   3.051   4.633   4.472
    1TCM    cl2  520   2.819   4.755   4.347
    1TCM     h1  521   2.867   4.739   4.580
    1TCM    cl3  522   3.004   4.918   4.501
    1TCM     c1  523   3.844   4.149   2.053
    1TCM    cl1  524   3.708   4.139   1.939
    1TCM    cl2  525   3.791   4.092   2.213
    1TCM     h1  526   3.928   4.086   2.017
    1TCM    cl3  527   3.898   4.318   2.066
    1TCM     c1  528   0.932   0.233   3.410
    1TCM    cl1  529   0.784   0.235   3.507
    1TCM    cl2  530   0.893   0.272   3.241
    1TCM     h1  531   1.003   0.308   3.449
    1TCM    cl3  532   1.006   0.072   3.417
    1TCM     c1  533   0.964   1.367   2.638
    1TCM    cl1  534   0.909   1.462   2.498
    1TCM    cl2  535   0.823   1.321   2.737
    1TCM     h1  536   1.016   1.276   2.603
    1TCM    cl3  537   1.075   1.466   2.736
    1TCM     c1  538   1.167   0.796   2.300
    1TCM    cl1  539   1.052   0.737   2.178
    1TCM    cl2  540   1.270   0.922   2.229
    1TCM     h1  541   1.112   0.838   2.386
    1TCM    cl3  542   1.269   0.660   2.355
    1TCM     c1  543   2.887   1.132   3.972
    1TCM    cl1  544   2.732   1.119   4.058
    1TCM    cl2  545   2.864   1.225   3.822
    1TCM     h1  546   2.961   1.183   4.037
    1TCM    cl3  547   2.947   0.969   3.932
    1TCM     c1  548   4.623   5.146   1.269
    1TCM    cl1  549   4.749   5.223   1.170
    1TCM    cl2  550   4.639   5.199   1.438
    1TCM     h1  551   4.523   5.176   1.230
    1TCM    cl3  552   4.640   4.969   1.260
    1TCM     c1  553   0.538   4.426   0.330
    1TCM    cl1  554   0.394   4.516   0.383
    1TCM    cl2  555   0.539   4.416   0.153
    1TCM     h1  556   0.629   4.478   0.365
    1TCM    cl3  557   0.534   4.262   0.399
    1TCM     c1  558   2.393   3.448   2.253
    1TCM    cl1  559   2.504   3.531   2.142
    1TCM    cl2  560   2.396   3.529   2.411
    1TCM     h1  561   2.290   3.451   2.212
    1TCM    cl3  562   2.444   3.279   2.272
    1TCM     c1  563   0.361   3.167   1.120
    1TCM    cl1  564   0.531   3.186   1.074
    1TCM    cl2  565   0.332   3.249   1.276
    1TCM     h1  566   0.296   3.212   1.043
    1TCM    cl3  567   0.322   2.994   1.137
    1TCM     c1  568   3.388   3.629   1.045
    1TCM    cl1  569   3.289   3.575   1.181
    1TCM    cl2  570   3.344   3.796   1.002
    1TCM     h1  571   3.496   3.625   1.073
    1TCM    cl3  572   3.361   3.523   0.905
    1TCM     c1  573   3.168   3.033   4.987
    1TCM    cl1  574   3.297   3.029   4.865
    1TCM    cl2  575   3.240   3.046   5.149
    1TCM     h1  576   3.102   3.120   4.969
    1TCM    cl3  577   3.073   2.883   4.977
    1TCM     c1  578   1.139   1.275   1.931
    1TCM    cl1  579   1.264   1.224   1.814
    1TCM    cl2  580   1.213   1.293   2.092
    1TCM     h1  581   1.096   1.372   1.899
    1TCM    cl3  582   1.011   1.151   1.938
    1TCM     c1  583   1.967   2.667   4.756
    1TCM    cl1  584   1.874   2.623   4.610
    1TCM    cl2  585   2.093   2.544   4.784
    1TCM     h1  586   2.014   2.766   4.741
    1TCM    cl3  587   1.858   2.673   4.896
    1TCM     c1  588   2.246   4.119   4.181
    1TCM    cl1  589   2.228   4.020   4.034
    1TCM    cl2  590   2.358   4.039   4.293
    1TCM     h1  591   2.287   4.219   4.153
    1TCM    cl3  592   2.088   4.139   4.259
    1TCM     c1  593   0.769   0.351   0.143
    1TCM    cl1  594   0.894   0.452   0.068
    1TCM    cl2  595   0.794   0.345   0.319
    1TCM     h1  596   0.669   0.394   0.121
    1TCM    cl3  597   0.778   0.186   0.077
    1TCM     c1  598   1.105   0.655   2.973
    1TCM    cl1  599   1.091   0.829   2.939
    1TCM    cl2  600   0.954   0.596   3.044
    1TCM     h1  601   1.126   0.601   2.878
    1TCM    cl3  602   1.239   0.628   3.087
    1TCM     c1  603   4.492   3.205   3.277
    1TCM    cl1  604   4.445   3.154   3.113
    1TCM    cl2  605   4.632   3.314   3.266
    1TCM     h1  606   4.408   3.258   3.325
    1TCM    cl3  607   4.536   3.062   3.373
    1TCM     c1  608   3.212   4.774   5.187
    1TCM    cl1  609   3.208   4.865   5.340
    1TCM    cl2  610   3.242   4.886   5.052
    1TCM     h1  611   3.293   4.699   5.191
    1TCM    cl3  612   3.056   4.693   5.162
    1TCM     c1  613   1.866   0.121   3.638
    1TCM    cl1  614   1.869   0.117   3.461
    1TCM    cl2  615   1.844   0.288   3.694
    1TCM     h1  616   1.782   0.058   3.675
    1TCM    cl3  617   2.020   0.058   3.702
    1TCM     c1  618   0.971   0.821   4.095
    1TCM    cl1  619   1.007   0.728   4.243
    1TCM    cl2  620   0.820   0.913   4.119
    1TCM     h1  621   1.054   0.891   4.075
    1TCM    cl3  622   0.951   0.710   3.958
    1TCM     c1  623   2.059   5.146   2.407
    1TCM    cl1  624   1.940   5.223   2.514
    1TCM    cl2  625   2.033   5.200   2.240
    1TCM     h1  626   2.162   5.174   2.440
    1TCM    cl3  627   2.040   4.969   2.416
    1TCM     c1  628   1.212   1.270   2.375
    1TCM    cl1  629   1.161   1.100   2.364
    1TCM    cl2  630   1.079   1.376   2.323
    1TCM     h1  631   1.239   1.294   2.480
    1TCM    cl3  632   1.353   1.297   2.270
    1TCM     c1  633   1.607   1.634   0.186
    1TCM    cl1  634   1.572   1.802   0.142
    1TCM    cl2  635   1.781   1.617   0.222
    1TCM     h1  636   1.548   1.606   0.276
    1TCM    cl3  637   1.564   1.526   0.051
    1TCM     c1  638   4.226   3.114   2.465
    1TCM    cl1  639   4.394   3.170   2.458
    1TCM    cl2  640   4.149   3.177   2.613
    1TCM     h1  641   4.170   3.151   2.376
    1TCM    cl3  642   4.222   2.936   2.468
    1TCM     c1  643   2.942   4.880   1.406
    1TCM    cl1  644   2.882   5.039   1.353
    1TCM    cl2  645   2.816   4.757   1.378
    1TCM     h1  646   3.033   4.853   1.347
    1TCM    cl3  647   2.982   4.885   1.579
    1TCM     c1  648   4.328   2.469   3.326
    1TCM    cl1  649   4.424   2.530   3.463
    1TCM    cl2  650   4.164   2.431   3.382
    1TCM     h1  651   4.323   2.547   3.247
    1TCM    cl3  652   4.404   2.323   3.260
    1TCM     c1  653   4.276   0.788   3.721
    1TCM    cl1  654   4.343   0.733   3.877
    1TCM    cl2  655   4.297   0.660   3.600
    1TCM     h1  656   4.168   0.810   3.733
    1TCM    cl3  657   4.362   0.934   3.668
    1TCM     c1  658   4.266   0.997   3.311
    1TCM    cl1  659   4.132   0.982   3.195
    1TCM    cl2  660   4.219   0.924   3.466
    1TCM     h1  661   4.356   0.945   3.271
    1TCM    cl3  662   4.304   1.169   3.336
    1TCM     c1  663   2.071   0.290   3.312
    1TCM    cl1  664   1.953   0.401   3.236
    1TCM    cl2  665   2.233   0.325   3.248
    1TCM     h1  666   2.070   0.305   3.421
    1TCM    cl3  667   2.027   0.122   3.274
    1TCM     c1  668   0.507   4.493   3.659
    1TCM    cl1  669   0.572   4.637   3.742
    1TCM    cl2  670   0.412   4.397   3.774
    1TCM     h1  671   0.443   4.524   3.575
    1TCM    cl3  672   0.642   4.395   3.598
    1TCM     c1  673   0.274   1.953   4.799
    1TCM    cl1  674   0.294   1.831   4.927
    1TCM    cl2  675   0.253   1.871   4.643
    1TCM     h1  676   0.185   2.015   4.821
    1TCM    cl3  677   0.418   2.056   4.794
    1TCM     c1  678   1.117   5.106   5.242
    1TCM    cl1  679   1.248   5.192   5.326
    1TCM    cl2  680   1.156   5.094   5.069
    1TCM     h1  681   1.105   5.005   5.285
    1TCM    cl3  682   0.965   5.197   5.261
    1TCM     c1  683   0.864   2.250   1.209
    1TCM    cl1  684   0.714   2.195   1.287
    1TCM    cl2  685   1.003   2.202   1.309
    1TCM     h1  686   0.872   2.204   1.109
    1TCM    cl3  687   0.861   2.427   1.194
    1TCM     c1  688   4.807   1.679   2.306
    1TCM    cl1  689   4.939   1.794   2.332
    1TCM    cl2  690   4.871   1.513   2.317
    1TCM     h1  691   4.729   1.694   2.383
    1TCM    cl3  692   4.738   1.705   2.144
    1TCM     c1  693   2.939   1.341   2.604
    1TCM    cl1  694   2.786   1.346   2.694
    1TCM    cl2  695   2.920   1.425   2.449
    1TCM     h1  696   3.018   1.391   2.664
    1TCM    cl3  697   2.985   1.172   2.575
    1TCM     c1  698   3.211   0.558   2.652
    1TCM    cl1  699   3.047   0.568   2.722
    1TCM    cl2  700   3.283   0.720   2.644
    1TCM     h1  701   3.274   0.493   2.717
    1TCM    cl3  702   3.201   0.488   2.489
    1TCM     c1  703   2.367   4.656   1.098
    1TCM    cl1  704   2.460   4.765   1.204
    1TCM    cl2  705   2.448   4.645   0.940
    1TCM     h1  706   2.362   4.556   1.144
    1TCM    cl3  707   2.203   4.720   1.077
    1TCM     c1  708   0.576   3.420   4.111
    1TCM    cl1  709   0.612   3.594   4.110
    1TCM    cl2  710   0.594   3.355   3.946
    1TCM     h1  711   0.646   3.368   4.179
    1TCM    cl3  712   0.409   3.394   4.166
    1TCM     c1  713   2.530   0.157   1.749
    1TCM    cl1  714   2.484   0.208   1.913
    1TCM    cl2  715   2.454   0.000   1.712
    1TCM     h1  716   2.496   0.233   1.676
    1TCM    cl3  717   2.707   0.141   1.740
    1TCM     c1  718   2.674   4.933   3.624
    1TCM    cl1  719   2.530   4.906   3.523
    1TCM    cl2  720   2.643   4.874   3.789
    1TCM     h1  721   2.760   4.879   3.581
    1TCM    cl3  722   2.710   5.107   3.630
    1TCM     c1  723   3.660   3.676   4.829
    1TCM    cl1  724   3.587   3.838   4.826
    1TCM    cl2  725   3.814   3.679   4.740
    1TCM     h1  726   3.678   3.645   4.934
    1TCM    cl3  727   3.549   3.560   4.751
    1TCM     c1  728   1.713   0.249   4.767
    1TCM    cl1  729   1.558   0.213   4.846
    1TCM    cl2  730   1.694   0.237   4.591
    1TCM     h1  731   1.745   0.352   4.794
    1TCM    cl3  732   1.836   0.133   4.822
    1TCM     c1  733   3.452   3.740   1.882
    1TCM    cl1  734   3.444   3.614   2.008
    1TCM    cl2  735   3.567   3.866   1.932
    1TCM     h1  736   3.487   3.694   1.787
    1TCM    cl3  737   3.291   3.812   1.859
    1TCM     c1  738   0.233   2.731   2.110
    1TCM    cl1  739   0.410   2.724   2.129
    1TCM    cl2  740   0.190   2.682   1.945
    1TCM     h1  741   0.185   2.661   2.183
    1TCM    cl3  742   0.176   2.896   2.140
    1TCM     c1  743   1.866   0.937   3.500
    1TCM    cl1  744   1.806   1.024   3.357
    1TCM    cl2  745   1.823   0.765   3.487
    1TCM     h1  746   1.976   0.947   3.506
    1TCM    cl3  747   1.791   1.005   3.646
    1TCM     c1  748   1.459   4.570   3.680
    1TCM    cl1  749   1.316   4.675   3.694
    1TCM    cl2  750   1.493   4.540   3.508
    1TCM     h1  751   1.546   4.619   3.727
    1TCM    cl3  752   1.427   4.415   3.761
    1TCM     c1  753   1.305   3.270   3.573
    1TCM    cl1  754   1.275   3.403   3.687
    1TCM    cl2  755   1.408   3.327   3.440
    1TCM     h1  756   1.356   3.187   3.627
    1TCM    cl3  757   1.150   3.212   3.508
    1TCM     c1  758   4.739   2.455   2.525
    1TCM    cl1  759   4.622   2.371   2.420
    1TCM    cl2  760   4.723   2.393   2.691
    1TCM     h1  761   4.841   2.437   2.487
    1TCM    cl3  762   4.705   2.629   2.523
    1TCM     c1  763   2.477   1.457   1.794
    1TCM    cl1  764   2.343   1.448   1.911
    1TCM    cl2  765   2.505   1.627   1.751
    1TCM     h1  766   2.568   1.415   1.840
    1TCM    cl3  767   2.435   1.365   1.648
    1TCM     c1  768   1.357   0.146   3.734
    1TCM    cl1  769   1.180   0.161   3.735
    1TCM    cl2  770   1.412   0.098   3.572
    1TCM     h1  771   1.402   0.243   3.761
    1TCM    cl3  772   1.406   0.023   3.852
    1TCM     c1  773   4.300   3.798   2.731
    1TCM    cl1  774   4.471   3.749   2.737
    1TCM    cl2  775   4.199   3.669   2.800
    1TCM     h1  776   4.286   3.891   2.790
    1TCM    cl3  777   4.253   3.827   2.562
    1TCM     c1  778   4.425   1.297   4.028
    1TCM    cl1  779   4.460   1.155   3.928
    1TCM    cl2  780   4.476   1.266   4.195
    1TCM     h1  781   4.480   1.385   3.989
    1TCM    cl3  782   4.250   1.330   4.025
    1TCM     c1  783   3.730   2.062   2.661
    1TCM    cl1  784   3.683   2.121   2.822
    1TCM    cl2  785   3.885   2.136   2.613
    1TCM     h1  786   3.742   1.951   2.664
    1TCM    cl3  787   3.605   2.105   2.543
    1TCM     c1  788   4.962   4.009   3.374
    1TCM    cl1  789   5.066   3.890   3.456
    1TCM    cl2  790   4.978   3.990   3.198
    1TCM     h1  791   4.856   3.991   3.404
    1TCM    cl3  792   5.010   4.173   3.421
    1TCM     c1  793   0.470   1.826   0.639
    1TCM    cl1  794   0.486   1.737   0.793
    1TCM    cl2  795   0.343   1.950   0.655
    1TCM     h1  796   0.566   1.875   0.614
    1TCM    cl3  797   0.426   1.712   0.510
    1TCM     c1  798   3.710   1.696   3.652
    1TCM    cl1  799   3.865   1.760   3.712
    1TCM    cl2  800   3.701   1.719   3.476
    1TCM     h1  801   3.703   1.588   3.676
    1TCM    cl3  802   3.576   1.784   3.730
    1TCM     c1  803   1.452   2.411   2.974
    1TCM    cl1  804   1.374   2.396   2.815
    1TCM    cl2  805   1.419   2.265   3.070
    1TCM     h1  806   1.562   2.422   2.960
    1TCM    cl3  807   1.389   2.554   3.058
    1TCM     c1  808   0.303   3.046   0.164
    1TCM    cl1  809   0.310   3.223   0.150
    1TCM    cl2  810   0.378   2.996   0.318
    1TCM     h1  811   0.197   3.013   0.163
    1TCM    cl3  812   0.390   2.971   0.029
    1TCM     c1  813   0.828   4.667   5.025
    1TCM    cl1  814   0.701   4.617   5.138
    1TCM    cl2  815   0.758   4.771   4.899
    1TCM     h1  816   0.907   4.723   5.080
    1TCM    cl3  817   0.900   4.522   4.950
    1TCM     c1  818   4.707   4.852   0.137
    1TCM    cl1  819   4.852   4.828   0.037
    1TCM    cl2  820   4.755   4.871   0.307
    1TCM     h1  821   4.653   4.943   0.103
    1TCM    cl3  822   4.600   4.710   0.121
    1TCM     c1  823   0.830   1.563   0.566
    1TCM    cl1  824   0.956   1.478   0.659
    1TCM    cl2  825   0.883   1.579   0.397
    1TCM     h1  826   0.736   1.505   0.570
    1TCM    cl3  827   0.803   1.724   0.636
    1TCM     c1  828   2.434   0.377   3.521
    1TCM    cl1  829   2.375   0.513   3.619
    1TCM    cl2  830   2.467   0.433   3.356
    1TCM     h1  831   2.528   0.337   3.566
    1TCM    cl3  832   2.311   0.249   3.517
    1TCM     c1  833   0.528   1.536   3.319
    1TCM    cl1  834   0.537   1.539   3.496
    1TCM    cl2  835   0.679   1.468   3.253
    1TCM     h1  836   0.442   1.474   3.286
    1TCM    cl3  837   0.507   1.702   3.258
    1TCM     c1  838   0.339   4.407   4.978
    1TCM    cl1  839   0.314   4.264   4.876
    1TCM    cl2  840   0.372   4.357   5.145
    1TCM     h1  841   0.425   4.466   4.939
    1TCM    cl3  842   0.192   4.508   4.974
    1TCM     c1  843   4.295   1.433   2.195
    1TCM    cl1  844   4.461   1.488   2.228
    1TCM    cl2  845   4.185   1.499   2.318
    1TCM     h1  846   4.264   1.468   2.095
    1TCM    cl3  847   4.289   1.255   2.200
    1TCM     c1  848   1.485   0.669   1.807
    1TCM    cl1  849   1.451   0.542   1.926
    1TCM    cl2  850   1.420   0.622   1.649
    1TCM     h1  851   1.438   0.764   1.840
    1TCM    cl3  852   1.661   0.692   1.794
    1TCM     c1  853   2.019   1.891   3.556
    1TCM    cl1  854   2.001   2.004   3.420
    1TCM    cl2  855   1.959   1.967   3.705
    1TCM     h1  856   1.960   1.799   3.535
    1TCM    cl3  857   2.190   1.848   3.575
    1TCM     c1  858   2.647   3.609   3.827
    1TCM    cl1  859   2.761   3.693   3.934
    1TCM    cl2  860   2.578   3.469   3.912
    1TCM     h1  861   2.565   3.679   3.799
    1TCM    cl3  862   2.731   3.555   3.681
    1TCM     c1  863   0.857   1.376   3.740
    1TCM    cl1  864   0.822   1.321   3.575
    1TCM    cl2  865   0.706   1.431   3.817
    1TCM     h1  866   0.900   1.292   3.799
    1TCM    cl3  867   0.973   1.511   3.735
    1TCM     c1  868   0.794   4.412   1.928
    1TCM    cl1  869   0.663   4.399   1.809
    1TCM    cl2  870   0.728   4.384   2.091
    1TCM     h1  871   0.871   4.336   1.906
    1TCM    cl3  872   0.865   4.574   1.920
    1TCM     c1  873   3.711   4.173   2.600
    1TCM    cl1  874   3.867   4.190   2.515
    1TCM    cl2  875   3.668   4.001   2.611
    1TCM     h1  876   3.720   4.216   2.702
    1TCM    cl3  877   3.585   4.260   2.510
    1TCM     c1  878   0.683   2.569   3.585
    1TCM    cl1  879   0.681   2.582   3.408
    1TCM    cl2  880   0.788   2.434   3.633
    1TCM     h1  881   0.722   2.663   3.628
    1TCM    cl3  882   0.518   2.540   3.645
    1TCM     c1  883   1.761   3.886   1.746
    1TCM    cl1  884   1.742   3.893   1.570
    1TCM    cl2  885   1.603   3.852   1.821
    1TCM     h1  886   1.833   3.806   1.773
    1TCM    cl3  887   1.822   4.042   1.806
    1TCM     c1  888   1.609   1.612   2.621
    1TCM    cl1  889   1.474   1.704   2.691
    1TCM    cl2  890   1.551   1.452   2.569
    1TCM     h1  891   1.650   1.666   2.534
    1TCM    cl3  892   1.736   1.592   2.744
    1TCM     c1  893   3.953   0.135   4.034
    1TCM    cl1  894   4.035   0.038   3.909
    1TCM    cl2  895   4.047   0.129   4.185
    1TCM     h1  896   3.945   0.241   4.000
    1TCM    cl3  897   3.790   0.070   4.062
    1TCM     c1  898   0.162   4.540   4.579
    1TCM    cl1  899   0.311   4.617   4.519
    1TCM    cl2  900   0.047   4.665   4.632
    1TCM     h1  901   0.117   4.479   4.498
    1TCM    cl3  902   0.201   4.434   4.716
    1TCM     c1  903   1.005   1.714   0.888
    1TCM    cl1  904   0.911   1.850   0.954
    1TCM    cl2  905   1.024   1.735   0.712
    1TCM     h1  906   1.105   1.712   0.936
    1TCM    cl3  907   0.920   1.561   0.920
    1TCM     c1  908   2.723   2.852   0.296
    1TCM    cl1  909   2.675   2.938   0.147
    1TCM    cl2  910   2.691   2.678   0.277
    1TCM     h1  911   2.831   2.868   0.315
    1TCM    cl3  912   2.629   2.915   0.433
    1TCM     c1  913   3.618   1.427   3.441
    1TCM    cl1  914   3.496   1.385   3.318
    1TCM    cl2  915   3.769   1.475   3.361
    1TCM     h1  916   3.580   1.511   3.503
    1TCM    cl3  917   3.648   1.286   3.545
    1TCM     c1  918   3.523   0.283   1.970
    1TCM    cl1  919   3.576   0.427   2.061
    1TCM    cl2  920   3.524   0.318   1.796
    1TCM     h1  921   3.591   0.198   1.992
    1TCM    cl3  922   3.358   0.239   2.020
    1TCM     c1  923   4.101   2.679   1.505
    1TCM    cl1  924   4.086   2.776   1.654
    1TCM    cl2  925   4.015   2.526   1.525
    1TCM     h1  926   4.058   2.736   1.421
    1TCM    cl3  927   4.273   2.647   1.473
    1TCM     c1  928   3.014   4.241   2.680
    1TCM    cl1  929   2.862   4.151   2.666
    1TCM    cl2  930   3.079   4.222   2.845
    1TCM     h1  931   3.087   4.202   2.607
    1TCM    cl3  932   2.984   4.414   2.649
    1TCM     c1  933   4.436   1.113   2.776
    1TCM    cl1  934   4.527   1.006   2.885
    1TCM    cl2  935   4.435   1.043   2.612
    1TCM     h1  936   4.332   1.123   2.812
    1TCM    cl3  937   4.514   1.273   2.771
    1TCM     c1  938   1.101   2.089   4.966
    1TCM    cl1  939   1.067   2.259   5.006
    1TCM    cl2  940   1.121   1.995   5.116
    1TCM     h1  941   1.017   2.047   4.907
    1TCM    cl3  942   1.251   2.079   4.871
    1TCM     c1  943   2.409   4.598   4.569
    1TCM    cl1  944   2.499   4.751   4.553
    1TCM    cl2  945   2.523   4.463   4.586
    1TCM     h1  946   2.344   4.603   4.659
    1TCM    cl3  947   2.308   4.573   4.425
    1TCM     c1  948   2.303   5.081   5.108
    1TCM    cl1  949   2.280   5.175   5.257
    1TCM    cl2  950   2.471   5.100   5.051
    1TCM     h1  951   2.283   4.974   5.129
    1TCM    cl3  952   2.191   5.139   4.983
    1TCM     c1  953   2.037   1.288   3.014
    1TCM    cl1  954   2.080   1.302   3.186
    1TCM    cl2  955   1.983   1.122   2.980
    1TCM     h1  956   1.956   1.359   2.990
    1TCM    cl3  957   2.180   1.325   2.914
    1TCM     c1  958   1.945   2.209   5.153
    1TCM    cl1  959   1.868   2.353   5.224
    1TCM    cl2  960   2.024   2.254   5.001
    1TCM     h1  961   2.020   2.169   5.224
    1TCM    cl3  962   1.821   2.086   5.122
    1TCM     c1  963   2.253   1.827   1.709
    1TCM    cl1  964   2.213   1.734   1.855
    1TCM    cl2  965   2.325   1.719   1.587
    1TCM     h1  966   2.161   1.873   1.667
    1TCM    cl3  967   2.369   1.955   1.750
    1TCM     c1  968   2.657   2.713   0.841
    1TCM    cl1  969   2.701   2.546   0.883
    1TCM    cl2  970   2.754   2.766   0.701
    1TCM     h1  971   2.549   2.717   0.814
    1TCM    cl3  972   2.688   2.820   0.979
    1TCM     c1  973   3.072   1.879   2.011
    1TCM    cl1  974   2.978   2.015   1.946
    1TCM    cl2  975   3.128   1.775   1.878
    1TCM     h1  976   3.161   1.918   2.066
    1TCM    cl3  977   2.971   1.784   2.122
    1TCM     c1  978   4.631   4.631   2.715
    1TCM    cl1  979   4.626   4.586   2.887
    1TCM    cl2  980   4.741   4.769   2.693
    1TCM     h1  981   4.666   4.545   2.655
    1TCM    cl3  982   4.467   4.678   2.662
    1TCM     c1  983   3.216   0.417   4.909
    1TCM    cl1  984   3.357   0.479   4.997
    1TCM    cl2  985   3.140   0.549   4.817
    1TCM     h1  986   3.248   0.337   4.839
    1TCM    cl3  987   3.098   0.351   5.025
    1TCM     c1  988   3.966   4.009   4.166
    1TCM    cl1  989   3.968   3.838   4.118
    1TCM    cl2  990   4.030   4.025   4.331
    1TCM     h1  991   4.030   4.068   4.096
    1TCM    cl3  992   3.800   4.071   4.160
    1TCM     c1  993   1.972   1.404   2.604
    1TCM    cl1  994   1.887   1.301   2.721
    1TCM    cl2  995   2.029   1.552   2.686
    1TCM     h1  996   2.059   1.349   2.563
    1TCM    cl3  997   1.861   1.449   2.473
    1TCM     c1  998   2.675   0.495   0.135
    1TCM    cl1  999   2.830   0.408   0.141
    1TCM    cl2 1000   2.639   0.564   0.296
    1TCM     h1 1001   2.682   0.577   0.061
    1TCM    cl3 1002   2.546   0.383   0.088
    1TCM     c1 1003   2.455   2.908   2.029
    1TCM    cl1 1004   2.495   3.056   2.120
    1TCM    cl2 1005   2.451   2.945   1.855
    1TCM     h1 1006   2.532   2.831   2.049
    1TCM    cl3 1007   2.296   2.848   2.080
    1TCM     c1 1008   1.115   4.962   1.639
    1TCM    cl1 1009   1.096   5.139   1.638
    1TCM    cl2 1010   1.287   4.921   1.651
    1TCM     h1 1011   1.060   4.920   1.726
    1TCM    cl3 1012   1.048   4.895   1.488
    1TCM     c1 1013   4.248   2.315   4.401
    1TCM    cl1 1014   4.123   2.434   4.443
    1TCM    cl2 1015   4.181   2.151   4.414
    1TCM     h1 1016   4.283   2.333   4.297
    1TCM    cl3 1017   4.385   2.332   4.513
    1TCM     c1 1018   1.929   5.126   5.147
    1TCM    cl1 1019   1.846   5.004   5.048
    1TCM    cl2 1020   1.855   5.130   5.309
    1TCM     h1 1021   2.036   5.099   5.156
    1TCM    cl3 1022   1.912   5.285   5.071
    1TCM     c1 1023   3.463   3.885   0.622
    1TCM    cl1 1024   3.322   3.803   0.549
    1TCM    cl2 1025   3.516   3.793   0.765
    1TCM     h1 1026   3.545   3.889   0.548
    1TCM    cl3 1027   3.417   4.049   0.671
    1TCM     c1 1028   4.666   0.984   1.072
    1TCM    cl1 1029   4.703   1.036   1.238
    1TCM    cl2 1030   4.578   1.114   0.988
    1TCM     h1 1031   4.760   0.963   1.018
    1TCM    cl3 1032   4.565   0.838   1.076
    1TCM     c1 1033   4.114   1.809   1.962
    1TCM    cl1 1034   4.224   1.844   1.827
    1TCM    cl2 1035   4.072   1.961   2.046
    1TCM     h1 1036   4.022   1.762   1.923
    1TCM    cl3 1037   4.194   1.699   2.077
    1TCM     c1 1038   4.132   1.740   0.167
    1TCM    cl1 1039   4.195   1.577   0.199
    1TCM    cl2 1040   3.958   1.730   0.130
    1TCM     h1 1041   4.147   1.803   0.257
    1TCM    cl3 1042   4.218   1.811   0.029
    1TCM     c1 1043   3.989   3.239   4.817
    1TCM    cl1 1044   3.937   3.394   4.748
    1TCM    cl2 1045   4.151   3.256   4.888
    1TCM     h1 1046   3.917   3.207   4.895
    1TCM    cl3 1047   3.993   3.115   4.688
    1TCM     c1 1048   1.228   0.545   3.846
    1TCM    cl1 1049   1.230   0.553   4.023
    1TCM    cl2 1050   1.290   0.697   3.779
    1TCM     h1 1051   1.291   0.460   3.812
    1TCM    cl3 1052   1.061   0.520   3.790
    1TCM     c1 1053   3.581   0.358   1.432
    1TCM    cl1 1054   3.405   0.332   1.444
    1TCM    cl2 1055   3.628   0.365   1.261
    1TCM     h1 1056   3.607   0.454   1.482
    1TCM    cl3 1057   3.667   0.225   1.512
    1TCM     c1 1058   1.290   0.317   4.102
    1TCM    cl1 1059   1.429   0.425   4.081
    1TCM    cl2 1060   1.185   0.379   4.231
    1TCM     h1 1061   1.232   0.312   4.007
    1TCM    cl3 1062   1.347   0.154   4.145
    1TCM     c1 1063   3.132   5.262   3.611
    1TCM    cl1 1064   3.221   5.284   3.458
    1TCM    cl2 1065   2.972   5.338   3.597
    1TCM     h1 1066   3.120   5.154   3.631
    1TCM    cl3 1067   3.223   5.338   3.743
    1TCM     c1 1068   2.285   1.134   4.311
    1TCM    cl1 1069   2.285   1.043   4.158
    1TCM    cl2 1070   2.420   1.251   4.310
    1TCM     h1 1071   2.189   1.188   4.322
    1TCM    cl3 1072   2.306   1.021   4.447
    1TCM     c1 1073   3.291   0.743   0.356
    1TCM    cl1 1074   3.459   0.795   0.381
    1TCM    cl2 1075   3.276   0.571   0.400
    1TCM     h1 1076   3.224   0.803   0.421
    1TCM    cl3 1077   3.246   0.765   0.186
    1TCM     c1 1078   1.683   2.099   2.724
    1TCM    cl1 1079   1.616   2.171   2.872
    1TCM    cl2 1080   1.859   2.086   2.739
    1TCM     h1 1081   1.639   1.998   2.709
    1TCM    cl3 1082   1.643   2.203   2.584
    1TCM     c1 1083   5.003   4.018   4.679
    1TCM    cl1 1084   5.074   3.888   4.581
    1TCM    cl2 1085   4.912   4.129   4.573
    1TCM     h1 1086   4.934   3.975   4.754
    1TCM    cl3 1087   5.132   4.108   4.761
    1TCM     c1 1088   0.893   0.928   2.736
    1TCM    cl1 1089   0.875   1.101   2.774
    1TCM    cl2 1090   0.844   0.899   2.567
    1TCM     h1 1091   0.999   0.898   2.749
    1TCM    cl3 1092   0.789   0.833   2.845
    1TCM     c1 1093   4.736   0.996   3.652
    1TCM    cl1 1094   4.784   0.856   3.751
    1TCM    cl2 1095   4.792   0.973   3.485
    1TCM     h1 1096   4.626   1.006   3.654
    1TCM    cl3 1097   4.810   1.144   3.719
    1TCM     c1 1098   5.105   4.811   0.643
    1TCM    cl1 1099   5.234   4.895   0.732
    1TCM    cl2 1100   5.162   4.771   0.479
    1TCM     h1 1101   5.077   4.718   0.696
    1TCM    cl3 1102   4.962   4.917   0.631
    1TCM     c1 1103   0.726   3.380   0.333
    1TCM    cl1 1104   0.784   3.483   0.467
    1TCM    cl2 1105   0.554   3.343   0.357
    1TCM     h1 1106   0.739   3.434   0.237
    1TCM    cl3 1107   0.820   3.229   0.331
    1TCM     c1 1108   1.217   2.465   4.736
    1TCM    cl1 1109   1.213   2.329   4.850
    1TCM    cl2 1110   1.360   2.450   4.632
    1TCM     h1 1111   1.126   2.464   4.673
    1TCM    cl3 1112   1.225   2.618   4.826
    1TCM     c1 1113   0.725   3.240   0.703
    1TCM    cl1 1114   0.702   3.124   0.836
    1TCM    cl2 1115   0.704   3.156   0.548
    1TCM     h1 1116   0.649   3.321   0.712
    1TCM    cl3 1117   0.888   3.309   0.712
    1TCM     c1 1118   4.291   1.531   2.598
    1TCM    cl1 1119   4.411   1.596   2.483
    1TCM    cl2 1120   4.321   1.601   2.759
    1TCM     h1 1121   4.189   1.558   2.564
    1TCM    cl3 1122   4.306   1.354   2.606
    1TCM     c1 1123   2.138   0.583   4.332
    1TCM    cl1 1124   2.181   0.474   4.198
    1TCM    cl2 1125   2.138   0.751   4.274
    1TCM     h1 1126   2.037   0.557   4.370
    1TCM    cl3 1127   2.257   0.566   4.463
    1TCM     c1 1128   0.443   0.157   2.658
    1TCM    cl1 1129   0.523   0.001   2.632
    1TCM    cl2 1130   0.527   0.245   2.788
    1TCM     h1 1131   0.447   0.217   2.565
    1TCM    cl3 1132   0.274   0.130   2.705
    1TCM     c1 1133   1.859   4.553   4.438
    1TCM    cl1 1134   1.924   4.418   4.343
    1TCM    cl2 1135   1.888   4.523   4.611
    1TCM     h1 1136   1.908   4.647   4.408
    1TCM    cl3 1137   1.684   4.566   4.410
    1TCM     c1 1138   4.307   4.634   1.517
    1TCM    cl1 1139   4.214   4.709   1.385
    1TCM    cl2 1140   4.433   4.528   1.448
    1TCM     h1 1141   4.355   4.713   1.579
    1TCM    cl3 1142   4.198   4.537   1.618
    1TCM     c1 1143   1.138   2.611   0.560
    1TCM    cl1 1144   1.308   2.637   0.603
    1TCM    cl2 1145   1.125   2.473   0.448
    1TCM     h1 1146   1.079   2.590   0.651
    1TCM    cl3 1147   1.074   2.757   0.480
    1TCM     c1 1148   1.308   0.959   4.268
    1TCM    cl1 1149   1.215   1.080   4.358
    1TCM    cl2 1150   1.322   1.009   4.098
    1TCM     h1 1151   1.409   0.949   4.312
    1TCM    cl3 1152   1.224   0.802   4.276
    1TCM     c1 1153   1.876   1.524   0.881
    1TCM    cl1 1154   1.888   1.693   0.828
    1TCM    cl2 1155   1.884   1.518   1.059
    1TCM     h1 1156   1.780   1.481   0.847
    1TCM    cl3 1157   2.012   1.431   0.813
    1TCM     c1 1158   1.227   4.573   1.451
    1TCM    cl1 1159   1.232   4.404   1.396
    1TCM    cl2 1160   1.241   4.681   1.310
    1TCM     h1 1161   1.131   4.592   1.503
    1TCM    cl3 1162   1.362   4.603   1.562
    1TCM     c1 1163   5.097   2.817   2.660
    1TCM    cl1 1164   4.986   2.750   2.782
    1TCM    cl2 1165   5.031   2.787   2.497
    1TCM     h1 1166   5.107   2.926   2.675
    1TCM    cl3 1167   5.256   2.740   2.675
    1TCM     c1 1168   0.862   2.454   0.237
    1TCM    cl1 1169   0.825   2.403   0.070
    1TCM    cl2 1170   0.710   2.473   0.328
    1TCM     h1 1171   0.925   2.377   0.286
    1TCM    cl3 1172   0.949   2.609   0.234
    1TCM     c1 1173   3.685   4.701   3.443
    1TCM    cl1 1174   3.767   4.794   3.316
    1TCM    cl2 1175   3.801   4.588   3.518
    1TCM     h1 1176   3.645   4.770   3.520
    1TCM    cl3 1177   3.550   4.609   3.372
    1TCM     c1 1178   2.168   1.011   2.405
    1TCM    cl1 1179   2.342   1.036   2.379
    1TCM    cl2 1180   2.082   1.164   2.378
    1TCM     h1 1181   2.131   0.934   2.333
    1TCM    cl3 1182   2.140   0.955   2.571
    1TCM     c1 1183   0.716   4.617   4.518
    1TCM    cl1 1184   0.620   4.602   4.668
    1TCM    cl2 1185   0.607   4.632   4.379
    1TCM     h1 1186   0.781   4.707   4.525
    1TCM    cl3 1187   0.818   4.472   4.498
    1TCM     c1 1188   2.051   4.830   3.930
    1TCM    cl1 1189   2.096   4.948   4.056
    1TCM    cl2 1190   2.179   4.824   3.807
    1TCM     h1 1191   2.039   4.730   3.976
    1TCM    cl3 1192   1.898   4.879   3.855
    1TCM     c1 1193   1.190   0.281   1.290
    1TCM    cl1 1194   1.179   0.105   1.263
    1TCM    cl2 1195   1.133   0.320   1.454
    1TCM     h1 1196   1.296   0.314   1.279
    1TCM    cl3 1197   1.089   0.366   1.170
    1TCM     c1 1198   2.466   3.131   1.101
    1TCM    cl1 1199   2.443   3.128   1.278
    1TCM    cl2 1200   2.629   3.073   1.061
    1TCM     h1 1201   2.391   3.066   1.053
    1TCM    cl3 1202   2.446   3.298   1.042
    1TCM     c1 1203   1.024   3.618   1.108
    1TCM    cl1 1204   1.067   3.736   0.982
    1TCM    cl2 1205   0.926   3.488   1.036
    1TCM     h1 1206   1.116   3.575   1.151
    1TCM    cl3 1207   0.930   3.699   1.235
    1TCM     c1 1208   3.762   2.387   2.042
    1TCM    cl1 1209   3.840   2.536   2.102
    1TCM    cl2 1210   3.797   2.253   2.154
    1TCM     h1 1211   3.652   2.403   2.036
    1TCM    cl3 1212   3.825   2.348   1.881
    1TCM     c1 1213   2.785   2.483   1.274
    1TCM    cl1 1214   2.728   2.454   1.107
    1TCM    cl2 1215   2.910   2.610   1.272
    1TCM     h1 1216   2.700   2.516   1.336
    1TCM    cl3 1217   2.853   2.333   1.340
    1TCM     c1 1218   2.752   3.503   4.297
    1TCM    cl1 1219   2.725   3.624   4.169
    1TCM    cl2 1220   2.904   3.417   4.265
    1TCM     h1 1221   2.759   3.554   4.395
    1TCM    cl3 1222   2.617   3.388   4.299
    1TCM     c1 1223   1.191   2.796   4.171
    1TCM    cl1 1224   1.196   2.803   4.348
    1TCM    cl2 1225   1.022   2.784   4.117
    1TCM     h1 1226   1.237   2.888   4.129
    1TCM    cl3 1227   1.282   2.654   4.114
    1TCM     c1 1228   1.515   2.929   3.466
    1TCM    cl1 1229   1.536   2.780   3.561
    1TCM    cl2 1230   1.464   2.888   3.301
    1TCM     h1 1231   1.437   2.993   3.514
    1TCM    cl3 1232   1.669   3.018   3.460
    1TCM     c1 1233   3.796   4.792   3.860
    1TCM    cl1 1234   3.741   4.695   3.722
    1TCM    cl2 1235   3.791   4.693   4.008
    1TCM     h1 1236   3.901   4.826   3.842
    1TCM    cl3 1237   3.691   4.934   3.880
    1TCM     c1 1238   0.160   3.223   0.516
    1TCM    cl1 1239   0.238   3.234   0.675
    1TCM    cl2 1240   0.152   3.052   0.467
    1TCM     h1 1241   0.058   3.264   0.522
    1TCM    cl3 1242   0.255   3.314   0.397
    1TCM     c1 1243   1.462   2.284   5.094
    1TCM    cl1 1244   1.489   2.116   5.145
    1TCM    cl2 1245   1.550   2.395   5.201
    1TCM     h1 1246   1.497   2.297   4.989
    1TCM    cl3 1247   1.288   2.321   5.101
    1TCM     c1 1248   0.254   1.946   3.021
    1TCM    cl1 1249   0.284   1.778   2.970
    1TCM    cl2 1250   0.386   2.050   2.962
    1TCM     h1 1251   0.158   1.980   2.979
    1TCM    cl3 1252   0.248   1.952   3.199
    1TCM     c1 1253   3.695   0.230   4.946
    1TCM    cl1 1254   3.635   0.321   4.805
    1TCM    cl2 1255   3.565   0.128   5.010
    1TCM     h1 1256   3.780   0.167   4.916
    1TCM    cl3 1257   3.747   0.345   5.072
    1TCM     c1 1258   1.825   2.779   2.163
    1TCM    cl1 1259   1.737   2.895   2.265
    1TCM    cl2 1260   1.830   2.839   1.995
    1TCM     h1 1261   1.929   2.768   2.201
    1TCM    cl3 1262   1.743   2.622   2.167
    1TCM     c1 1263   4.175   0.699   4.243
    1TCM    cl1 1264   4.211   0.570   4.126
    1TCM    cl2 1265   3.999   0.714   4.263
    1TCM     h1 1266   4.222   0.675   4.340
    1TCM    cl3 1267   4.241   0.853   4.183
    1TCM     c1 1268   0.328   3.835   1.610
    1TCM    cl1 1269   0.363   3.956   1.485
    1TCM    cl2 1270   0.170   3.870   1.684
    1TCM     h1 1271   0.325   3.734   1.563
    1TCM    cl3 1272   0.454   3.839   1.734
    1TCM     c1 1273   0.256   1.620   0.918
    1TCM    cl1 1274   0.119   1.529   0.987
    1TCM    cl2 1275   0.350   1.695   1.049
    1TCM     h1 1276   0.321   1.551   0.861
    1TCM    cl3 1277   0.194   1.746   0.809
    1TCM     c1 1278   3.728   2.546   2.847
    1TCM    cl1 1279   3.645   2.698   2.889
    1TCM    cl2 1280   3.608   2.424   2.801
    1TCM     h1 1281   3.797   2.564   2.762
    1TCM    cl3 1282   3.821   2.488   2.988
    1TCM     c1 1283   0.291   4.830   2.862
    1TCM    cl1 1284   0.373   4.675   2.832
    1TCM    cl2 1285   0.141   4.801   2.954
    1TCM     h1 1286   0.358   4.896   2.920
    1TCM    cl3 1287   0.251   4.906   2.706
    1TCM     c1 1288   0.132   4.652   2.490
    1TCM    cl1 1289   0.067   4.685   2.653
    1TCM    cl2 1290   0.209   4.800   2.427
    1TCM     h1 1291   0.207   4.571   2.497
    1TCM    cl3 1292   0.000   4.603   2.382
    1TCM     c1 1293   0.477   2.599   2.433
    1TCM    cl1 1294   0.317   2.624   2.359
    1TCM    cl2 1295   0.604   2.635   2.313
    1TCM     h1 1296   0.489   2.667   2.520
    1TCM    cl3 1297   0.492   2.430   2.486
    1TCM     c1 1298   0.644   4.029   2.890
    1TCM    cl1 1299   0.476   3.996   2.939
    1TCM    cl2 1300   0.708   3.888   2.801
    1TCM     h1 1301   0.646   4.118   2.824
    1TCM    cl3 1302   0.743   4.058   3.034
    1TCM     c1 1303   2.385   0.718   4.081
    1TCM    cl1 1304   2.359   0.687   4.254
    1TCM    cl2 1305   2.228   0.734   4.000
    1TCM     h1 1306   2.443   0.812   4.069
    1TCM    cl3 1307   2.476   0.583   4.009
    1TCM     c1 1308   1.859   1.951   2.247
    1TCM    cl1 1309   1.802   1.986   2.082
    1TCM    cl2 1310   1.820   1.782   2.287
    1TCM     h1 1311   1.968   1.966   2.253
    1TCM    cl3 1312   1.777   2.059   2.362
    1TCM     c1 1313   0.958   3.191   2.348
    1TCM    cl1 1314   1.023   3.204   2.513
    1TCM    cl2 1315   0.961   3.351   2.271
    1TCM     h1 1316   1.021   3.120   2.290
    1TCM    cl3 1317   0.791   3.131   2.355
    1TCM     c1 1318   4.765   3.757   3.069
    1TCM    cl1 1319   4.717   3.855   2.929
    1TCM    cl2 1320   4.818   3.596   3.014
    1TCM     h1 1321   4.849   3.807   3.122
    1TCM    cl3 1322   4.627   3.739   3.179
    1TCM     c1 1323   4.306   1.067   4.575
    1TCM    cl1 1324   4.391   1.098   4.728
    1TCM    cl2 1325   4.420   1.086   4.439
    1TCM     h1 1326   4.266   0.964   4.575
    1TCM    cl3 1327   4.172   1.182   4.557
    1TCM     c1 1328   0.166   3.099   4.644
    1TCM    cl1 1329   0.276   3.235   4.616
    1TCM    cl2 1330   0.059   3.137   4.781
    1TCM     h1 1331   0.105   3.080   4.554
    1TCM    cl3 1332   0.261   2.953   4.682
    1TCM     c1 1333   1.050   1.940   0.281
    1TCM    cl1 1334   0.975   1.902   0.437
    1TCM    cl2 1335   1.148   2.088   0.297
    1TCM     h1 1336   1.115   1.856   0.250
    1TCM    cl3 1337   0.924   1.966   0.159
    1TCM     c1 1338   1.919   2.177   1.760
    1TCM    cl1 1339   1.779   2.179   1.869
    1TCM    cl2 1340   1.865   2.207   1.593
    1TCM     h1 1341   1.991   2.256   1.790
    1TCM    cl3 1342   1.999   2.019   1.768
    1TCM     c1 1343   2.577   4.471   3.884
    1TCM    cl1 1344   2.422   4.551   3.921
    1TCM    cl2 1345   2.676   4.579   3.783
    1TCM     h1 1346   2.631   4.450   3.978
    1TCM    cl3 1347   2.546   4.320   3.796
    1TCM     c1 1348   3.296   0.533   1.668
    1TCM    cl1 1349   3.238   0.398   1.768
    1TCM    cl2 1350   3.233   0.515   1.503
    1TCM     h1 1351   3.260   0.629   1.712
    1TCM    cl3 1352   3.474   0.531   1.665
    1TCM     c1 1353   2.492   4.811   4.893
    1TCM    cl1 1354   2.357   4.698   4.866
    1TCM    cl2 1355   2.574   4.843   4.739
    1TCM     h1 1356   2.453   4.906   4.935
    1TCM    cl3 1357   2.607   4.738   5.007
    1TCM     c1 1358   2.659   1.882   3.412
    1TCM    cl1 1359   2.731   1.821   3.563
    1TCM    cl2 1360   2.612   1.744   3.310
    1TCM     h1 1361   2.570   1.943   3.436
    1TCM    cl3 1362   2.779   1.981   3.326
    1TCM     c1 1363   0.835   1.806   4.961
    1TCM    cl1 1364   0.857   1.719   5.114
    1TCM    cl2 1365   0.983   1.793   4.863
    1TCM     h1 1366   0.750   1.762   4.905
    1TCM    cl3 1367   0.801   1.977   4.995
    1TCM     c1 1368   3.147   1.169   3.109
    1TCM    cl1 1369   3.197   1.036   3.216
    1TCM    cl2 1370   3.279   1.206   2.995
    1TCM     h1 1371   3.057   1.139   3.052
    1TCM    cl3 1372   3.111   1.314   3.206
    1TCM     c1 1373   3.708   0.764   1.661
    1TCM    cl1 1374   3.804   0.769   1.511
    1TCM    cl2 1375   3.627   0.921   1.684
    1TCM     h1 1376   3.632   0.684   1.654
    1TCM    cl3 1377   3.816   0.732   1.799
    1TCM     c1 1378   0.551   0.458   0.571
    1TCM    cl1 1379   0.660   0.587   0.628
    1TCM    cl2 1380   0.391   0.479   0.646
    1TCM     h1 1381   0.541   0.464   0.461
    1TCM    cl3 1382   0.617   0.300   0.617
    1TCM     c1 1383   0.843   3.828   3.732
    1TCM    cl1 1384   0.890   3.973   3.824
    1TCM    cl2 1385   0.830   3.689   3.842
    1TCM     h1 1386   0.744   3.846   3.684
    1TCM    cl3 1387   0.965   3.794   3.608
    1TCM     c1 1388   5.168   4.206   4.464
    1TCM    cl1 1389   5.279   4.258   4.593
    1TCM    cl2 1390   5.248   4.226   4.306
    1TCM     h1 1391   5.141   4.100   4.479
    1TCM    cl3 1392   5.021   4.306   4.469
    1TCM     c1 1393   3.765   1.765   0.935
    1TCM    cl1 1394   3.682   1.911   0.875
    1TCM    cl2 1395   3.779   1.773   1.112
    1TCM     h1 1396   3.706   1.675   0.907
    1TCM    cl3 1397   3.927   1.755   0.863
    1TCM     c1 1398   3.410   4.543   3.826
    1TCM    cl1 1399   3.347   4.387   3.883
    1TCM    cl2 1400   3.433   4.538   3.649
    1TCM     h1 1401   3.338   4.624   3.851
    1TCM    cl3 1402   3.566   4.576   3.904
    1TCM     c1 1403   1.682   4.731   3.217
    1TCM    cl1 1404   1.714   4.558   3.194
    1TCM    cl2 1405   1.808   4.826   3.136
    1TCM     h1 1406   1.583   4.757   3.175
    1TCM    cl3 1407   1.683   4.769   3.391
    1TCM     c1 1408   2.613   0.517   2.660
    1TCM    cl1 1409   2.730   0.600   2.764
    1TCM    cl2 1410   2.534   0.636   2.554
    1TCM     h1 1411   2.665   0.441   2.598
    1TCM    cl3 1412   2.490   0.437   2.760
    1TCM     c1 1413   3.328   2.125   4.220
    1TCM    cl1 1414   3.348   2.013   4.357
    1TCM    cl2 1415   3.461   2.242   4.218
    1TCM     h1 1416   3.328   2.067   4.125
    1TCM    cl3 1417   3.173   2.211   4.237
    1TCM     c1 1418   2.953   2.436   0.611
    1TCM    cl1 1419   2.866   2.570   0.533
    1TCM    cl2 1420   3.127   2.454   0.582
    1TCM     h1 1421   2.933   2.438   0.720
    1TCM    cl3 1422   2.897   2.282   0.544
    1TCM     c1 1423   1.605   0.446   5.026
    1TCM    cl1 1424   1.600   0.526   4.867
    1TCM    cl2 1425   1.439   0.413   5.080
    1TCM     h1 1426   1.661   0.351   5.018
    1TCM    cl3 1427   1.685   0.553   5.144
    1TCM     c1 1428   0.765   1.626   1.650
    1TCM    cl1 1429   0.688   1.637   1.810
    1TCM    cl2 1430   0.802   1.456   1.614
    1TCM     h1 1431   0.695   1.666   1.573
    1TCM    cl3 1432   0.915   1.721   1.649
    1TCM     c1 1433   4.999   3.174   0.350
    1TCM    cl1 1434   4.906   3.037   0.286
    1TCM    cl2 1435   4.891   3.284   0.437
    1TCM     h1 1436   5.078   3.137   0.419
    1TCM    cl3 1437   5.076   3.261   0.214
    1TCM     c1 1438   0.675   1.726   3.995
    1TCM    cl1 1439   0.723   1.591   4.100
    1TCM    cl2 1440   0.654   1.873   4.092
    1TCM     h1 1441   0.754   1.743   3.919
    1TCM    cl3 1442   0.522   1.687   3.913
    1TCM     c1 1443   0.962   0.804   0.461
    1TCM    cl1 1444   0.805   0.770   0.384
    1TCM    cl2 1445   1.046   0.651   0.495
    1TCM     h1 1446   1.023   0.866   0.392
    1TCM    cl3 1447   0.935   0.892   0.613
    1TCM     c1 1448   3.505   4.944   4.929
    1TCM    cl1 1449   3.473   4.982   5.100
    1TCM    cl2 1450   3.493   4.768   4.905
    1TCM     h1 1451   3.430   4.995   4.866
    1TCM    cl3 1452   3.668   4.999   4.885
    1TCM     c1 1453   3.135   3.892   3.656
    1TCM    cl1 1454   2.991   3.840   3.746
    1TCM    cl2 1455   3.093   3.909   3.484
    1TCM     h1 1456   3.170   3.989   3.696
    1TCM    cl3 1457   3.263   3.770   3.674
    1TCM     c1 1458   2.823   4.279   3.253
    1TCM    cl1 1459   2.920   4.422   3.210
    1TCM    cl2 1460   2.757   4.300   3.417
    1TCM     h1 1461   2.740   4.267   3.180
    1TCM    cl3 1462   2.926   4.134   3.249
    1TCM     c1 1463   3.496   1.334   2.705
    1TCM    cl1 1464   3.351   1.431   2.673
    1TCM    cl2 1465   3.490   1.271   2.871
    1TCM     h1 1466   3.500   1.249   2.634
    1TCM    cl3 1467   3.641   1.436   2.685
    1TCM     c1 1468   4.569   2.109   5.140
    1TCM    cl1 1469   4.691   2.100   5.268
    1TCM    cl2 1470   4.468   1.962   5.143
    1TCM     h1 1471   4.504   2.198   5.156
    1TCM    cl3 1472   4.649   2.123   4.982
    1TCM     c1 1473   3.142   2.178   0.716
    1TCM    cl1 1474   3.248   2.269   0.606
    1TCM    cl2 1475   3.154   2.246   0.880
    1TCM     h1 1476   3.037   2.184   0.681
    1TCM    cl3 1477   3.193   2.007   0.719
    1TCM     c1 1478   4.608   4.817   1.566
    1TCM    cl1 1479   4.679   4.654   1.557
    1TCM    cl2 1480   4.497   4.825   1.704
    1TCM     h1 1481   4.688   4.892   1.579
    1TCM    cl3 1482   4.518   4.850   1.416
    1TCM     c1 1483   4.627   0.718   3.261
    1TCM    cl1 1484   4.650   0.546   3.299
    1TCM    cl2 1485   4.573   0.734   3.092
    1TCM     h1 1486   4.550   0.760   3.329
    1TCM    cl3 1487   4.780   0.805   3.283
    1TCM     c1 1488   3.557   2.211   0.446
    1TCM    cl1 1489   3.675   2.344   0.433
    1TCM    cl2 1490   3.638   2.066   0.509
    1TCM     h1 1491   3.475   2.241   0.514
    1TCM    cl3 1492   3.490   2.176   0.285
    1TCM     c1 1493   1.771   0.143   2.733
    1TCM    cl1 1494   1.669   0.210   2.862
    1TCM    cl2 1495   1.920   0.239   2.719
    1TCM     h1 1496   1.796   0.038   2.757
    1TCM    cl3 1497   1.682   0.149   2.579
    1TCM     c1 1498   1.217   4.687   5.048
    1TCM    cl1 1499   1.392   4.709   5.071
    1TCM    cl2 1500   1.140   4.655   5.205
    1TCM     h1 1501   1.174   4.779   5.003
    1TCM    cl3 1502   1.188   4.550   4.938
    1TCM     c1 1503   5.127   0.296   4.512
    1TCM    cl1 1504   5.182   0.215   4.364
    1TCM    cl2 1505   5.161   0.192   4.652
    1TCM     h1 1506   5.181   0.392   4.524
    1TCM    cl3 1507   4.952   0.326   4.502
    1TCM     c1 1508   4.377   4.855   0.244
    1TCM    cl1 1509   4.212   4.878   0.306
    1TCM    cl2 1510   4.490   4.838   0.381
    1TCM     h1 1511   4.381   4.764   0.181
    1TCM    cl3 1512   4.424   4.996   0.147
    1TCM     c1 1513   0.539   2.531   3.927
    1TCM    cl1 1514   0.681   2.465   3.842
    1TCM    cl2 1515   0.543   2.480   4.097
    1TCM     h1 1516   0.542   2.642   3.922
    1TCM    cl3 1517   0.391   2.471   3.851
    1TCM     c1 1518   4.071   1.350   1.715
    1TCM    cl1 1519   4.166   1.384   1.569
    1TCM    cl2 1520   4.093   1.482   1.832
    1TCM     h1 1521   3.964   1.341   1.689
    1TCM    cl3 1522   4.127   1.197   1.787
    1TCM     c1 1523   1.432   4.916   0.401
    1TCM    cl1 1524   1.561   5.037   0.384
    1TCM    cl2 1525   1.419   4.866   0.571
    1TCM     h1 1526   1.336   4.959   0.367
    1TCM    cl3 1527   1.471   4.774   0.300
    1TCM     c1 1528   3.323   1.123   4.030
    1TCM    cl1 1529   3.296   1.134   3.854
    1TCM    cl2 1530   3.449   1.001   4.062
    1TCM     h1 1531   3.356   1.221   4.068
    1TCM    cl3 1532   3.172   1.075   4.110
    1TCM     c1 1533   4.654   3.547   3.717
    1TCM    cl1 1534   4.762   3.480   3.593
    1TCM    cl2 1535   4.552   3.417   3.784
    1TCM     h1 1536   4.714   3.592   3.799
    1TCM    cl3 1537   4.550   3.673   3.645
    1TCM     c1 1538   1.407   0.843   0.608
    1TCM    cl1 1539   1.280   0.908   0.714
    1TCM    cl2 1540   1.520   0.745   0.703
    1TCM     h1 1541   1.360   0.780   0.529
    1TCM    cl3 1542   1.495   0.978   0.531
    1TCM     c1 1543   1.182   2.003   1.100
    1TCM    cl1 1544   1.283   1.898   1.202
    1TCM    cl2 1545   1.159   1.925   0.941
    1TCM     h1 1546   1.084   2.018   1.148
    1TCM    cl3 1547   1.263   2.160   1.078
    1TCM     c1 1548   3.484   3.093   2.412
    1TCM    cl1 1549   3.648   3.077   2.343
    1TCM    cl2 1550   3.475   3.242   2.507
    1TCM     h1 1551   3.410   3.097   2.329
    1TCM    cl3 1552   3.449   2.953   2.516
    1TCM     c1 1553   3.251   3.556   2.833
    1TCM    cl1 1554   3.128   3.684   2.825
    1TCM    cl2 1555   3.172   3.398   2.851
    1TCM     h1 1556   3.312   3.557   2.740
    1TCM    cl3 1557   3.357   3.586   2.973
    1TCM     c1 1558   1.302   1.169   0.291
    1TCM    cl1 1559   1.308   1.020   0.388
    1TCM    cl2 1560   1.179   1.153   0.163
    1TCM     h1 1561   1.276   1.255   0.357
    1TCM    cl3 1562   1.461   1.198   0.217
    1TCM     c1 1563   3.053   0.246   0.872
    1TCM    cl1 1564   3.124   0.292   1.029
    1TCM    cl2 1565   2.926   0.124   0.899
    1TCM     h1 1566   3.008   0.336   0.824
    1TCM    cl3 1567   3.179   0.179   0.767
    1TCM     c1 1568   1.915   3.342   1.032
    1TCM    cl1 1569   1.804   3.474   0.989
    1TCM    cl2 1570   1.942   3.343   1.208
    1TCM     h1 1571   1.871   3.245   1.002
    1TCM    cl3 1572   2.070   3.365   0.948
    1TCM     c1 1573   2.930   3.795   2.003
    1TCM    cl1 1574   3.063   3.911   2.022
    1TCM    cl2 1575   2.862   3.757   2.163
    1TCM     h1 1576   2.851   3.839   1.939
    1TCM    cl3 1577   2.991   3.646   1.928
    1TCM     c1 1578   4.560   0.502   4.115
    1TCM    cl1 1579   4.684   0.378   4.146
    1TCM    cl2 1580   4.623   0.662   4.164
    1TCM     h1 1581   4.535   0.504   4.007
    1TCM    cl3 1582   4.414   0.465   4.209
    1TCM     c1 1583   4.666   3.016   4.764
    1TCM    cl1 1584   4.817   2.973   4.680
    1TCM    cl2 1585   4.660   2.935   4.922
    1TCM     h1 1586   4.662   3.126   4.778
    1TCM    cl3 1587   4.527   2.964   4.666
    1TCM     c1 1588   1.114   4.674   2.409
    1TCM    cl1 1589   1.022   4.753   2.279
    1TCM    cl2 1590   1.161   4.795   2.531
    1TCM     h1 1591   1.051   4.596   2.457
    1TCM    cl3 1592   1.260   4.599   2.341
    1TCM     c1 1593   5.134   0.238   0.368
    1TCM    cl1 1594   4.961   0.204   0.342
    1TCM    cl2 1595   5.207   0.291   0.215
    1TCM     h1 1596   5.144   0.318   0.444
    1TCM    cl3 1597   5.215   0.091   0.425
    1TCM     c1 1598   4.577   0.468   3.655
    1TCM    cl1 1599   4.590   0.366   3.510
    1TCM    cl2 1600   4.614   0.637   3.613
    1TCM     h1 1601   4.474   0.462   3.695
    1TCM    cl3 1602   4.692   0.412   3.778
    1TCM     c1 1603   3.609   5.096   4.455
    1TCM    cl1 1604   3.566   5.219   4.575
    1TCM    cl2 1605   3.786   5.076   4.451
    1TCM     h1 1606   3.562   4.999   4.482
    1TCM    cl3 1607   3.552   5.147   4.294
    1TCM     c1 1608   1.465   1.874   1.595
    1TCM    cl1 1609   1.533   1.854   1.432
    1TCM    cl2 1610   1.287   1.870   1.586
    1TCM     h1 1611   1.500   1.792   1.661
    1TCM    cl3 1612   1.517   2.030   1.663
    1TCM     c1 1613   5.270   0.242   1.508
    1TCM    cl1 1614   5.111   0.252   1.586
    1TCM    cl2 1615   5.252   0.267   1.333
    1TCM     h1 1616   5.337   0.319   1.550
    1TCM    cl3 1617   5.340   0.081   1.537
    1TCM     c1 1618   3.314   1.767   2.806
    1TCM    cl1 1619   3.200   1.752   2.670
    1TCM    cl2 1620   3.234   1.848   2.942
    1TCM     h1 1621   3.348   1.666   2.837
    1TCM    cl3 1622   3.454   1.863   2.754
    1TCM     c1 1623   3.630   0.403   0.551
    1TCM    cl1 1624   3.699   0.564   0.519
    1TCM    cl2 1625   3.689   0.288   0.429
    1TCM     h1 1626   3.661   0.369   0.652
    1TCM    cl3 1627   3.453   0.412   0.544
    1TCM     c1 1628   0.664   1.400   2.001
    1TCM    cl1 1629   0.526   1.506   1.962
    1TCM    cl2 1630   0.604   1.240   2.050
    1TCM     h1 1631   0.729   1.389   1.912
    1TCM    cl3 1632   0.757   1.472   2.135
    1TCM     c1 1633   2.784   3.814   1.376
    1TCM    cl1 1634   2.760   3.824   1.200
    1TCM    cl2 1635   2.638   3.875   1.458
    1TCM     h1 1636   2.802   3.709   1.405
    1TCM    cl3 1637   2.924   3.913   1.422
    1TCM     c1 1638   2.416   2.572   4.424
    1TCM    cl1 1639   2.513   2.511   4.289
    1TCM    cl2 1640   2.453   2.478   4.571
    1TCM     h1 1641   2.441   2.679   4.442
    1TCM    cl3 1642   2.243   2.557   4.385
    1TCM     c1 1643   0.602   2.322   0.847
    1TCM    cl1 1644   0.728   2.432   0.789
    1TCM    cl2 1645   0.456   2.340   0.747
    1TCM     h1 1646   0.638   2.217   0.841
    1TCM    cl3 1647   0.563   2.361   1.016
    1TCM     c1 1648   2.613   0.441   1.637
    1TCM    cl1 1649   2.752   0.336   1.600
    1TCM    cl2 1650   2.554   0.405   1.800
    1TCM     h1 1651   2.645   0.547   1.632
    1TCM    cl3 1652   2.484   0.412   1.519
    1TCM     c1 1653   2.481   3.638   0.165
    1TCM    cl1 1654   2.428   3.599   0.000
    1TCM    cl2 1655   2.406   3.523   0.280
    1TCM     h1 1656   2.592   3.629   0.172
    1TCM    cl3 1657   2.431   3.803   0.206
    1TCM     c1 1658   0.151   3.439   4.970
    1TCM    cl1 1659   0.257   3.305   5.018
    1TCM    cl2 1660   0.143   3.448   4.792
    1TCM     h1 1661   0.049   3.423   5.011
    1TCM    cl3 1662   0.216   3.592   5.034
    1TCM     c1 1663   3.874   1.923   1.782
    1TCM    cl1 1664   3.830   1.867   1.946
    1TCM    cl2 1665   3.942   2.087   1.793
    1TCM     h1 1666   3.949   1.855   1.738
    1TCM    cl3 1667   3.728   1.926   1.680
    1TCM     c1 1668   2.237   2.808   2.755
    1TCM    cl1 1669   2.120   2.941   2.739
    1TCM    cl2 1670   2.279   2.746   2.593
    1TCM     h1 1671   2.329   2.845   2.805
    1TCM    cl3 1672   2.165   2.678   2.852
    1TCM     c1 1673   4.498   2.821   0.729
    1TCM    cl1 1674   4.389   2.705   0.649
    1TCM    cl2 1675   4.507   2.784   0.902
    1TCM     h1 1676   4.599   2.813   0.684
    1TCM    cl3 1677   4.435   2.986   0.707
    1TCM     c1 1678   5.123   4.284   1.796
    1TCM    cl1 1679   4.981   4.178   1.793
    1TCM    cl2 1680   5.134   4.375   1.643
    1TCM     h1 1681   5.114   4.355   1.881
    1TCM    cl3 1682   5.270   4.186   1.817
    1TCM     c1 1683   3.272   1.776   3.774
    1TCM    cl1 1684   3.271   1.608   3.714
    1TCM    cl2 1685   3.407   1.797   3.888
    1TCM     h1 1686   3.284   1.845   3.688
    1TCM    cl3 1687   3.119   1.810   3.857
    1TCM     c1 1688   0.934   3.787   2.391
    1TCM    cl1 1689   0.975   3.733   2.227
    1TCM    cl2 1690   0.983   3.663   2.509
    1TCM     h1 1691   0.988   3.882   2.413
    1TCM    cl3 1692   0.759   3.814   2.403
    1TCM     c1 1693   3.031   4.171   2.312
    1TCM    cl1 1694   3.010   4.105   2.149
    1TCM    cl2 1695   3.120   4.054   2.412
    1TCM     h1 1696   3.089   4.266   2.307
    1TCM    cl3 1697   2.872   4.202   2.385
    1TCM     c1 1698   1.322   3.066   2.333
    1TCM    cl1 1699   1.476   3.155   2.340
    1TCM    cl2 1700   1.226   3.104   2.479
    1TCM     h1 1701   1.266   3.097   2.243
    1TCM    cl3 1702   1.354   2.892   2.327
    1TCM     c1 1703   4.599   0.155   5.160
    1TCM    cl1 1704   4.694   0.273   5.066
    1TCM    cl2 1705   4.517   0.238   5.294
    1TCM     h1 1706   4.523   0.108   5.094
    1TCM    cl3 1707   4.707   0.030   5.225
    1TCM     c1 1708   4.154   4.920   2.377
    1TCM    cl1 1709   3.999   4.903   2.463
    1TCM    cl2 1710   4.123   4.970   2.209
    1TCM     h1 1711   4.216   4.997   2.427
    1TCM    cl3 1712   4.239   4.764   2.377
    1TCM     c1 1713   1.430   5.022   3.124
    1TCM    cl1 1714   1.305   5.142   3.166
    1TCM    cl2 1715   1.569   5.042   3.233
    1TCM     h1 1716   1.388   4.920   3.135
    1TCM    cl3 1717   1.482   5.047   2.956
    1TCM     c1 1718   3.397   5.013   3.750
    1TCM    cl1 1719   3.416   5.188   3.777
    1TCM    cl2 1720   3.468   4.924   3.887
    1TCM     h1 1721   3.289   4.989   3.743
    1TCM    cl3 1722   3.479   4.967   3.600
    1TCM     c1 1723   3.634   2.203   4.862
    1TCM    cl1 1724   3.797   2.166   4.801
    1TCM    cl2 1725   3.645   2.264   5.029
    1TCM     h1 1726   3.586   2.279   4.798
    1TCM    cl3 1727   3.535   2.054   4.860
    1TCM     c1 1728   4.860   4.218   2.575
    1TCM    cl1 1729   4.799   4.385   2.562
    1TCM    cl2 1730   4.783   4.117   2.451
    1TCM     h1 1731   4.970   4.218   2.559
    1TCM    cl3 1732   4.823   4.153   2.736
    1TCM     c1 1733   5.015   3.147   2.464
    1TCM    cl1 1734   5.184   3.092   2.452
    1TCM    cl2 1735   4.991   3.234   2.616
    1TCM     h1 1736   4.992   3.214   2.378
    1TCM    cl3 1737   4.907   3.006   2.458
    1TCM     c1 1738   1.446   2.380   0.928
    1TCM    cl1 1739   1.529   2.424   1.079
    1TCM    cl2 1740   1.558   2.290   0.823
    1TCM     h1 1741   1.358   2.317   0.951
    1TCM    cl3 1742   1.393   2.528   0.845
    1TCM     c1 1743   1.106   1.979   4.049
    1TCM    cl1 1744   1.202   1.835   4.089
    1TCM    cl2 1745   1.210   2.100   3.972
    1TCM     h1 1746   1.024   1.950   3.980
    1TCM    cl3 1747   1.036   2.046   4.198
    1TCM     c1 1748   4.130   3.588   1.302
    1TCM    cl1 1749   4.080   3.755   1.335
    1TCM    cl2 1750   4.022   3.516   1.180
    1TCM     h1 1751   4.234   3.587   1.264
    1TCM    cl3 1752   4.120   3.493   1.452
    1TCM     c1 1753   0.262   5.170   2.131
    1TCM    cl1 1754   0.313   5.015   2.061
    1TCM    cl2 1755   0.310   5.177   2.302
    1TCM     h1 1756   0.311   5.253   2.075
    1TCM    cl3 1757   0.085   5.186   2.118
    1TCM     c1 1758   1.320   2.546   1.754
    1TCM    cl1 1759   1.438   2.526   1.622
    1TCM    cl2 1760   1.406   2.547   1.910
    1TCM     h1 1761   1.266   2.641   1.741
    1TCM    cl3 1762   1.205   2.411   1.750
    1TCM     c1 1763   0.889   2.385   4.129
    1TCM    cl1 1764   0.935   2.552   4.089
    1TCM    cl2 1765   1.032   2.297   4.187
    1TCM     h1 1766   0.812   2.386   4.208
    1TCM    cl3 1767   0.825   2.304   3.984
    1TCM     c1 1768   1.107   0.888   5.165
    1TCM    cl1 1769   0.933   0.920   5.142
    1TCM    cl2 1770   1.146   0.896   5.338
    1TCM     h1 1771   1.131   0.787   5.125
    1TCM    cl3 1772   1.202   1.010   5.077
    1TCM     c1 1773   3.698   2.960   1.029
    1TCM    cl1 1774   3.551   2.981   1.126
    1TCM    cl2 1775   3.700   3.080   0.898
    1TCM     h1 1776   3.787   2.974   1.093
    1TCM    cl3 1777   3.701   2.796   0.959
    1TCM     c1 1778   3.689   4.991   3.026
    1TCM    cl1 1779   3.598   5.140   3.061
    1TCM    cl2 1780   3.755   4.999   2.861
    1TCM     h1 1781   3.772   4.980   3.099
    1TCM    cl3 1782   3.580   4.851   3.039
    1TCM     c1 1783   4.621   3.194   5.179
    1TCM    cl1 1784   4.510   3.296   5.085
    1TCM    cl2 1785   4.552   3.163   5.340
    1TCM     h1 1786   4.636   3.097   5.126
    1TCM    cl3 1787   4.778   3.276   5.196
    1TCM     c1 1788   4.464   2.818   2.968
    1TCM    cl1 1789   4.370   2.864   2.824
    1TCM    cl2 1790   4.355   2.756   3.093
    1TCM     h1 1791   4.537   2.740   2.940
    1TCM    cl3 1792   4.551   2.961   3.030
    1TCM     c1 1793   2.319   4.446   3.611
    1TCM    cl1 1794   2.454   4.334   3.580
    1TCM    cl2 1795   2.382   4.597   3.680
    1TCM     h1 1796   2.267   4.468   3.516
    1TCM    cl3 1797   2.205   4.371   3.725
    1TCM     c1 1798   3.647   2.261   0.924
    1TCM    cl1 1799   3.581   2.213   1.082
    1TCM    cl2 1800   3.513   2.301   0.813
    1TCM     h1 1801   3.712   2.350   0.937
    1TCM    cl3 1802   3.742   2.127   0.856
    1TCM     c1 1803   2.407   2.071   2.653
    1TCM    cl1 1804   2.508   2.174   2.757
    1TCM    cl2 1805   2.462   2.085   2.484
    1TCM     h1 1806   2.416   1.965   2.686
    1TCM    cl3 1807   2.238   2.122   2.665
    1TCM     c1 1808   2.918   2.898   3.461
    1TCM    cl1 1809   2.942   3.068   3.417
    1TCM    cl2 1810   2.743   2.863   3.470
    1TCM     h1 1811   2.964   2.832   3.384
    1TCM    cl3 1812   2.992   2.866   3.619
    1TCM     c1 1813   5.041   1.893   1.663
    1TCM    cl1 1814   4.922   1.906   1.532
    1TCM    cl2 1815   5.003   1.753   1.764
    1TCM     h1 1816   5.142   1.881   1.619
    1TCM    cl3 1817   5.037   2.041   1.762
    1TCM     c1 1818   1.654   1.364   3.584
    1TCM    cl1 1819   1.543   1.263   3.680
    1TCM    cl2 1820   1.816   1.358   3.655
    1TCM     h1 1821   1.658   1.326   3.480
    1TCM    cl3 1822   1.596   1.532   3.583
    1TCM     c1 1823   3.432   4.198   2.243
    1TCM    cl1 1824   3.405   4.133   2.406
    1TCM    cl2 1825   3.310   4.322   2.207
    1TCM     h1 1826   3.533   4.244   2.237
    1TCM    cl3 1827   3.420   4.067   2.123
    1TCM     c1 1828   2.063   3.570   0.471
    1TCM    cl1 1829   2.213   3.569   0.375
    1TCM    cl2 1830   2.033   3.734   0.533
    1TCM     h1 1831   1.978   3.539   0.407
    1TCM    cl3 1832   2.079   3.457   0.608
    1TCM     c1 1833   4.605   2.138   3.265
    1TCM    cl1 1834   4.754   2.154   3.169
    1TCM    cl2 1835   4.464   2.136   3.155
    1TCM     h1 1836   4.608   2.043   3.322
    1TCM    cl3 1837   4.590   2.275   3.377
    1TCM     c1 1838   2.367   3.877   1.418
    1TCM    cl1 1839   2.433   3.803   1.566
    1TCM    cl2 1840   2.368   3.758   1.286
    1TCM     h1 1841   2.263   3.910   1.437
    1TCM    cl3 1842   2.466   4.017   1.373
    1TCM     c1 1843   1.050   4.900   4.753
    1TCM    cl1 1844   1.213   4.961   4.786
    1TCM    cl2 1845   0.942   4.945   4.886
    1TCM     h1 1846   1.012   4.944   4.658
    1TCM    cl3 1847   1.055   4.723   4.737
    1TCM     c1 1848   3.658   3.231   3.671
    1TCM    cl1 1849   3.606   3.125   3.804
    1TCM    cl2 1850   3.670   3.137   3.521
    1TCM     h1 1851   3.584   3.313   3.658
    1TCM    cl3 1852   3.817   3.301   3.710
    1TCM     c1 1853   3.757   3.875   1.242
    1TCM    cl1 1854   3.866   3.836   1.107
    1TCM    cl2 1855   3.852   3.931   1.381
    1TCM     h1 1856   3.686   3.954   1.211
    1TCM    cl3 1857   3.666   3.729   1.288
    1TCM     c1 1858   2.509   1.287   3.870
    1TCM    cl1 1859   2.366   1.289   3.976
    1TCM    cl2 1860   2.461   1.332   3.705
    1TCM     h1 1861   2.585   1.359   3.908
    1TCM    cl3 1862   2.579   1.123   3.869
    1TCM     c1 1863   2.175   3.651   4.844
    1TCM    cl1 1864   2.102   3.497   4.894
    1TCM    cl2 1865   2.314   3.688   4.949
    1TCM     h1 1866   2.210   3.644   4.739
    1TCM    cl3 1867   2.055   3.782   4.857
    1TCM     c1 1868   4.327   3.837   3.206
    1TCM    cl1 1869   4.443   3.964   3.162
    1TCM    cl2 1870   4.218   3.897   3.334
    1TCM     h1 1871   4.267   3.809   3.117
    1TCM    cl3 1872   4.415   3.694   3.265
    1TCM     c1 1873   2.482   5.225   4.722
    1TCM    cl1 1874   2.657   5.222   4.754
    1TCM    cl2 1875   2.453   5.274   4.554
    1TCM     h1 1876   2.440   5.123   4.738
    1TCM    cl3 1877   2.403   5.340   4.832
    1TCM     c1 1878   3.075   1.577   5.020
    1TCM    cl1 1879   3.068   1.449   4.897
    1TCM    cl2 1880   2.933   1.684   5.003
    1TCM     h1 1881   3.075   1.532   5.121
    1TCM    cl3 1882   3.223   1.673   4.997
    1TCM     c1 1883   0.646   0.648   4.128
    1TCM    cl1 1884   0.556   0.565   4.256
    1TCM    cl2 1885   0.594   0.586   3.969
    1TCM     h1 1886   0.628   0.757   4.133
    1TCM    cl3 1887   0.820   0.616   4.148
    1TCM     c1 1888   3.528   0.953   2.013
    1TCM    cl1 1889   3.667   0.922   1.906
    1TCM    cl2 1890   3.578   0.933   2.182
    1TCM     h1 1891   3.491   1.056   1.997
    1TCM    cl3 1892   3.398   0.837   1.975
    1TCM     c1 1893   2.832   0.084   2.587
    1TCM    cl1 1894   3.007   0.117   2.582
    1TCM    cl2 1895   2.781   0.013   2.432
    1TCM     h1 1896   2.810   0.014   2.670
    1TCM    cl3 1897   2.744   0.237   2.614
    1TCM     c1 1898   2.691   4.548   2.486
    1TCM    cl1 1899   2.755   4.520   2.649
    1TCM    cl2 1900   2.640   4.394   2.415
    1TCM     h1 1901   2.604   4.617   2.492
    1TCM    cl3 1902   2.818   4.621   2.385
    1TCM     c1 1903   0.840   1.040   2.205
    1TCM    cl1 1904   1.017   1.041   2.203
    1TCM    cl2 1905   0.779   0.966   2.055
    1TCM     h1 1906   0.804   0.982   2.293
    1TCM    cl3 1907   0.780   1.207   2.217
    1TCM     c1 1908   2.374   4.397   3.126
    1TCM    cl1 1909   2.199   4.376   3.149
    1TCM    cl2 1910   2.403   4.482   2.972
    1TCM     h1 1911   2.416   4.457   3.209
    1TCM    cl3 1912   2.453   4.238   3.121
    1TCM     c1 1913   4.247   1.858   4.757
    1TCM    cl1 1914   4.367   1.790   4.645
    1TCM    cl2 1915   4.084   1.804   4.710
    1TCM     h1 1916   4.269   1.823   4.860
    1TCM    cl3 1917   4.255   2.036   4.752
    1TCM     c1 1918   0.291   0.506   0.292
    1TCM    cl1 1919   0.307   0.656   0.386
    1TCM    cl2 1920   0.453   0.442   0.257
    1TCM     h1 1921   0.234   0.431   0.352
    1TCM    cl3 1922   0.206   0.539   0.140
    1TCM     c1 1923   3.908   3.854   5.188
    1TCM    cl1 1924   3.973   3.762   5.050
    1TCM    cl2 1925   3.956   3.776   5.340
    1TCM     h1 1926   3.947   3.958   5.185
    1TCM    cl3 1927   3.730   3.858   5.177
    1TCM     c1 1928   1.976   2.427   2.783
    1TCM    cl1 1929   1.893   2.366   2.638
    1TCM    cl2 1930   1.957   2.603   2.793
    1TCM     h1 1931   1.931   2.380   2.873
    1TCM    cl3 1932   2.149   2.386   2.775
    1TCM     c1 1933   2.125   4.140   1.637
    1TCM    cl1 1934   2.091   4.219   1.481
    1TCM    cl2 1935   2.148   4.264   1.763
    1TCM     h1 1936   2.039   4.075   1.664
    1TCM    cl3 1937   2.272   4.042   1.623
    1TCM     c1 1938   4.091   3.627   1.886
    1TCM    cl1 1939   4.250   3.579   1.824
    1TCM    cl2 1940   4.106   3.778   1.978
    1TCM     h1 1941   4.021   3.642   1.802
    1TCM    cl3 1942   4.028   3.499   1.993
    1TCM     c1 1943   2.580   4.601   0.605
    1TCM    cl1 1944   2.475   4.550   0.739
    1TCM    cl2 1945   2.751   4.582   0.653
    1TCM     h1 1946   2.560   4.538   0.516
    1TCM    cl3 1947   2.549   4.771   0.565
    1TCM     c1 1948   2.782   2.371   4.753
    1TCM    cl1 1949   2.817   2.224   4.659
    1TCM    cl2 1950   2.780   2.511   4.644
    1TCM     h1 1951   2.682   2.360   4.801
    1TCM    cl3 1952   2.906   2.393   4.878
    1TCM     c1 1953   1.557   3.354   2.679
    1TCM    cl1 1954   1.567   3.212   2.572
    1TCM    cl2 1955   1.599   3.306   2.845
    1TCM     h1 1956   1.629   3.431   2.644
    1TCM    cl3 1957   1.392   3.420   2.676
    1TCM     c1 1958   0.678   4.228   4.940
    1TCM    cl1 1959   0.749   4.252   5.102
    1TCM    cl2 1960   0.756   4.089   4.862
    1TCM     h1 1961   0.569   4.209   4.950
    1TCM    cl3 1962   0.704   4.374   4.842
    1TCM     c1 1963   0.229   2.451   1.812
    1TCM    cl1 1964   0.088   2.472   1.917
    1TCM    cl2 1965   0.243   2.592   1.703
    1TCM     h1 1966   0.321   2.443   1.874
    1TCM    cl3 1967   0.210   2.303   1.715
    1TCM     c1 1968   4.490   0.946   4.185
    1TCM    cl1 1969   4.344   1.048   4.180
    1TCM    cl2 1970   4.451   0.791   4.262
    1TCM     h1 1971   4.526   0.928   4.082
    1TCM    cl3 1972   4.617   1.029   4.278
    1TCM     c1 1973   3.994   1.128   0.467
    1TCM    cl1 1974   3.986   0.979   0.370
    1TCM    cl2 1975   4.015   1.086   0.639
    1TCM     h1 1976   4.080   1.189   0.433
    1TCM    cl3 1977   3.844   1.220   0.446
    1TCM     c1 1978   1.950   1.727   3.966
    1TCM    cl1 1979   1.977   1.871   4.067
    1TCM    cl2 1980   2.037   1.745   3.812
    1TCM     h1 1981   1.987   1.637   4.019
    1TCM    cl3 1982   1.776   1.709   3.934
    1TCM     c1 1983   0.290   1.879   2.006
    1TCM    cl1 1984   0.150   1.903   1.899
    1TCM    cl2 1985   0.430   1.968   1.941
    1TCM     h1 1986   0.266   1.917   2.108
    1TCM    cl3 1987   0.329   1.706   2.015
    1TCM     c1 1988   1.639   0.522   3.483
    1TCM    cl1 1989   1.707   0.479   3.324
    1TCM    cl2 1990   1.601   0.696   3.485
    1TCM     h1 1991   1.546   0.464   3.500
    1TCM    cl3 1992   1.758   0.486   3.610
    1TCM     c1 1993   2.299   4.231   1.165
    1TCM    cl1 1994   2.344   4.241   0.993
    1TCM    cl2 1995   2.259   4.063   1.206
    1TCM     h1 1996   2.384   4.266   1.227
    1TCM    cl3 1997   2.157   4.335   1.194
    1TCM     c1 1998   3.477   1.776   4.386
    1TCM    cl1 1999   3.333   1.733   4.480
    1TCM    cl2 2000   3.428   1.824   4.222
    1TCM     h1 2001   3.529   1.861   4.435
    1TCM    cl3 2002   3.586   1.636   4.377
    1TCM     c1 2003   2.242   3.779   4.154
    1TCM    cl1 2004   2.230   3.608   4.105
    1TCM    cl2 2005   2.284   3.788   4.326
    1TCM     h1 2006   2.321   3.829   4.094
    1TCM    cl3 2007   2.086   3.859   4.126
    1TCM     c1 2008   3.180   0.984   4.950
    1TCM    cl1 2009   3.145   0.858   4.830
    1TCM    cl2 2010   3.129   0.928   5.111
    1TCM     h1 2011   3.289   1.005   4.951
    1TCM    cl3 2012   3.091   1.132   4.908
    1TCM     c1 2013   3.144   2.830   2.464
    1TCM    cl1 2014   3.237   2.926   2.580
    1TCM    cl2 2015   3.126   2.920   2.312
    1TCM     h1 2016   3.196   2.734   2.444
    1TCM    cl3 2017   2.982   2.796   2.531
    1TCM     c1 2018   4.734   4.213   0.896
    1TCM    cl1 2019   4.754   4.270   0.729
    1TCM    cl2 2020   4.697   4.351   1.002
    1TCM     h1 2021   4.651   4.140   0.901
    1TCM    cl3 2022   4.885   4.136   0.951
    1TCM     c1 2023   2.130   2.855   4.421
    1TCM    cl1 2024   2.057   3.004   4.357
    1TCM    cl2 2025   2.278   2.894   4.510
    1TCM     h1 2026   2.058   2.804   4.488
    1TCM    cl3 2027   2.170   2.746   4.285
    1TCM     c1 2028   2.625   4.121   4.458
    1TCM    cl1 2029   2.754   4.210   4.374
    1TCM    cl2 2030   2.667   4.105   4.630
    1TCM     h1 2031   2.530   4.177   4.448
    1TCM    cl3 2032   2.608   3.960   4.385
    1TCM     c1 2033   4.426   5.185   2.674
    1TCM    cl1 2034   4.574   5.269   2.622
    1TCM    cl2 2035   4.364   5.262   2.822
    1TCM     h1 2036   4.349   5.192   2.594
    1TCM    cl3 2037   4.463   5.015   2.707
    1TCM     c1 2038   1.877   3.694   2.064
    1TCM    cl1 2039   1.856   3.602   1.913
    1TCM    cl2 2040   2.050   3.732   2.086
    1TCM     h1 2041   1.819   3.788   2.058
    1TCM    cl3 2042   1.820   3.597   2.201
    1TCM     c1 2043   3.497   0.774   1.042
    1TCM    cl1 2044   3.490   0.761   1.219
    1TCM    cl2 2045   3.360   0.687   0.970
    1TCM     h1 2046   3.493   0.880   1.012
    1TCM    cl3 2047   3.649   0.702   0.984
    1TCM     c1 2048   0.294   3.748   2.997
    1TCM    cl1 2049   0.136   3.673   2.963
    1TCM    cl2 2050   0.395   3.634   3.088
    1TCM     h1 2051   0.344   3.774   2.901
    1TCM    cl3 2052   0.270   3.896   3.093
    1TCM     c1 2053   2.936   2.704   4.821
    1TCM    cl1 2054   2.955   2.695   4.997
    1TCM    cl2 2055   2.763   2.707   4.780
    1TCM     h1 2056   2.985   2.796   4.783
    1TCM    cl3 2057   3.012   2.562   4.746
    1TCM     c1 2058   2.280   0.657   0.695
    1TCM    cl1 2059   2.299   0.797   0.804
    1TCM    cl2 2060   2.324   0.704   0.530
    1TCM     h1 2061   2.345   0.574   0.729
    1TCM    cl3 2062   2.110   0.603   0.698
    1TCM     c1 2063   2.910   0.313   2.228
    1TCM    cl1 2064   2.989   0.249   2.083
    1TCM    cl2 2065   2.922   0.195   2.360
    1TCM     h1 2066   2.960   0.408   2.259
    1TCM    cl3 2067   2.739   0.346   2.193
    1TCM     c1 2068   1.783   3.539   4.680
    1TCM    cl1 2069   1.776   3.518   4.503
    1TCM    cl2 2070   1.665   3.431   4.757
    1TCM     h1 2071   1.885   3.515   4.716
    1TCM    cl3 2072   1.745   3.708   4.721
    1TCM     c1 2073   0.815   2.844   0.700
    1TCM    cl1 2074   0.957   2.927   0.769
    1TCM    cl2 2075   0.669   2.891   0.790
    1TCM     h1 2076   0.804   2.873   0.594
    1TCM    cl3 2077   0.839   2.668   0.711
    1TCM     c1 2078   2.922   0.200   3.314
    1TCM    cl1 2079   3.075   0.268   3.378
    1TCM    cl2 2080   2.921   0.024   3.339
    1TCM     h1 2081   2.837   0.246   3.368
    1TCM    cl3 2082   2.910   0.236   3.141
    1TCM     c1 2083   2.102   3.015   1.116
    1TCM    cl1 2084   2.236   2.902   1.082
    1TCM    cl2 2085   2.165   3.157   1.204
    1TCM     h1 2086   2.057   3.048   1.020
    1TCM    cl3 2087   1.979   2.934   1.214
    1TCM     c1 2088   3.124   5.167   4.043
    1TCM    cl1 2089   2.987   5.228   4.139
    1TCM    cl2 2090   3.080   5.012   3.968
    1TCM     h1 2091   3.150   5.241   3.965
    1TCM    cl3 2092   3.264   5.143   4.150
    1TCM     c1 2093   0.271   0.414   4.167
    1TCM    cl1 2094   0.313   0.421   4.340
    1TCM    cl2 2095   0.101   0.366   4.149
    1TCM     h1 2096   0.287   0.514   4.122
    1TCM    cl3 2097   0.375   0.295   4.086
    1TCM     c1 2098   2.445   2.655   3.959
    1TCM    cl1 2099   2.570   2.617   4.080
    1TCM    cl2 2100   2.515   2.644   3.796
    1TCM     h1 2101   2.361   2.583   3.968
    1TCM    cl3 2102   2.385   2.820   3.986
    1TCM     c1 2103   0.772   1.356   0.259
    1TCM    cl1 2104   0.710   1.370   0.093
    1TCM    cl2 2105   0.947   1.392   0.260
    1TCM     h1 2106   0.720   1.428   0.325
    1TCM    cl3 2107   0.746   1.191   0.319
    1TCM     c1 2108   4.675   2.991   1.931
    1TCM    cl1 2109   4.647   2.816   1.921
    1TCM    cl2 2110   4.716   3.035   2.099
    1TCM     h1 2111   4.759   3.020   1.865
    1TCM    cl3 2112   4.528   3.078   1.882
    1TCM     c1 2113   3.115   3.234   0.594
    1TCM    cl1 2114   3.009   3.352   0.516
    1TCM    cl2 2115   3.123   3.267   0.769
    1TCM     h1 2116   3.075   3.132   0.578
    1TCM    cl3 2117   3.278   3.245   0.524
    1TCM     c1 2118   2.594   4.876   1.562
    1TCM    cl1 2119   2.440   4.926   1.635
    1TCM    cl2 2120   2.563   4.785   1.412
    1TCM     h1 2121   2.655   4.965   1.539
    1TCM    cl3 2122   2.683   4.772   1.676
    1TCM     c1 2123   2.676   4.035   4.919
    1TCM    cl1 2124   2.666   3.890   4.815
    1TCM    cl2 2125   2.713   3.985   5.085
    1TCM     h1 2126   2.757   4.101   4.881
    1TCM    cl3 2127   2.521   4.121   4.916
    1TCM     c1 2128   3.994   3.979   2.777
    1TCM    cl1 2129   4.017   4.153   2.804
    1TCM    cl2 2130   4.092   3.887   2.893
    1TCM     h1 2131   3.886   3.953   2.791
    1TCM    cl3 2132   4.043   3.937   2.611
    1TCM     c1 2133   2.396   1.507   2.444
    1TCM    cl1 2134   2.484   1.515   2.598
    1TCM    cl2 2135   2.489   1.589   2.317
    1TCM     h1 2136   2.381   1.400   2.415
    1TCM    cl3 2137   2.237   1.585   2.462
    1TCM     c1 2138   4.926   2.368   0.664
    1TCM    cl1 2139   4.845   2.294   0.525
    1TCM    cl2 2140   4.805   2.438   0.774
    1TCM     h1 2141   4.985   2.291   0.718
    1TCM    cl3 2142   5.036   2.496   0.607
    1TCM     c1 2143   4.228   0.555   3.194
    1TCM    cl1 2144   4.195   0.660   3.333
    1TCM    cl2 2145   4.237   0.652   3.046
    1TCM     h1 2146   4.325   0.502   3.210
    1TCM    cl3 2147   4.098   0.435   3.179
    1TCM     c1 2148   4.843   2.271   0.193
    1TCM    cl1 2149   4.907   2.109   0.161
    1TCM    cl2 2150   4.677   2.283   0.132
    1TCM     h1 2151   4.844   2.290   0.302
    1TCM    cl3 2152   4.945   2.392   0.111
    1TCM     c1 2153   3.382   1.235   1.084
    1TCM    cl1 2154   3.205   1.247   1.077
    1TCM    cl2 2155   3.452   1.398   1.102
    1TCM     h1 2156   3.412   1.172   1.170
    1TCM    cl3 2157   3.442   1.161   0.934
    1TCM     c1 2158   2.775   4.497   4.709
    1TCM    cl1 2159   2.651   4.620   4.742
    1TCM    cl2 2160   2.696   4.340   4.682
    1TCM     h1 2161   2.833   4.525   4.619
    1TCM    cl3 2162   2.885   4.484   4.849
    1TCM     c1 2163   1.532   5.271   0.607
    1TCM    cl1 2164   1.704   5.289   0.648
    1TCM    cl2 2165   1.489   5.098   0.606
    1TCM     h1 2166   1.470   5.324   0.682
    1TCM    cl3 2167   1.502   5.340   0.445
    1TCM     c1 2168   1.418   3.323   4.483
    1TCM    cl1 2169   1.423   3.403   4.641
    1TCM    cl2 2170   1.269   3.226   4.470
    1TCM     h1 2171   1.419   3.399   4.403
    1TCM    cl3 2172   1.559   3.217   4.466
    1TCM     c1 2173   1.218   2.379   2.379
    1TCM    cl1 2174   1.134   2.404   2.533
    1TCM    cl2 2175   1.279   2.212   2.371
    1TCM     h1 2176   1.148   2.396   2.295
    1TCM    cl3 2177   1.355   2.492   2.367
    1TCM     c1 2178   1.424   1.375   0.592
    1TCM    cl1 2179   1.311   1.496   0.527
    1TCM    cl2 2180   1.482   1.271   0.461
    1TCM     h1 2181   1.510   1.428   0.639
    1TCM    cl3 2182   1.341   1.276   0.715
    1TCM     c1 2183   0.346   5.179   3.253
    1TCM    cl1 2184   0.438   5.228   3.396
    1TCM    cl2 2185   0.416   5.254   3.108
    1TCM     h1 2186   0.349   5.069   3.243
    1TCM    cl3 2187   0.177   5.232   3.270
    1TCM     c1 2188   2.791   3.951   0.342
    1TCM    cl1 2189   2.825   4.124   0.362
    1TCM    cl2 2190   2.885   3.888   0.205
    1TCM     h1 2191   2.820   3.897   0.435
    1TCM    cl3 2192   2.617   3.927   0.312
    1TCM     c1 2193   5.053   1.848   0.897
    1TCM    cl1 2194   5.132   1.975   0.993
    1TCM    cl2 2195   5.173   1.773   0.789
    1TCM     h1 2196   5.011   1.771   0.965
    1TCM    cl3 2197   4.923   1.920   0.799
    1TCM     c1 2198   3.286   4.752   4.123
    1TCM    cl1 2199   3.221   4.779   3.960
    1TCM    cl2 2200   3.455   4.700   4.112
    1TCM     h1 2201   3.280   4.847   4.181
    1TCM    cl3 2202   3.191   4.626   4.205
    1TCM     c1 2203   0.449   3.268   3.418
    1TCM    cl1 2204   0.339   3.198   3.297
    1TCM    cl2 2205   0.443   3.445   3.408
    1TCM     h1 2206   0.417   3.236   3.520
    1TCM    cl3 2207   0.614   3.212   3.387
    1TCM     c1 2208   2.883   0.555   1.978
    1TCM    cl1 2209   2.937   0.717   2.030
    1TCM    cl2 2210   3.018   0.470   1.900
    1TCM     h1 2211   2.848   0.498   2.066
    1TCM    cl3 2212   2.749   0.572   1.862
    1TCM     c1 2213   4.851   4.999   4.344
    1TCM    cl1 2214   4.849   5.098   4.197
    1TCM    cl2 2215   4.724   4.874   4.333
    1TCM     h1 2216   4.950   4.950   4.355
    1TCM    cl3 2217   4.820   5.102   4.486
    1TCM     c1 2218   4.069   0.999   2.046
    1TCM    cl1 2219   4.005   0.878   2.159
    1TCM    cl2 2220   3.968   1.002   1.900
    1TCM     h1 2221   4.068   1.099   2.094
    1TCM    cl3 2222   4.236   0.955   2.001
    1TCM     c1 2223   2.323   4.798   2.434
    1TCM    cl1 2224   2.363   4.889   2.582
    1TCM    cl2 2225   2.235   4.649   2.478
    1TCM     h1 2226   2.260   4.860   2.368
    1TCM    cl3 2227   2.473   4.755   2.349
    1TCM     c1 2228   2.283   2.620   0.902
    1TCM    cl1 2229   2.168   2.645   1.036
    1TCM    cl2 2230   2.193   2.571   0.756
    1TCM     h1 2231   2.338   2.714   0.882
    1TCM    cl3 2232   2.398   2.491   0.946
    1TCM     c1 2233   2.243   4.751   0.433
    1TCM    cl1 2234   2.257   4.727   0.608
    1TCM    cl2 2235   2.196   4.920   0.400
    1TCM     h1 2236   2.341   4.730   0.384
    1TCM    cl3 2237   2.120   4.641   0.368
    1TCM     c1 2238   3.663   1.216   2.306
    1TCM    cl1 2239   3.818   1.147   2.253
    1TCM    cl2 2240   3.633   1.172   2.476
    1TCM     h1 2241   3.667   1.327   2.297
    1TCM    cl3 2242   3.532   1.153   2.205
    1TCM     c1 2243   3.741   4.057   0.838
    1TCM    cl1 2244   3.746   3.909   0.740
    1TCM    cl2 2245   3.760   4.016   1.010
    1TCM     h1 2246   3.824   4.125   0.807
    1TCM    cl3 2247   3.585   4.140   0.813
    1TCM     c1 2248   1.738   4.224   2.164
    1TCM    cl1 2249   1.743   4.082   2.057
    1TCM    cl2 2250   1.685   4.366   2.071
    1TCM     h1 2251   1.666   4.206   2.246
    1TCM    cl3 2252   1.899   4.255   2.231
    1TCM     c1 2253   4.963   2.765   3.008
    1TCM    cl1 2254   5.132   2.733   2.965
    1TCM    cl2 2255   4.861   2.629   2.957
    1TCM     h1 2256   4.954   2.779   3.118
    1TCM    cl3 2257   4.908   2.914   2.926
    1TCM     c1 2258   1.613   1.262   2.220
    1TCM    cl1 2259   1.585   1.348   2.067
    1TCM    cl2 2260   1.529   1.105   2.217
    1TCM     h1 2261   1.722   1.245   2.234
    1TCM    cl3 2262   1.551   1.360   2.355
    1TCM     c1 2263   1.003   4.359   0.290
    1TCM    cl1 2264   1.106   4.483   0.215
    1TCM    cl2 2265   0.878   4.439   0.390
    1TCM     h1 2266   0.954   4.299   0.212
    1TCM    cl3 2267   1.102   4.254   0.394
    1TCM     c1 2268   3.215   2.713   0.824
    1TCM    cl1 2269   3.277   2.608   0.694
    1TCM    cl2 2270   3.304   2.681   0.974
    1TCM     h1 2271   3.228   2.819   0.795
    1TCM    cl3 2272   3.042   2.680   0.850
    1TCM     c1 2273   0.615   1.968   2.552
    1TCM    cl1 2274   0.714   2.104   2.610
    1TCM    cl2 2275   0.450   2.024   2.520
    1TCM     h1 2276   0.660   1.927   2.459
    1TCM    cl3 2277   0.611   1.840   2.676
    1TCM     c1 2278   2.627   0.788   4.992
    1TCM    cl1 2279   2.681   0.713   4.840
    1TCM    cl2 2280   2.694   0.697   5.130
    1TCM     h1 2281   2.663   0.893   4.996
    1TCM    cl3 2282   2.450   0.786   5.000
    1TCM     c1 2283   0.394   4.301   4.200
    1TCM    cl1 2284   0.474   4.402   4.322
    1TCM    cl2 2285   0.289   4.183   4.280
    1TCM     h1 2286   0.334   4.365   4.133
    1TCM    cl3 2287   0.518   4.215   4.104
    1TCM     c1 2288   5.035   4.037   1.514
    1TCM    cl1 2289   4.936   4.001   1.657
    1TCM    cl2 2290   5.199   4.084   1.566
    1TCM     h1 2291   5.042   3.947   1.450
    1TCM    cl3 2292   4.962   4.171   1.423
    1TCM     c1 2293   2.607   2.382   0.380
    1TCM    cl1 2294   2.561   2.492   0.247
    1TCM    cl2 2295   2.583   2.465   0.535
    1TCM     h1 2296   2.543   2.291   0.376
    1TCM    cl3 2297   2.778   2.336   0.363
    1TCM     c1 2298   3.377   2.458   2.182
    1TCM    cl1 2299   3.490   2.592   2.148
    1TCM    cl2 2300   3.210   2.513   2.155
    1TCM     h1 2301   3.399   2.373   2.115
    1TCM    cl3 2302   3.396   2.407   2.351
    1TCM     c1 2303   4.061   1.223   5.180
    1TCM    cl1 2304   4.101   1.354   5.293
    1TCM    cl2 2305   4.168   1.084   5.209
    1TCM     h1 2306   3.955   1.192   5.194
    1TCM    cl3 2307   4.084   1.281   5.013
    1TCM     c1 2308   1.106   2.027   4.500
    1TCM    cl1 2309   1.155   1.974   4.663
    1TCM    cl2 2310   1.017   1.896   4.420
    1TCM     h1 2311   1.041   2.117   4.508
    1TCM    cl3 2312   1.251   2.067   4.405
    1TCM     c1 2313   0.451   0.331   2.144
    1TCM    cl1 2314   0.512   0.239   2.005
    1TCM    cl2 2315   0.540   0.283   2.290
    1TCM     h1 2316   0.465   0.440   2.126
    1TCM    cl3 2317   0.278   0.297   2.167
    1TCM     c1 2318   3.819   0.431   1.085
    1TCM    cl1 2319   3.932   0.556   1.143
    1TCM    cl2 2320   3.653   0.496   1.086
    1TCM     h1 2321   3.846   0.402   0.981
    1TCM    cl3 2322   3.828   0.289   1.191
    1TCM     c1 2323   3.175   2.276   3.621
    1TCM    cl1 2324   3.320   2.340   3.539
    1TCM    cl2 2325   3.182   2.317   3.794
    1TCM     h1 2326   3.084   2.322   3.576
    1TCM    cl3 2327   3.169   2.100   3.602
    1TCM     c1 2328   3.743   2.838   3.558
    1TCM    cl1 2329   3.870   2.882   3.674
    1TCM    cl2 2330   3.753   2.664   3.522
    1TCM     h1 2331   3.644   2.862   3.601
    1TCM    cl3 2332   3.767   2.930   3.408
    1TCM     c1 2333   3.256   4.436   1.766
    1TCM    cl1 2334   3.251   4.613   1.780
    1TCM    cl2 2335   3.247   4.390   1.594
    1TCM     h1 2336   3.351   4.399   1.809
    1TCM    cl3 2337   3.118   4.365   1.853
    1TCM     c1 2338   0.528   1.307   4.234
    1TCM    cl1 2339   0.437   1.156   4.254
    1TCM    cl2 2340   0.522   1.359   4.064
    1TCM     h1 2341   0.483   1.386   4.298
    1TCM    cl3 2342   0.697   1.282   4.282
    1TCM     c1 2343   0.361   1.883   1.622
    1TCM    cl1 2344   0.530   1.862   1.674
    1TCM    cl2 2345   0.320   1.757   1.503
    1TCM     h1 2346   0.294   1.874   1.709
    1TCM    cl3 2347   0.341   2.043   1.547
    1TCM     c1 2348   0.101   2.916   1.353
    1TCM    cl1 2349   0.214   2.800   1.280
    1TCM    cl2 2350   0.093   3.063   1.253
    1TCM     h1 2351   0.000   2.871   1.360
    1TCM    cl3 2352   0.157   2.959   1.516
    1TCM     c1 2353   0.853   3.640   0.076
    1TCM    cl1 2354   0.793   3.665   0.242
    1TCM    cl2 2355   0.883   3.466   0.050
    1TCM     h1 2356   0.778   3.676   0.004
    1TCM    cl3 2357   1.005   3.729   0.054
    1TCM     c1 2358   3.609   1.300   1.483
    1TCM    cl1 2359   3.432   1.317   1.488
    1TCM    cl2 2360   3.653   1.131   1.516
    1TCM     h1 2361   3.646   1.328   1.382
    1TCM    cl3 2362   3.682   1.406   1.605
    1TCM     c1 2363   3.506   1.720   4.715
    1TCM    cl1 2364   3.357   1.629   4.750
    1TCM    cl2 2365   3.618   1.705   4.852
    1TCM     h1 2366   3.553   1.679   4.623
    1TCM    cl3 2367   3.465   1.891   4.690
    1TCM     c1 2368   0.697   3.994   4.309
    1TCM    cl1 2369   0.571   4.117   4.332
    1TCM    cl2 2370   0.844   4.071   4.244
    1TCM     h1 2371   0.721   3.947   4.407
    1TCM    cl3 2372   0.639   3.870   4.196
    1TCM     c1 2373   3.625   3.215   5.182
    1TCM    cl1 2374   3.587   3.127   5.032
    1TCM    cl2 2375   3.513   3.162   5.311
    1TCM     h1 2376   3.729   3.193   5.213
    1TCM    cl3 2377   3.605   3.389   5.155
    1TCM     c1 2378   0.955   2.725   1.510
    1TCM    cl1 2379   0.902   2.572   1.585
    1TCM    cl2 2380   1.127   2.713   1.468
    1TCM     h1 2381   0.895   2.743   1.418
    1TCM    cl3 2382   0.930   2.859   1.624
    1TCM     c1 2383   4.400   5.069   5.200
    1TCM    cl1 2384   4.280   5.090   5.329
    1TCM    cl2 2385   4.561   5.114   5.262
    1TCM     h1 2386   4.401   4.964   5.167
    1TCM    cl3 2387   4.359   5.174   5.063
    1TCM     c1 2388   4.400   1.120   0.287
    1TCM    cl1 2389   4.261   1.154   0.183
    1TCM    cl2 2390   4.344   1.092   0.454
    1TCM     h1 2391   4.453   1.029   0.251
    1TCM    cl3 2392   4.512   1.258   0.284
    1TCM     c1 2393   3.072   0.826   3.487
    1TCM    cl1 2394   3.013   0.829   3.319
    1TCM    cl2 2395   3.181   0.964   3.514
    1TCM     h1 2396   2.986   0.832   3.556
    1TCM    cl3 2397   3.160   0.674   3.516
    1TCM     c1 2398   4.347   1.434   4.917
    1TCM    cl1 2399   4.494   1.535   4.910
    1TCM    cl2 2400   4.346   1.321   4.780
    1TCM     h1 2401   4.346   1.377   5.012
    1TCM    cl3 2402   4.203   1.539   4.909
    1TCM     c1 2403   4.769   2.152   3.824
    1TCM    cl1 2404   4.673   2.002   3.823
    1TCM    cl2 2405   4.685   2.276   3.727
    1TCM     h1 2406   4.780   2.188   3.928
    1TCM    cl3 2407   4.929   2.121   3.754
    1TCM     c1 2408   0.113   4.964   3.724
    1TCM    cl1 2409   0.030   4.917   3.575
    1TCM    cl2 2410   0.266   4.875   3.738
    1TCM     h1 2411   0.134   5.073   3.722
    1TCM    cl3 2412   0.010   4.927   3.864
    1TCM     c1 2413   3.390   0.740   3.842
    1TCM    cl1 2414   3.215   0.743   3.812
    1TCM    cl2 2415   3.475   0.689   3.695
    1TCM     h1 2416   3.423   0.842   3.871
    1TCM    cl3 2417   3.426   0.627   3.974
    1TCM     c1 2418   3.831   3.717   1.630
    1TCM    cl1 2419   3.957   3.809   1.544
    1TCM    cl2 2420   3.830   3.763   1.802
    1TCM     h1 2421   3.732   3.739   1.585
    1TCM    cl3 2422   3.865   3.543   1.615
    1TCM     c1 2423   0.539   0.175   1.379
    1TCM    cl1 2424   0.636   0.045   1.452
    1TCM    cl2 2425   0.395   0.105   1.301
    1TCM     h1 2426   0.508   0.246   1.458
    1TCM    cl3 2427   0.637   0.260   1.257
    1TCM     c1 2428   2.163   3.963   3.691
    1TCM    cl1 2429   2.293   3.937   3.809
    1TCM    cl2 2430   2.209   3.893   3.534
    1TCM     h1 2431   2.070   3.915   3.727
    1TCM    cl3 2432   2.135   4.138   3.672
    1TCM     c1 2433   4.519   3.953   1.335
    1TCM    cl1 2434   4.546   3.928   1.509
    1TCM    cl2 2435   4.654   4.047   1.267
    1TCM     h1 2436   4.514   3.854   1.284
    1TCM    cl3 2437   4.367   4.041   1.310
    1TCM     c1 2438   3.146   4.339   4.596
    1TCM    cl1 2439   2.991   4.361   4.681
    1TCM    cl2 2440   3.216   4.182   4.641
    1TCM     h1 2441   3.129   4.342   4.487
    1TCM    cl3 2442   3.258   4.470   4.643
    1TCM     c1 2443   2.075   1.868   4.792
    1TCM    cl1 2444   1.937   1.975   4.828
    1TCM    cl2 2445   2.047   1.786   4.636
    1TCM     h1 2446   2.168   1.929   4.785
    1TCM    cl3 2447   2.092   1.747   4.921
    1TCM     c1 2448   1.563   3.453   2.043
    1TCM    cl1 2449   1.571   3.598   1.941
    1TCM    cl2 2450   1.524   3.500   2.210
    1TCM     h1 2451   1.485   3.385   2.004
    1TCM    cl3 2452   1.720   3.369   2.040
    1TCM     c1 2453   1.812   0.119   1.508
    1TCM    cl1 2454   1.898   0.089   1.661
    1TCM    cl2 2455   1.930   0.152   1.380
    1TCM     h1 2456   1.752   0.031   1.481
    1TCM    cl3 2457   1.705   0.260   1.528
    1TCM     c1 2458   4.199   4.356   3.759
    1TCM    cl1 2459   4.117   4.495   3.684
    1TCM    cl2 2460   4.143   4.338   3.926
    1TCM     h1 2461   4.176   4.264   3.702
    1TCM    cl3 2462   4.375   4.383   3.758
    1TCM     c1 2463   0.695   1.028   3.771
    1TCM    cl1 2464   0.611   1.012   3.616
    1TCM    cl2 2465   0.630   0.909   3.887
    1TCM     h1 2466   0.804   1.009   3.757
    1TCM    cl3 2467   0.672   1.192   3.835
    1TCM     c1 2468   1.688   4.454   0.702
    1TCM    cl1 2469   1.814   4.576   0.679
    1TCM    cl2 2470   1.576   4.507   0.829
    1TCM     h1 2471   1.632   4.440   0.607
    1TCM    cl3 2472   1.762   4.299   0.750
    1TCM     c1 2473   3.293   0.444   0.174
    1TCM    cl1 2474   3.139   0.433   0.262
    1TCM    cl2 2475   3.263   0.422  -0.000
    1TCM     h1 2476   3.339   0.544   0.191
    1TCM    cl3 2477   3.403   0.317   0.231
    1TCM     c1 2478   3.795   0.930   3.288
    1TCM    cl1 2479   3.839   0.923   3.116
    1TCM    cl2 2480   3.943   0.950   3.386
    1TCM     h1 2481   3.728   1.017   3.305
    1TCM    cl3 2482   3.713   0.780   3.335
    1TCM     c1 2483   0.153   4.597   4.003
    1TCM    cl1 2484   0.284   4.501   3.931
    1TCM    cl2 2485   0.219   4.699   4.133
    1TCM     h1 2486   0.107   4.662   3.925
    1TCM    cl3 2487   0.029   4.488   4.070
    1TCM     c1 2488   4.437   1.668   5.262
    1TCM    cl1 2489   4.510   1.819   5.321
    1TCM    cl2 2490   4.417   1.677   5.085
    1TCM     h1 2491   4.503   1.583   5.287
    1TCM    cl3 2492   4.278   1.645   5.338
    1TCM     c1 2493   0.544   0.623   2.754
    1TCM    cl1 2494   0.586   0.624   2.581
    1TCM    cl2 2495   0.429   0.491   2.786
    1TCM     h1 2496   0.637   0.607   2.814
    1TCM    cl3 2497   0.471   0.778   2.799
    1TCM     c1 2498   0.402   2.139   2.226
    1TCM    cl1 2499   0.524   2.010   2.230
    1TCM    cl2 2500   0.393   2.207   2.062
    1TCM     h1 2501   0.303   2.098   2.255
    1TCM    cl3 2502   0.448   2.267   2.341
    1TCM     c1 2503   3.569   2.138   1.787
    1TCM    cl1 2504   3.517   2.053   1.639
    1TCM    cl2 2505   3.726   2.072   1.841
    1TCM     h1 2506   3.580   2.246   1.765
    1TCM    cl3 2507   3.448   2.114   1.914
    1TCM     c1 2508   2.637   0.933   4.337
    1TCM    cl1 2509   2.521   0.983   4.212
    1TCM    cl2 2510   2.562   0.809   4.441
    1TCM     h1 2511   2.727   0.891   4.289
    1TCM    cl3 2512   2.682   1.073   4.436
    1TCM     c1 2513   4.657   2.538   4.926
    1TCM    cl1 2514   4.615   2.671   5.036
    1TCM    cl2 2515   4.551   2.399   4.959
    1TCM     h1 2516   4.643   2.570   4.821
    1TCM    cl3 2517   4.826   2.490   4.952
    1TCM     c1 2518   3.821   0.777   2.864
    1TCM    cl1 2519   3.701   0.765   2.733
    1TCM    cl2 2520   3.909   0.931   2.851
    1TCM     h1 2521   3.769   0.772   2.962
    1TCM    cl3 2522   3.935   0.642   2.852
    1TCM     c1 2523   3.347   2.136   3.338
    1TCM    cl1 2524   3.471   2.051   3.244
    1TCM    cl2 2525   3.351   2.309   3.299
    1TCM     h1 2526   3.247   2.095   3.313
    1TCM    cl3 2527   3.378   2.114   3.512
    1TCM     c1 2528   3.818   1.618   1.482
    1TCM    cl1 2529   3.867   1.771   1.405
    1TCM    cl2 2530   3.727   1.654   1.631
    1TCM     h1 2531   3.753   1.561   1.413
    1TCM    cl3 2532   3.962   1.523   1.521
    1TCM     c1 2533   0.425   3.415   1.584
    1TCM    cl1 2534   0.250   3.417   1.614
    1TCM    cl2 2535   0.464   3.287   1.467
    1TCM     h1 2536   0.456   3.513   1.542
    1TCM    cl3 2537   0.512   3.385   1.736
    1TCM     c1 2538   2.519   3.741   4.595
    1TCM    cl1 2539   2.460   3.667   4.746
    1TCM    cl2 2540   2.501   3.918   4.605
    1TCM     h1 2541   2.626   3.716   4.582
    1TCM    cl3 2542   2.426   3.679   4.457
    1TCM     c1 2543   1.928   1.621   1.964
    1TCM    cl1 2544   1.929   1.761   2.073
    1TCM    cl2 2545   1.983   1.672   1.802
    1TCM     h1 2546   1.996   1.543   2.003
    1TCM    cl3 2547   1.763   1.556   1.952
    1TCM     c1 2548   4.615   2.599   0.303
    1TCM    cl1 2549   4.761   2.631   0.208
    1TCM    cl2 2550   4.661   2.556   0.469
    1TCM     h1 2551   4.551   2.690   0.305
    1TCM    cl3 2552   4.524   2.465   0.229
    1TCM     c1 2553   3.105   4.594   3.558
    1TCM    cl1 2554   2.940   4.566   3.498
    1TCM    cl2 2555   3.203   4.448   3.533
    1TCM     h1 2556   3.151   4.679   3.503
    1TCM    cl3 2557   3.099   4.632   3.732
    1TCM     c1 2558   5.010   3.877   5.223
    1TCM    cl1 2559   4.873   3.787   5.292
    1TCM    cl2 2560   4.994   4.049   5.264
    1TCM     h1 2561   5.105   3.837   5.264
    1TCM    cl3 2562   5.009   3.858   5.046
    1TCM     c1 2563   1.193   2.684   3.338
    1TCM    cl1 2564   1.124   2.552   3.436
    1TCM    cl2 2565   1.172   2.647   3.165
    1TCM     h1 2566   1.141   2.779   3.362
    1TCM    cl3 2567   1.366   2.700   3.374
    1TCM     c1 2568   2.534   2.794   1.293
    1TCM    cl1 2569   2.515   2.894   1.147
    1TCM    cl2 2570   2.407   2.670   1.298
    1TCM     h1 2571   2.634   2.745   1.291
    1TCM    cl3 2572   2.522   2.897   1.437
    1TCM     c1 2573   0.131   3.561   3.584
    1TCM    cl1 2574   0.248   3.569   3.450
    1TCM    cl2 2575   0.001   3.447   3.542
    1TCM     h1 2576   0.183   3.526   3.676
    1TCM    cl3 2577   0.062   3.723   3.612
    1TCM     c1 2578   2.473   4.842   3.293
    1TCM    cl1 2579   2.626   4.780   3.358
    1TCM    cl2 2580   2.345   4.829   3.417
    1TCM     h1 2581   2.485   4.949   3.264
    1TCM    cl3 2582   2.426   4.747   3.150
    1TCM     c1 2583   4.999   2.728   4.195
    1TCM    cl1 2584   5.170   2.777   4.201
    1TCM    cl2 2585   4.896   2.873   4.191
    1TCM     h1 2586   4.981   2.668   4.104
    1TCM    cl3 2587   4.959   2.632   4.339
    1TCM     c1 2588   2.578   2.257   3.579
    1TCM    cl1 2589   2.442   2.143   3.600
    1TCM    cl2 2590   2.596   2.296   3.407
    1TCM     h1 2591   2.557   2.349   3.636
    1TCM    cl3 2592   2.727   2.181   3.639
    1TCM     c1 2593   1.976   0.910   3.928
    1TCM    cl1 2594   1.995   0.797   4.064
    1TCM    cl2 2595   1.938   1.072   3.991
    1TCM     h1 2596   2.071   0.914   3.870
    1TCM    cl3 2597   1.844   0.855   3.822
    1TCM     c1 2598   0.936   0.356   0.888
    1TCM    cl1 2599   0.969   0.512   0.968
    1TCM    cl2 2600   0.971   0.371   0.714
    1TCM     h1 2601   1.001   0.278   0.932
    1TCM    cl3 2602   0.765   0.313   0.911
    1TCM     c1 2603   4.150   1.432   3.645
    1TCM    cl1 2604   4.047   1.576   3.661
    1TCM    cl2 2605   4.184   1.365   3.806
    1TCM     h1 2606   4.098   1.356   3.584
    1TCM    cl3 2607   4.303   1.477   3.566
    1TCM     c1 2608   3.224   4.915   3.407
    1TCM    cl1 2609   3.262   4.776   3.303
    1TCM    cl2 2610   3.056   4.902   3.464
    1TCM     h1 2611   3.293   4.916   3.494
    1TCM    cl3 2612   3.243   5.066   3.314
    1TCM     c1 2613   2.227   2.557   3.107
    1TCM    cl1 2614   2.135   2.432   3.021
    1TCM    cl2 2615   2.116   2.684   3.163
    1TCM     h1 2616   2.278   2.512   3.194
    1TCM    cl3 2617   2.348   2.628   2.997
    1TCM     c1 2618   1.542   0.757   5.235
    1TCM    cl1 2619   1.447   0.865   5.340
    1TCM    cl2 2620   1.496   0.784   5.066
    1TCM     h1 2621   1.650   0.779   5.249
    1TCM    cl3 2622   1.509   0.588   5.280
    1TCM     c1 2623   2.190   4.382   4.443
    1TCM    cl1 2624   2.162   4.465   4.288
    1TCM    cl2 2625   2.168   4.497   4.577
    1TCM     h1 2626   2.118   4.299   4.453
    1TCM    cl3 2627   2.356   4.318   4.446
    1TCM     c1 2628   0.784   3.743   5.056
    1TCM    cl1 2629   0.768   3.868   4.931
    1TCM    cl2 2630   0.622   3.686   5.104
    1TCM     h1 2631   0.842   3.657   5.016
    1TCM    cl3 2632   0.867   3.810   5.198
    1TCM     c1 2633   5.091   3.051   1.872
    1TCM    cl1 2634   5.075   3.194   1.767
    1TCM    cl2 2635   5.085   3.101   2.042
    1TCM     h1 2636   5.009   2.980   1.851
    1TCM    cl3 2637   5.247   2.971   1.839
    1TCM     c1 2638   3.303   1.185   3.590
    1TCM    cl1 2639   3.380   1.309   3.691
    1TCM    cl2 2640   3.361   1.201   3.423
    1TCM     h1 2641   3.329   1.084   3.629
    1TCM    cl3 2642   3.126   1.206   3.594
    1TCM     c1 2643   0.084   1.323   1.830
    1TCM    cl1 2644   0.252   1.269   1.850
    1TCM    cl2 2645   0.001   1.319   1.987
    1TCM     h1 2646   0.082   1.426   1.790
    1TCM    cl3 2647   0.000   1.214   1.717
    1TCM     c1 2648   1.557   0.128   1.257
    1TCM    cl1 2649   1.419   0.075   1.159
    1TCM    cl2 2650   1.681   0.001   1.259
    1TCM     h1 2651   1.599   0.221   1.214
    1TCM    cl3 2652   1.502   0.159   1.424
    1TCM     c1 2653   2.757   2.930   3.887
    1TCM    cl1 2654   2.833   2.812   3.997
    1TCM    cl2 2655   2.883   3.029   3.809
    1TCM     h1 2656   2.700   2.876   3.809
    1TCM    cl3 2657   2.648   3.035   3.979
    1TCM     c1 2658   5.126   3.324   1.240
    1TCM    cl1 2659   5.206   3.453   1.147
    1TCM    cl2 2660   5.035   3.397   1.375
    1TCM     h1 2661   5.056   3.269   1.175
    1TCM    cl3 2662   5.248   3.213   1.305
    1TCM     c1 2663   1.888   0.289   0.188
    1TCM    cl1 2664   1.756   0.170   0.197
    1TCM    cl2 2665   2.013   0.229   0.076
    1TCM     h1 2666   1.848   0.385   0.150
    1TCM    cl3 2667   1.958   0.312   0.349
    1TCM     c1 2668   1.119   1.900   2.987
    1TCM    cl1 2669   1.086   1.727   2.956
    1TCM    cl2 2670   1.279   1.916   3.063
    1TCM     h1 2671   1.117   1.955   2.891
    1TCM    cl3 2672   0.995   1.965   3.096
    1TCM     c1 2673   2.690   3.842   2.448
    1TCM    cl1 2674   2.833   3.760   2.382
    1TCM    cl2 2675   2.741   3.983   2.544
    1TCM     h1 2676   2.624   3.875   2.365
    1TCM    cl3 2677   2.600   3.729   2.553
    1TCM     c1 2678   1.531   0.632   2.913
    1TCM    cl1 2679   1.559   0.754   2.787
    1TCM    cl2 2680   1.467   0.710   3.059
    1TCM     h1 2681   1.458   0.557   2.876
    1TCM    cl3 2682   1.684   0.551   2.952
    1TCM     c1 2683   5.136   5.029   2.830
    1TCM    cl1 2684   5.107   4.902   2.709
    1TCM    cl2 2685   5.163   4.955   2.989
    1TCM     h1 2686   5.225   5.088   2.801
    1TCM    cl3 2687   4.994   5.137   2.838
    1TCM     c1 2688   2.658   3.904   3.185
    1TCM    cl1 2689   2.554   4.002   3.291
    1TCM    cl2 2690   2.669   3.982   3.025
    1TCM     h1 2691   2.760   3.897   3.229
    1TCM    cl3 2692   2.589   3.741   3.167
    1TCM     c1 2693   5.024   5.001   0.270
    1TCM    cl1 2694   4.917   5.034   0.131
    1TCM    cl2 2695   5.064   4.828   0.274
    1TCM     h1 2696   5.117   5.061   0.260
    1TCM    cl3 2697   4.940   5.046   0.420
    1TCM     c1 2698   1.540   4.062   5.169
    1TCM    cl1 2699   1.390   4.048   5.075
    1TCM    cl2 2700   1.630   3.909   5.161
    1TCM     h1 2701   1.603   4.144   5.128
    1TCM    cl3 2702   1.500   4.098   5.339
    1TCM     c1 2703   0.478   1.917   3.520
    1TCM    cl1 2704   0.319   1.859   3.468
    1TCM    cl2 2705   0.482   1.928   3.698
    1TCM     h1 2706   0.557   1.847   3.485
    1TCM    cl3 2707   0.508   2.078   3.451
    1TCM     c1 2708   4.638   0.362   4.811
    1TCM    cl1 2709   4.588   0.500   4.911
    1TCM    cl2 2710   4.664   0.416   4.644
    1TCM     h1 2711   4.732   0.320   4.852
    1TCM    cl3 2712   4.511   0.237   4.815
    1TCM     c1 2713   4.344   2.428   2.474
    1TCM    cl1 2714   4.261   2.304   2.571
    1TCM    cl2 2715   4.487   2.487   2.562
    1TCM     h1 2716   4.376   2.384   2.377
    1TCM    cl3 2717   4.233   2.563   2.444
    1TCM     c1 2718   3.472   4.748   1.717
    1TCM    cl1 2719   3.548   4.613   1.630
    1TCM    cl2 2720   3.584   4.886   1.719
    1TCM     h1 2721   3.378   4.777   1.666
    1TCM    cl3 2722   3.436   4.698   1.884
    1TCM     c1 2723   5.205   5.171   0.751
    1TCM    cl1 2724   5.207   5.340   0.696
    1TCM    cl2 2725   5.037   5.117   0.772
    1TCM     h1 2726   5.255   5.107   0.676
    1TCM    cl3 2727   5.291   5.159   0.906
    1TCM     c1 2728   3.973   5.142   0.254
    1TCM    cl1 2729   4.017   5.082   0.416
    1TCM    cl2 2730   4.121   5.181   0.163
    1TCM     h1 2731   3.916   5.064   0.200
    1TCM    cl3 2732   3.874   5.289   0.271
    1TCM     c1 2733   0.633   5.086   2.458
    1TCM    cl1 2734   0.682   5.243   2.527
    1TCM    cl2 2735   0.627   5.098   2.281
    1TCM     h1 2736   0.707   5.008   2.488
    1TCM    cl3 2737   0.472   5.042   2.520
    1TCM     c1 2738   2.873   5.147   4.386
    1TCM    cl1 2739   2.802   5.267   4.275
    1TCM    cl2 2740   2.949   5.017   4.292
    1TCM     h1 2741   2.950   5.197   4.449
    1TCM    cl3 2742   2.746   5.079   4.490
    1TCM     c1 2743   4.410   4.189   1.834
    1TCM    cl1 2744   4.272   4.194   1.723
    1TCM    cl2 2745   4.352   4.203   2.002
    1TCM     h1 2746   4.464   4.092   1.822
    1TCM    cl3 2747   4.521   4.323   1.798
    1TCM     c1 2748   3.272   3.667   4.890
    1TCM    cl1 2749   3.334   3.571   5.026
    1TCM    cl2 2750   3.294   3.576   4.738
    1TCM     h1 2751   3.164   3.688   4.905
    1TCM    cl3 2752   3.362   3.820   4.880
    1TCM     c1 2753   2.768   0.532   4.351
    1TCM    cl1 2754   2.684   0.513   4.506
    1TCM    cl2 2755   2.729   0.394   4.245
    1TCM     h1 2756   2.735   0.626   4.302
    1TCM    cl3 2757   2.943   0.538   4.378
    1TCM     c1 2758   3.344   3.348   1.813
    1TCM    cl1 2759   3.487   3.433   1.749
    1TCM    cl2 2760   3.328   3.383   1.986
    1TCM     h1 2761   3.254   3.383   1.759
    1TCM    cl3 2762   3.364   3.173   1.789
    1TCM     c1 2763   0.179   3.077   3.548
    1TCM    cl1 2764   0.317   2.987   3.482
    1TCM    cl2 2765   0.207   3.108   3.721
    1TCM     h1 2766   0.170   3.174   3.495
    1TCM    cl3 2767   0.031   2.983   3.527
    1TCM     c1 2768   1.510   3.836   3.102
    1TCM    cl1 2769   1.600   3.865   3.252
    1TCM    cl2 2770   1.515   3.983   3.001
    1TCM     h1 2771   1.556   3.752   3.046
    1TCM    cl3 2772   1.341   3.797   3.141
    1TCM     c1 2773   2.846   4.223   1.760
    1TCM    cl1 2774   2.726   4.093   1.747
    1TCM    cl2 2775   2.912   4.225   1.926
    1TCM     h1 2776   2.928   4.205   1.688
    1TCM    cl3 2777   2.769   4.380   1.726
    1TCM     c1 2778   5.139   1.675   2.961
    1TCM    cl1 2779   5.076   1.635   2.799
    1TCM    cl2 2780   5.316   1.658   2.961
    1TCM     h1 2781   5.112   1.780   2.986
    1TCM    cl3 2782   5.069   1.565   3.081
    1TCM     c1 2783   4.435   3.474   3.031
    1TCM    cl1 2784   4.567   3.356   3.047
    1TCM    cl2 2785   4.290   3.413   3.114
    1TCM     h1 2786   4.465   3.571   3.076
    1TCM    cl3 2787   4.398   3.497   2.858
    1TCM     c1 2788   2.732   4.930   2.626
    1TCM    cl1 2789   2.872   4.821   2.622
    1TCM    cl2 2790   2.733   5.023   2.778
    1TCM     h1 2791   2.737   5.000   2.540
    1TCM    cl3 2792   2.582   4.835   2.616
    1TCM     c1 2793   2.993   3.185   2.424
    1TCM    cl1 2794   2.917   3.051   2.335
    1TCM    cl2 2795   3.159   3.209   2.365
    1TCM     h1 2796   2.934   3.278   2.407
    1TCM    cl3 2797   2.997   3.147   2.597
    1TCM     c1 2798   1.916   3.506   4.154
    1TCM    cl1 2799   1.902   3.650   4.052
    1TCM    cl2 2800   1.942   3.555   4.323
    1TCM     h1 2801   1.824   3.446   4.147
    1TCM    cl3 2802   2.055   3.408   4.100
    1TCM     c1 2803   4.994   1.873   0.513
    1TCM    cl1 2804   5.014   1.840   0.339
    1TCM    cl2 2805   4.959   1.720   0.598
    1TCM     h1 2806   5.088   1.917   0.553
    1TCM    cl3 2807   4.860   1.986   0.537
    1TCM     c1 2808   2.042   3.085   2.142
    1TCM    cl1 2809   2.181   3.118   2.247
    1TCM    cl2 2810   2.099   3.042   1.979
    1TCM     h1 2811   1.983   3.001   2.184
    1TCM    cl3 2812   1.939   3.230   2.132
    1TCM     c1 2813   1.992   0.949   4.969
    1TCM    cl1 2814   2.040   1.116   4.935
    1TCM    cl2 2815   2.111   0.837   4.899
    1TCM     h1 2816   1.986   0.933   5.078
    1TCM    cl3 2817   1.832   0.918   4.896
    1TCM     c1 2818   0.295   5.088   3.997
    1TCM    cl1 2819   0.361   5.208   4.111
    1TCM    cl2 2820   0.327   5.141   3.831
    1TCM     h1 2821   0.343   4.990   4.015
    1TCM    cl3 2822   0.120   5.073   4.022
    1TCM     c1 2823   1.660   4.490   1.725
    1TCM    cl1 2824   1.651   4.625   1.609
    1TCM    cl2 2825   1.827   4.474   1.784
    1TCM     h1 2826   1.592   4.510   1.810
    1TCM    cl3 2827   1.610   4.339   1.645
    1TCM     c1 2828   4.940   0.989   4.261
    1TCM    cl1 2829   4.848   0.896   4.382
    1TCM    cl2 2830   4.865   0.967   4.101
    1TCM     h1 2831   4.938   1.096   4.289
    1TCM    cl3 2832   5.108   0.931   4.257
    1TCM     c1 2833   2.337   3.222   0.255
    1TCM    cl1 2834   2.299   3.335   0.123
    1TCM    cl2 2835   2.259   3.277   0.405
    1TCM     h1 2836   2.300   3.121   0.229
    1TCM    cl3 2837   2.513   3.215   0.279
    1TCM     c1 2838   2.652   4.216   1.402
    1TCM    cl1 2839   2.795   4.318   1.427
    1TCM    cl2 2840   2.651   4.153   1.236
    1TCM     h1 2841   2.654   4.131   1.474
    1TCM    cl3 2842   2.505   4.312   1.430
    1TCM     c1 2843   1.669   0.948   4.128
    1TCM    cl1 2844   1.761   0.813   4.198
    1TCM    cl2 2845   1.690   0.947   3.951
    1TCM     h1 2846   1.562   0.937   4.153
    1TCM    cl3 2847   1.730   1.102   4.193
    1TCM     c1 2848   1.574   1.126   2.889
    1TCM    cl1 2849   1.571   1.104   2.713
    1TCM    cl2 2850   1.486   0.992   2.967
    1TCM     h1 2851   1.679   1.127   2.925
    1TCM    cl3 2852   1.495   1.280   2.931
    1TCM     c1 2853   1.990   3.190   3.478
    1TCM    cl1 2854   1.962   3.169   3.304
    1TCM    cl2 2855   2.033   3.360   3.510
    1TCM     h1 2856   1.898   3.164   3.534
    1TCM    cl3 2857   2.124   3.085   3.530
    1TCM     c1 2858   3.860   4.282   3.039
    1TCM    cl1 2859   3.806   4.425   3.130
    1TCM    cl2 2860   3.879   4.326   2.867
    1TCM     h1 2861   3.958   4.247   3.079
    1TCM    cl3 2862   3.740   4.153   3.054
    1TCM     c1 2863   2.687   5.087   0.494
    1TCM    cl1 2864   2.839   4.997   0.512
    1TCM    cl2 2865   2.721   5.262   0.493
    1TCM     h1 2866   2.638   5.059   0.398
    1TCM    cl3 2867   2.578   5.049   0.629
    1TCM     c1 2868   1.651   3.803   4.111
    1TCM    cl1 2869   1.773   3.932   4.103
    1TCM    cl2 2870   1.698   3.685   4.235
    1TCM     h1 2871   1.552   3.847   4.138
    1TCM    cl3 2872   1.639   3.723   3.954
    1TCM     c1 2873   2.368   2.235   1.327
    1TCM    cl1 2874   2.508   2.340   1.359
    1TCM    cl2 2875   2.232   2.334   1.268
    1TCM     h1 2876   2.395   2.160   1.249
    1TCM    cl3 2877   2.321   2.152   1.476
    1TCM     c1 2878   3.139   0.139   3.825
    1TCM    cl1 2879   3.186   0.078   3.986
    1TCM    cl2 2880   3.125   0.316   3.831
    1TCM     h1 2881   3.217   0.110   3.751
    1TCM    cl3 2882   2.983   0.068   3.778
    1TCM     c1 2883   2.060   1.202   2.096
    1TCM    cl1 2884   2.055   1.326   1.968
    1TCM    cl2 2885   1.945   1.245   2.225
    1TCM     h1 2886   2.033   1.104   2.052
    1TCM    cl3 2887   2.224   1.194   2.163
    1TCM     c1 2888   2.305   2.801   0.413
    1TCM    cl1 2889   2.197   2.867   0.538
    1TCM    cl2 2890   2.218   2.792   0.258
    1TCM     h1 2891   2.394   2.867   0.402
    1TCM    cl3 2892   2.358   2.638   0.461
    1TCM     c1 2893   3.609   2.505   4.373
    1TCM    cl1 2894   3.695   2.657   4.410
    1TCM    cl2 2895   3.722   2.388   4.301
    1TCM     h1 2896   3.567   2.463   4.467
    1TCM    cl3 2897   3.477   2.538   4.259
    1TCM     c1 2898   0.769   0.432   1.995
    1TCM    cl1 2899   0.628   0.397   1.892
    1TCM    cl2 2900   0.731   0.388   2.163
    1TCM     h1 2901   0.856   0.372   1.960
    1TCM    cl3 2902   0.807   0.605   1.985
    1TCM     c1 2903   0.074   2.889   3.877
    1TCM    cl1 2904   0.104   3.060   3.916
    1TCM    cl2 2905   0.010   2.806   4.021
    1TCM     h1 2906   0.000   2.883   3.794
    1TCM    cl3 2907   0.226   2.812   3.827
    1TCM     c1 2908   4.293   4.856   0.793
    1TCM    cl1 2909   4.324   4.855   0.968
    1TCM    cl2 2910   4.330   5.017   0.727
    1TCM     h1 2911   4.358   4.780   0.744
    1TCM    cl3 2912   4.123   4.817   0.763
    1TCM     c1 2913   0.298   4.305   1.099
    1TCM    cl1 2914   0.258   4.132   1.094
    1TCM    cl2 2915   0.162   4.399   1.033
    1TCM     h1 2916   0.316   4.336   1.204
    1TCM    cl3 2917   0.443   4.335   1.001
    1TCM     c1 2918   2.193   2.351   3.820
    1TCM    cl1 2919   2.262   2.384   3.659
    1TCM    cl2 2920   2.325   2.326   3.937
    1TCM     h1 2921   2.131   2.437   3.852
    1TCM    cl3 2922   2.093   2.204   3.813
    1TCM     c1 2923   0.578   4.086   1.294
    1TCM    cl1 2924   0.473   4.119   1.155
    1TCM    cl2 2925   0.519   4.175   1.436
    1TCM     h1 2926   0.577   3.977   1.316
    1TCM    cl3 2927   0.744   4.137   1.257
    1TCM     c1 2928   1.415   3.883   0.382
    1TCM    cl1 2929   1.265   3.938   0.461
    1TCM    cl2 2930   1.514   3.794   0.499
    1TCM     h1 2931   1.389   3.817   0.297
    1TCM    cl3 2932   1.505   4.024   0.322
    1TCM     c1 2933   3.180   2.126   2.547
    1TCM    cl1 2934   3.321   2.020   2.526
    1TCM    cl2 2935   3.175   2.246   2.416
    1TCM     h1 2936   3.087   2.065   2.545
    1TCM    cl3 2937   3.192   2.210   2.703
    1TCM     c1 2938   1.914   2.761   2.483
    1TCM    cl1 2939   2.052   2.774   2.595
    1TCM    cl2 2940   1.762   2.760   2.576
    1TCM     h1 2941   1.915   2.847   2.414
    1TCM    cl3 2942   1.927   2.609   2.391
    1TCM     c1 2943   3.413   5.122   2.095
    1TCM    cl1 2944   3.348   5.240   1.979
    1TCM    cl2 2945   3.279   5.037   2.174
    1TCM     h1 2946   3.477   5.049   2.041
    1TCM    cl3 2947   3.510   5.207   2.217
    1TCM     c1 2948   1.056   2.546   4.412
    1TCM    cl1 2949   1.157   2.640   4.524
    1TCM    cl2 2950   1.086   2.601   4.245
    1TCM     h1 2951   1.082   2.438   4.420
    1TCM    cl3 2952   0.885   2.569   4.452
    1TCM     c1 2953   4.625   3.897   4.931
    1TCM    cl1 2954   4.686   3.756   5.021
    1TCM    cl2 2955   4.719   3.917   4.781
    1TCM     h1 2956   4.518   3.881   4.906
    1TCM    cl3 2957   4.641   4.042   5.032
    1TCM     c1 2958   4.919   1.879   4.163
    1TCM    cl1 2959   5.085   1.820   4.184
    1TCM    cl2 2960   4.868   1.854   3.994
    1TCM     h1 2961   4.851   1.823   4.230
    1TCM    cl3 2962   4.912   2.052   4.201
    1TCM     c1 2963   4.126   2.240   2.865
    1TCM    cl1 2964   4.037   2.392   2.845
    1TCM    cl2 2965   4.149   2.163   2.706
    1TCM     h1 2966   4.225   2.261   2.911
    1TCM    cl3 2967   4.034   2.131   2.971
    1TCM     c1 2968   1.467   2.827   5.168
    1TCM    cl1 2969   1.450   2.996   5.220
    1TCM    cl2 2970   1.311   2.744   5.184
    1TCM     h1 2971   1.500   2.824   5.062
    1TCM    cl3 2972   1.588   2.745   5.270
    1TCM     c1 2973   3.670   2.148   3.124
    1TCM    cl1 2974   3.521   2.238   3.087
    1TCM    cl2 2975   3.716   2.178   3.293
    1TCM     h1 2976   3.652   2.040   3.108
    1TCM    cl3 2977   3.800   2.204   3.016
    1TCM     c1 2978   2.752   4.866   1.040
    1TCM    cl1 2979   2.704   5.021   1.113
    1TCM    cl2 2980   2.671   4.847   0.883
    1TCM     h1 2981   2.862   4.865   1.024
    1TCM    cl3 2982   2.706   4.733   1.147
    1TCM     c1 2983   1.658   3.842   0.888
    1TCM    cl1 2984   1.821   3.788   0.934
    1TCM    cl2 2985   1.619   3.781   0.726
    1TCM     h1 2986   1.584   3.803   0.961
    1TCM    cl3 2987   1.653   4.020   0.888
    1TCM     c1 2988   5.070   3.217   5.124
    1TCM    cl1 2989   5.003   3.340   5.234
    1TCM    cl2 2990   4.955   3.083   5.107
    1TCM     h1 2991   5.089   3.263   5.024
    1TCM    cl3 2992   5.223   3.156   5.191
    1TCM     c1 2993   2.950   5.034   3.098
    1TCM    cl1 2994   3.030   5.191   3.074
    1TCM    cl2 2995   2.877   4.981   2.944
    1TCM     h1 2996   3.025   4.959   3.131
    1TCM    cl3 2997   2.823   5.049   3.221
    1TCM     c1 2998   4.803   3.869   3.672
    1TCM    cl1 2999   4.767   3.841   3.844
    1TCM    cl2 3000   4.652   3.904   3.585
    1TCM     h1 3001   4.872   3.956   3.663
    1TCM    cl3 3002   4.879   3.724   3.603
    1TCM     c1 3003   1.699   0.919   3.125
    1TCM    cl1 3004   1.854   1.007   3.134
    1TCM    cl2 3005   1.567   1.027   3.172
    1TCM     h1 3006   1.683   0.883   3.021
    1TCM    cl3 3007   1.704   0.779   3.235
    1TCM     c1 3008   3.310   2.737   4.575
    1TCM    cl1 3009   3.466   2.814   4.540
    1TCM    cl2 3010   3.253   2.650   4.431
    1TCM     h1 3011   3.322   2.666   4.659
    1TCM    cl3 3012   3.191   2.862   4.620
    1TCM     c1 3013   2.351   4.263   0.615
    1TCM    cl1 3014   2.476   4.203   0.504
    1TCM    cl2 3015   2.422   4.286   0.777
    1TCM     h1 3016   2.312   4.360   0.578
    1TCM    cl3 3017   2.218   4.145   0.626
    1TCM     c1 3018   3.239   1.592   0.296
    1TCM    cl1 3019   3.355   1.685   0.199
    1TCM    cl2 3020   3.156   1.474   0.192
    1TCM     h1 3021   3.294   1.538   0.377
    1TCM    cl3 3022   3.120   1.702   0.368
    1TCM     c1 3023   2.383   1.751   4.033
    1TCM    cl1 3024   2.408   1.804   4.201
    1TCM    cl2 3025   2.221   1.801   3.980
    1TCM     h1 3026   2.459   1.798   3.968
    1TCM    cl3 3027   2.398   1.574   4.023
    1TCM     c1 3028   1.273   0.946   2.669
    1TCM    cl1 3029   1.422   0.999   2.588
    1TCM    cl2 3030   1.134   0.972   2.560
    1TCM     h1 3031   1.281   0.839   2.694
    1TCM    cl3 3032   1.250   1.041   2.818
    1TCM     c1 3033   2.823   4.327   5.121
    1TCM    cl1 3034   2.777   4.265   5.281
    1TCM    cl2 3035   2.677   4.362   5.026
    1TCM     h1 3036   2.883   4.420   5.133
    1TCM    cl3 3037   2.921   4.205   5.036
    1TCM     c1 3038   2.312   4.482   1.620
    1TCM    cl1 3039   2.145   4.535   1.649
    1TCM    cl2 3040   2.375   4.562   1.474
    1TCM     h1 3041   2.375   4.510   1.707
    1TCM    cl3 3042   2.316   4.306   1.597
    1TCM     c1 3043   0.968   2.567   5.141
    1TCM    cl1 3044   0.819   2.531   5.231
    1TCM    cl2 3045   0.966   2.482   4.986
    1TCM     h1 3046   0.975   2.677   5.123
    1TCM    cl3 3047   1.109   2.514   5.236
    1TCM     c1 3048   1.704   1.195   1.839
    1TCM    cl1 3049   1.631   1.301   1.716
    1TCM    cl2 3050   1.578   1.092   1.911
    1TCM     h1 3051   1.781   1.131   1.792
    1TCM    cl3 3052   1.779   1.295   1.966
    1TCM     c1 3053   0.520   3.622   3.641
    1TCM    cl1 3054   0.394   3.748   3.638
    1TCM    cl2 3055   0.587   3.601   3.478
    1TCM     h1 3056   0.601   3.652   3.711
    1TCM    cl3 3057   0.448   3.468   3.696
    1TCM     c1 3058   2.330   0.077   1.420
    1TCM    cl1 3059   2.323   0.254   1.397
    1TCM    cl2 3060   2.487   0.017   1.361
    1TCM     h1 3061   2.319   0.053   1.528
    1TCM    cl3 3062   2.199   0.001   1.328
    1TCM     c1 3063   0.259   0.163   3.829
    1TCM    cl1 3064   0.367   0.070   3.934
    1TCM    cl2 3065   0.243   0.080   3.672
    1TCM     h1 3066   0.159   0.171   3.876
    1TCM    cl3 3067   0.325   0.326   3.803
    1TCM     c1 3068   4.260   5.201   3.305
    1TCM    cl1 3069   4.381   5.330   3.323
    1TCM    cl2 3070   4.304   5.063   3.409
    1TCM     h1 3071   4.160   5.240   3.336
    1TCM    cl3 3072   4.254   5.148   3.136
    1TCM     c1 3073   3.259   4.033   1.533
    1TCM    cl1 3074   3.137   4.161   1.524
    1TCM    cl2 3075   3.344   4.043   1.689
    1TCM     h1 3076   3.210   3.934   1.524
    1TCM    cl3 3077   3.376   4.053   1.401
    1TCM     c1 3078   4.666   4.319   3.880
    1TCM    cl1 3079   4.574   4.209   3.775
    1TCM    cl2 3080   4.569   4.360   4.023
    1TCM     h1 3081   4.760   4.270   3.912
    1TCM    cl3 3082   4.704   4.468   3.790
    1TCM     c1 3083   1.017   3.743   0.437
    1TCM    cl1 3084   0.947   3.736   0.600
    1TCM    cl2 3085   1.194   3.728   0.448
    1TCM     h1 3086   0.977   3.659   0.376
    1TCM    cl3 3087   0.975   3.898   0.361
    1TCM     c1 3088   5.095   2.343   5.099
    1TCM    cl1 3089   5.180   2.228   5.204
    1TCM    cl2 3090   5.106   2.289   4.930
    1TCM     h1 3091   4.988   2.348   5.129
    1TCM    cl3 3092   5.169   2.504   5.115
    1TCM     c1 3093   1.056   5.183   2.459
    1TCM    cl1 3094   0.913   5.125   2.548
    1TCM    cl2 3095   1.010   5.220   2.291
    1TCM     h1 3096   1.095   5.274   2.508
    1TCM    cl3 3097   1.181   5.056   2.459
    1TCM     c1 3098   1.013   1.240   4.188
    1TCM    cl1 3099   0.884   1.176   4.084
    1TCM    cl2 3100   0.997   1.171   4.352
    1TCM     h1 3101   1.112   1.213   4.146
    1TCM    cl3 3102   0.999   1.417   4.197
    1TCM     c1 3103   3.904   2.703   4.229
    1TCM    cl1 3104   4.050   2.648   4.144
    1TCM    cl2 3105   3.770   2.590   4.196
    1TCM     h1 3106   3.924   2.707   4.338
    1TCM    cl3 3107   3.860   2.865   4.172
    1TCM     c1 3108   2.294   3.488   5.205
    1TCM    cl1 3109   2.305   3.448   5.032
    1TCM    cl2 3110   2.274   3.664   5.225
    1TCM     h1 3111   2.207   3.436   5.250
    1TCM    cl3 3112   2.443   3.436   5.288
    1TCM     c1 3113   1.288   0.596   0.983
    1TCM    cl1 3114   1.305   0.521   0.823
    1TCM    cl2 3115   1.275   0.470   1.107
    1TCM     h1 3116   1.378   0.659   1.004
    1TCM    cl3 3117   1.143   0.698   0.985
    1TCM     c1 3118   0.394   3.669   0.579
    1TCM    cl1 3119   0.504   3.689   0.441
    1TCM    cl2 3120   0.401   3.500   0.635
    1TCM     h1 3121   0.425   3.736   0.661
    1TCM    cl3 3122   0.228   3.708   0.528
    1TCM     c1 3123   3.182   1.696   3.459
    1TCM    cl1 3124   3.152   1.813   3.329
    1TCM    cl2 3125   3.140   1.532   3.402
    1TCM     h1 3126   3.289   1.698   3.488
    1TCM    cl3 3127   3.081   1.736   3.600
    1TCM     c1 3128   2.838   4.791   0.304
    1TCM    cl1 3129   2.998   4.763   0.378
    1TCM    cl2 3130   2.849   4.928   0.191
    1TCM     h1 3131   2.807   4.700   0.248
    1TCM    cl3 3132   2.719   4.827   0.431
    1TCM     c1 3133   3.697   3.505   3.401
    1TCM    cl1 3134   3.716   3.673   3.346
    1TCM    cl2 3135   3.525   3.462   3.401
    1TCM     h1 3136   3.752   3.437   3.332
    1TCM    cl3 3137   3.763   3.488   3.565
    1TCM     c1 3138   2.964   4.004   0.926
    1TCM    cl1 3139   2.822   4.069   0.841
    1TCM    cl2 3140   2.994   3.837   0.873
    1TCM     h1 3141   3.053   4.067   0.902
    1TCM    cl3 3142   2.936   4.006   1.101
    1TCM     c1 3143   4.447   4.335   1.162
    1TCM    cl1 3144   4.447   4.326   1.339
    1TCM    cl2 3145   4.516   4.186   1.095
    1TCM     h1 3146   4.343   4.347   1.125
    1TCM    cl3 3147   4.545   4.474   1.110
    1TCM     c1 3148   4.596   3.035   0.212
    1TCM    cl1 3149   4.487   2.894   0.223
    1TCM    cl2 3150   4.504   3.177   0.157
    1TCM     h1 3151   4.640   3.055   0.311
    1TCM    cl3 3152   4.726   3.000   0.095
    1TCM     c1 3153   2.917   1.039   2.274
    1TCM    cl1 3154   2.908   1.175   2.161
    1TCM    cl2 3155   2.816   1.073   2.416
    1TCM     h1 3156   2.880   0.947   2.224
    1TCM    cl3 3157   3.085   1.015   2.326
    1TCM     c1 3158   3.433   4.614   2.996
    1TCM    cl1 3159   3.532   4.641   3.141
    1TCM    cl2 3160   3.448   4.444   2.945
    1TCM     h1 3161   3.327   4.636   3.019
    1TCM    cl3 3162   3.490   4.720   2.865
    1TCM     c1 3163   3.772   3.519   3.969
    1TCM    cl1 3164   3.894   3.541   4.096
    1TCM    cl2 3165   3.836   3.577   3.814
    1TCM     h1 3166   3.747   3.411   3.960
    1TCM    cl3 3167   3.625   3.610   4.010
    1TCM     c1 3168   4.179   0.308   0.208
    1TCM    cl1 3169   4.264   0.383   0.345
    1TCM    cl2 3170   4.255   0.361   0.056
    1TCM     h1 3171   4.186   0.198   0.216
    1TCM    cl3 3172   4.009   0.357   0.210
    1TCM     c1 3173   3.275   3.169   3.480
    1TCM    cl1 3174   3.102   3.183   3.518
    1TCM    cl2 3175   3.296   3.149   3.304
    1TCM     h1 3176   3.328   3.260   3.514
    1TCM    cl3 3177   3.342   3.027   3.563
    1TCM     c1 3178   0.683   2.572   1.908
    1TCM    cl1 3179   0.518   2.610   1.964
    1TCM    cl2 3180   0.794   2.574   2.047
    1TCM     h1 3181   0.684   2.471   1.862
    1TCM    cl3 3182   0.735   2.693   1.788
    1TCM     c1 3183   5.196   4.308   3.020
    1TCM    cl1 3184   5.318   4.302   2.891
    1TCM    cl2 3185   5.278   4.306   3.178
    1TCM     h1 3186   5.137   4.401   3.011
    1TCM    cl3 3187   5.089   4.167   3.007
    1TCM     c1 3188   2.315   3.483   1.560
    1TCM    cl1 3189   2.421   3.586   1.460
    1TCM    cl2 3190   2.413   3.367   1.651
    1TCM     h1 3191   2.258   3.547   1.630
    1TCM    cl3 3192   2.201   3.395   1.454
    1TCM     c1 3193   5.100   1.372   2.424
    1TCM    cl1 3194   4.963   1.307   2.516
    1TCM    cl2 3195   5.245   1.274   2.456
    1TCM     h1 3196   5.076   1.369   2.315
    1TCM    cl3 3197   5.130   1.540   2.473
    1TCM     c1 3198   4.198   3.118   4.023
    1TCM    cl1 3199   4.222   3.246   3.901
    1TCM    cl2 3200   4.272   2.967   3.966
    1TCM     h1 3201   4.245   3.148   4.118
    1TCM    cl3 3202   4.023   3.093   4.048
    1TCM     c1 3203   1.599   3.514   3.452
    1TCM    cl1 3204   1.500   3.472   3.593
    1TCM    cl2 3205   1.763   3.556   3.505
    1TCM     h1 3206   1.603   3.428   3.382
    1TCM    cl3 3207   1.526   3.654   3.368
    1TCM     c1 3208   2.552   3.252   2.612
    1TCM    cl1 3209   2.434   3.149   2.696
    1TCM    cl2 3210   2.598   3.176   2.458
    1TCM     h1 3211   2.507   3.352   2.592
    1TCM    cl3 3212   2.696   3.272   2.714
    1TCM     c1 3213   1.918   2.883   0.154
    1TCM    cl1 3214   1.889   2.711   0.190
    1TCM    cl2 3215   1.807   2.935   0.024
    1TCM     h1 3216   1.899   2.943   0.245
    1TCM    cl3 3217   2.086   2.905   0.100
    1TCM     c1 3218   4.823   0.817   2.887
    1TCM    cl1 3219   4.697   0.786   2.766
    1TCM    cl2 3220   4.779   0.958   2.985
    1TCM     h1 3221   4.833   0.728   2.953
    1TCM    cl3 3222   4.978   0.847   2.805
    1TCM     c1 3223   4.878   2.075   1.273
    1TCM    cl1 3224   4.866   1.898   1.284
    1TCM    cl2 3225   4.930   2.121   1.109
    1TCM     h1 3226   4.780   2.121   1.294
    1TCM    cl3 3227   4.998   2.133   1.391
    1TCM     c1 3228   3.164   4.046   0.426
    1TCM    cl1 3229   3.141   3.981   0.590
    1TCM    cl2 3230   3.209   3.915   0.315
    1TCM     h1 3231   3.070   4.093   0.391
    1TCM    cl3 3232   3.294   4.168   0.429
    1TCM     c1 3233   2.745   4.071   3.673
    1TCM    cl1 3234   2.619   3.992   3.574
    1TCM    cl2 3235   2.712   4.042   3.845
    1TCM     h1 3236   2.844   4.029   3.646
    1TCM    cl3 3237   2.745   4.246   3.641
    1TCM     c1 3238   2.011   4.565   2.194
    1TCM    cl1 3239   1.997   4.602   2.367
    1TCM    cl2 3240   2.182   4.567   2.147
    1TCM     h1 3241   1.968   4.464   2.174
    1TCM    cl3 3242   1.922   4.687   2.099
    1TCM     c1 3243   1.628   1.786   0.750
    1TCM    cl1 3244   1.774   1.818   0.655
    1TCM    cl2 3245   1.541   1.648   0.680
    1TCM     h1 3246   1.656   1.763   0.855
    1TCM    cl3 3247   1.523   1.930   0.748
    1TCM     c1 3248   0.234   2.844   4.356
    1TCM    cl1 3249   0.391   2.908   4.409
    1TCM    cl2 3250   0.189   2.706   4.459
    1TCM     h1 3251   0.157   2.923   4.365
    1TCM    cl3 3252   0.245   2.790   4.187
    1TCM     c1 3253   0.501   1.592   4.696
    1TCM    cl1 3254   0.539   1.475   4.825
    1TCM    cl2 3255   0.481   1.506   4.542
    1TCM     h1 3256   0.407   1.645   4.721
    1TCM    cl3 3257   0.633   1.710   4.682
    1TCM     c1 3258   4.919   2.995   0.703
    1TCM    cl1 3259   4.816   2.868   0.632
    1TCM    cl2 3260   4.942   2.962   0.877
    1TCM     h1 3261   5.017   2.996   0.652
    1TCM    cl3 3262   4.840   3.153   0.683
    1TCM     c1 3263   2.193   4.239   4.823
    1TCM    cl1 3264   2.023   4.284   4.799
    1TCM    cl2 3265   2.295   4.384   4.811
    1TCM     h1 3266   2.205   4.193   4.924
    1TCM    cl3 3267   2.241   4.122   4.699
    1TCM     c1 3268   3.088   3.497   3.244
    1TCM    cl1 3269   2.930   3.417   3.235
    1TCM    cl2 3270   3.183   3.457   3.099
    1TCM     h1 3271   3.074   3.607   3.250
    1TCM    cl3 3272   3.175   3.440   3.388
    1TCM     c1 3273   3.026   4.372   0.380
    1TCM    cl1 3274   3.059   4.281   0.230
    1TCM    cl2 3275   3.101   4.288   0.517
    1TCM     h1 3276   3.068   4.474   0.371
    1TCM    cl3 3277   2.850   4.382   0.406
    1TCM     c1 3278   3.412   4.470   0.451
    1TCM    cl1 3279   3.485   4.631   0.470
    1TCM    cl2 3280   3.392   4.396   0.612
    1TCM     h1 3281   3.313   4.480   0.403
    1TCM    cl3 3282   3.517   4.368   0.351
    1TCM     c1 3283   2.391   3.808   1.040
    1TCM    cl1 3284   2.462   3.816   0.877
    1TCM    cl2 3285   2.487   3.906   1.152
    1TCM     h1 3286   2.287   3.847   1.037
    1TCM    cl3 3287   2.389   3.639   1.096
    1TCM     c1 3288   4.107   3.901   3.714
    1TCM    cl1 3289   3.953   3.864   3.634
    1TCM    cl2 3290   4.076   3.954   3.881
    1TCM     h1 3291   4.171   3.811   3.716
    1TCM    cl3 3292   4.190   4.031   3.626
    1TCM     c1 3293   4.208   0.351   3.543
    1TCM    cl1 3294   4.236   0.212   3.650
    1TCM    cl2 3295   4.055   0.430   3.587
    1TCM     h1 3296   4.291   0.424   3.553
    1TCM    cl3 3297   4.199   0.295   3.374
    1TCM     c1 3298   2.442   2.662   3.449
    1TCM    cl1 3299   2.388   2.797   3.346
    1TCM    cl2 3300   2.386   2.689   3.616
    1TCM     h1 3301   2.399   2.567   3.411
    1TCM    cl3 3302   2.619   2.653   3.447
    1TCM     c1 3303   5.020   4.579   2.606
    1TCM    cl1 3304   4.989   4.698   2.735
    1TCM    cl2 3305   5.004   4.415   2.672
    1TCM     h1 3306   4.946   4.593   2.524
    1TCM    cl3 3307   5.184   4.602   2.542
    1TCM     c1 3308   2.384   0.840   2.065
    1TCM    cl1 3309   2.291   0.726   1.965
    1TCM    cl2 3310   2.389   0.781   2.233
    1TCM     h1 3311   2.488   0.847   2.025
    1TCM    cl3 3312   2.307   1.000   2.060
    1TCM     c1 3313   0.277   2.363   3.077
    1TCM    cl1 3314   0.160   2.346   2.944
    1TCM    cl2 3315   0.320   2.202   3.140
    1TCM     h1 3316   0.368   2.414   3.040
    1TCM    cl3 3317   0.205   2.460   3.208
    1TCM     c1 3318   1.098   4.054   1.113
    1TCM    cl1 3319   1.101   4.054   0.935
    1TCM    cl2 3320   1.232   3.953   1.174
    1TCM     h1 3321   1.110   4.157   1.150
    1TCM    cl3 3322   0.943   3.988   1.169
    1TCM     c1 3323   2.663   3.014   0.717
    1TCM    cl1 3324   2.702   3.082   0.557
    1TCM    cl2 3325   2.579   3.137   0.814
    1TCM     h1 3326   2.597   2.926   0.704
    1TCM    cl3 3327   2.813   2.966   0.799
    1TCM     c1 3328   0.641   0.660   0.947
    1TCM    cl1 3329   0.750   0.555   0.854
    1TCM    cl2 3330   0.539   0.561   1.053
    1TCM     h1 3331   0.701   0.730   1.009
    1TCM    cl3 3332   0.538   0.752   0.835
    1TCM     c1 3333   5.075   2.179   3.241
    1TCM    cl1 3334   4.995   2.302   3.341
    1TCM    cl2 3335   5.088   2.238   3.074
    1TCM     h1 3336   5.176   2.159   3.282
    1TCM    cl3 3337   4.979   2.029   3.243
    1TCM     c1 3338   2.500   1.011   3.491
    1TCM    cl1 3339   2.628   1.021   3.367
    1TCM    cl2 3340   2.561   1.078   3.644
    1TCM     h1 3341   2.412   1.070   3.457
    1TCM    cl3 3342   2.453   0.842   3.515
    1TCM     c1 3343   5.051   1.030   2.248
    1TCM    cl1 3344   5.179   1.152   2.234
    1TCM    cl2 3345   5.103   0.879   2.170
    1TCM     h1 3346   5.030   1.011   2.356
    1TCM    cl3 3347   4.903   1.090   2.169
    1TCM     c1 3348   3.972   0.489   4.529
    1TCM    cl1 3349   3.830   0.444   4.626
    1TCM    cl2 3350   4.000   0.664   4.544
    1TCM     h1 3351   4.061   0.434   4.566
    1TCM    cl3 3352   3.943   0.448   4.359
    1TCM     c1 3353   5.107   0.884   5.065
    1TCM    cl1 3354   5.202   0.802   4.939
    1TCM    cl2 3355   5.185   0.860   5.223
    1TCM     h1 3356   5.102   0.993   5.043
    1TCM    cl3 3357   4.943   0.816   5.070
    1TCM     c1 3358   2.902   0.629   1.533
    1TCM    cl1 3359   3.057   0.717   1.524
    1TCM    cl2 3360   2.800   0.702   1.658
    1TCM     h1 3361   2.851   0.635   1.435
    1TCM    cl3 3362   2.933   0.458   1.573
    1TCM     c1 3363   2.122   1.388   3.823
    1TCM    cl1 3364   2.133   1.402   4.000
    1TCM    cl2 3365   2.136   1.217   3.777
    1TCM     h1 3366   2.024   1.428   3.789
    1TCM    cl3 3367   2.254   1.480   3.748
   5.54000   5.54000   5.54000
