;
;   File pop_tetramer_system_bespoke_hmr.top  was generated
;   By user: tlf3 (59384)
;   On host:bb001.eth.hpc.nist.gov 
;   At date:Mon. December  1 14:15:23 2025 
;
;   This is a standalone topology file
;
;   Created by:
;   ParmEd:       hmr_topology, VERSION4.3.0 
;   Executable:   hmr_topology
;   Library dir:  /home/tlf3/miniforge3/envs/terphenyl/share/gromacs/top
;   Command line:
;     hmr_topology -t pop_tetramer_system_bespoke.top -o pop_tetramer_system_bespoke_hmr.top --hmr_ratio 3
;

[ defaults ]
; nbfunc        comb-rule       gen-pairs       fudgeLJ fudgeQQ
1               2               yes             0.5          0.833333    

[ atomtypes ]
; name    at.num    mass    charge ptype  sigma      epsilon
em_pop_tetramer_0        6  12.010780  0.00000000  A     0.34806469     0.36350306
em_pop_tetramer_1        8  15.999430  0.00000000  A     0.30398122     0.87950233
em_pop_tetramer_2        6  12.010780  0.00000000  A     0.34806469     0.36350306
em_pop_tetramer_3        6  12.010780  0.00000000  A     0.34806469     0.36350306
em_pop_tetramer_4        6  12.010780  0.00000000  A     0.34806469     0.36350306
em_pop_tetramer_5        6  12.010780  0.00000000  A     0.34806469     0.36350306
em_pop_tetramer_6        6  12.010780  0.00000000  A     0.34806469     0.36350306
em_pop_tetramer_7        6  12.010780  0.00000000  A     0.34806469     0.36350306
em_pop_tetramer_8        6  12.010780  0.00000000  A     0.34806469     0.36350306
em_pop_tetramer_9        6  12.010780  0.00000000  A     0.34806469     0.36350306
em_pop_tetramer_10        8  15.999430  0.00000000  A     0.30251065     0.70485815
em_pop_tetramer_11        6  12.010780  0.00000000  A     0.33996695      0.4577296
em_pop_tetramer_12        6  12.010780  0.00000000  A     0.34806469     0.36350306
em_pop_tetramer_13        6  12.010780  0.00000000  A     0.34806469     0.36350306
em_pop_tetramer_14        6  12.010780  0.00000000  A     0.34806469     0.36350306
em_pop_tetramer_15        6  12.010780  0.00000000  A     0.34806469     0.36350306
em_pop_tetramer_16        6  12.010780  0.00000000  A     0.34806469     0.36350306
em_pop_tetramer_17        6  12.010780  0.00000000  A     0.34806469     0.36350306
em_pop_tetramer_18        6  12.010780  0.00000000  A     0.34806469     0.36350306
em_pop_tetramer_19        6  12.010780  0.00000000  A     0.34806469     0.36350306
em_pop_tetramer_20        6  12.010780  0.00000000  A     0.33996695      0.4577296
em_pop_tetramer_21        7  14.006720  0.00000000  A      0.3206876      0.7016213
em_pop_tetramer_22        6  12.010780  0.00000000  A     0.33996695      0.4577296
em_pop_tetramer_23        6  12.010780  0.00000000  A     0.34806469     0.36350306
em_pop_tetramer_24        6  12.010780  0.00000000  A     0.34806469     0.36350306
em_pop_tetramer_25        1   1.007947  0.00000000  A     0.25725815     0.06531786
em_pop_tetramer_26        1   1.007947  0.00000000  A     0.25725815     0.06531786
em_pop_tetramer_27        1   1.007947  0.00000000  A     0.25725815     0.06531786
em_pop_tetramer_28        1   1.007947  0.00000000  A     0.25832257    0.068656285
em_pop_tetramer_29        1   1.007947  0.00000000  A     0.25832257    0.068656285
em_pop_tetramer_30        1   1.007947  0.00000000  A     0.25832257    0.068656285
em_pop_tetramer_31        1   1.007947  0.00000000  A     0.25725815     0.06531786
em_pop_tetramer_32        1   1.007947  0.00000000  A     0.25725815     0.06531786
em_pop_tetramer_33        1   1.007947  0.00000000  A     0.25725815     0.06531786
em_pop_tetramer_34        1   1.007947  0.00000000  A     0.25725815     0.06531786
em_pop_tetramer_35        1   1.007947  0.00000000  A     0.25725815     0.06531786
em_pop_tetramer_36        1   1.007947  0.00000000  A     0.25725815     0.06531786
em_pop_tetramer_37        1   1.007947  0.00000000  A     0.25832257    0.068656285
em_pop_tetramer_38        1   1.007947  0.00000000  A     0.11034277    0.058955969
em_pop_tetramer_39        1   1.007947  0.00000000  A     0.26445434    0.066021356
em_pop_tetramer_40        1   1.007947  0.00000000  A     0.26445434    0.066021356
em_pop_tetramer_41        1   1.007947  0.00000000  A     0.26445434    0.066021356
em_pop_tetramer_42        1   1.007947  0.00000000  A     0.25725815     0.06531786
em_pop_tetramer_43        1   1.007947  0.00000000  A     0.25725815     0.06531786
em_pop_tetramer_44        6  12.010780  0.00000000  A     0.34806469     0.36350306
em_pop_tetramer_45        8  15.999430  0.00000000  A     0.30398122     0.87950233
em_pop_tetramer_46        6  12.010780  0.00000000  A     0.34806469     0.36350306
em_pop_tetramer_47        6  12.010780  0.00000000  A     0.34806469     0.36350306
em_pop_tetramer_48        6  12.010780  0.00000000  A     0.34806469     0.36350306
em_pop_tetramer_49        6  12.010780  0.00000000  A     0.34806469     0.36350306
em_pop_tetramer_50        6  12.010780  0.00000000  A     0.34806469     0.36350306
em_pop_tetramer_51        6  12.010780  0.00000000  A     0.34806469     0.36350306
em_pop_tetramer_52        6  12.010780  0.00000000  A     0.34806469     0.36350306
em_pop_tetramer_53        6  12.010780  0.00000000  A     0.34806469     0.36350306
em_pop_tetramer_54        8  15.999430  0.00000000  A     0.30251065     0.70485815
em_pop_tetramer_55        6  12.010780  0.00000000  A     0.33996695      0.4577296
em_pop_tetramer_56        6  12.010780  0.00000000  A     0.34806469     0.36350306
em_pop_tetramer_57        6  12.010780  0.00000000  A     0.34806469     0.36350306
em_pop_tetramer_58        6  12.010780  0.00000000  A     0.34806469     0.36350306
em_pop_tetramer_59        6  12.010780  0.00000000  A     0.34806469     0.36350306
em_pop_tetramer_60        6  12.010780  0.00000000  A     0.34806469     0.36350306
em_pop_tetramer_61        6  12.010780  0.00000000  A     0.34806469     0.36350306
em_pop_tetramer_62        6  12.010780  0.00000000  A     0.34806469     0.36350306
em_pop_tetramer_63        6  12.010780  0.00000000  A     0.34806469     0.36350306
em_pop_tetramer_64        6  12.010780  0.00000000  A     0.33996695      0.4577296
em_pop_tetramer_65        7  14.006720  0.00000000  A      0.3206876      0.7016213
em_pop_tetramer_66        6  12.010780  0.00000000  A     0.33996695      0.4577296
em_pop_tetramer_67        6  12.010780  0.00000000  A     0.34806469     0.36350306
em_pop_tetramer_68        6  12.010780  0.00000000  A     0.34806469     0.36350306
em_pop_tetramer_69        1   1.007947  0.00000000  A     0.25725815     0.06531786
em_pop_tetramer_70        1   1.007947  0.00000000  A     0.25725815     0.06531786
em_pop_tetramer_71        1   1.007947  0.00000000  A     0.25725815     0.06531786
em_pop_tetramer_72        1   1.007947  0.00000000  A     0.25832257    0.068656285
em_pop_tetramer_73        1   1.007947  0.00000000  A     0.25832257    0.068656285
em_pop_tetramer_74        1   1.007947  0.00000000  A     0.25832257    0.068656285
em_pop_tetramer_75        1   1.007947  0.00000000  A     0.25725815     0.06531786
em_pop_tetramer_76        1   1.007947  0.00000000  A     0.25725815     0.06531786
em_pop_tetramer_77        1   1.007947  0.00000000  A     0.25725815     0.06531786
em_pop_tetramer_78        1   1.007947  0.00000000  A     0.25725815     0.06531786
em_pop_tetramer_79        1   1.007947  0.00000000  A     0.25725815     0.06531786
em_pop_tetramer_80        1   1.007947  0.00000000  A     0.25725815     0.06531786
em_pop_tetramer_81        1   1.007947  0.00000000  A     0.25832257    0.068656285
em_pop_tetramer_82        1   1.007947  0.00000000  A     0.11034277    0.058955969
em_pop_tetramer_83        1   1.007947  0.00000000  A     0.26445434    0.066021356
em_pop_tetramer_84        1   1.007947  0.00000000  A     0.26445434    0.066021356
em_pop_tetramer_85        1   1.007947  0.00000000  A     0.26445434    0.066021356
em_pop_tetramer_86        1   1.007947  0.00000000  A     0.25725815     0.06531786
em_pop_tetramer_87        1   1.007947  0.00000000  A     0.25725815     0.06531786
em_pop_tetramer_88        6  12.010780  0.00000000  A     0.34806469     0.36350306
em_pop_tetramer_89        8  15.999430  0.00000000  A     0.30398122     0.87950233
em_pop_tetramer_90        6  12.010780  0.00000000  A     0.34806469     0.36350306
em_pop_tetramer_91        6  12.010780  0.00000000  A     0.34806469     0.36350306
em_pop_tetramer_92        6  12.010780  0.00000000  A     0.34806469     0.36350306
em_pop_tetramer_93        6  12.010780  0.00000000  A     0.34806469     0.36350306
em_pop_tetramer_94        6  12.010780  0.00000000  A     0.34806469     0.36350306
em_pop_tetramer_95        6  12.010780  0.00000000  A     0.34806469     0.36350306
em_pop_tetramer_96        6  12.010780  0.00000000  A     0.34806469     0.36350306
em_pop_tetramer_97        6  12.010780  0.00000000  A     0.34806469     0.36350306
em_pop_tetramer_98        8  15.999430  0.00000000  A     0.30251065     0.70485815
em_pop_tetramer_99        6  12.010780  0.00000000  A     0.33996695      0.4577296
em_pop_tetramer_100        6  12.010780  0.00000000  A     0.34806469     0.36350306
em_pop_tetramer_101        6  12.010780  0.00000000  A     0.34806469     0.36350306
em_pop_tetramer_102        6  12.010780  0.00000000  A     0.34806469     0.36350306
em_pop_tetramer_103        6  12.010780  0.00000000  A     0.34806469     0.36350306
em_pop_tetramer_104        6  12.010780  0.00000000  A     0.34806469     0.36350306
em_pop_tetramer_105        6  12.010780  0.00000000  A     0.34806469     0.36350306
em_pop_tetramer_106        6  12.010780  0.00000000  A     0.34806469     0.36350306
em_pop_tetramer_107        6  12.010780  0.00000000  A     0.34806469     0.36350306
em_pop_tetramer_108        6  12.010780  0.00000000  A     0.33996695      0.4577296
em_pop_tetramer_109        7  14.006720  0.00000000  A      0.3206876      0.7016213
em_pop_tetramer_110        6  12.010780  0.00000000  A     0.33996695      0.4577296
em_pop_tetramer_111        6  12.010780  0.00000000  A     0.34806469     0.36350306
em_pop_tetramer_112        6  12.010780  0.00000000  A     0.34806469     0.36350306
em_pop_tetramer_113        1   1.007947  0.00000000  A     0.25725815     0.06531786
em_pop_tetramer_114        1   1.007947  0.00000000  A     0.25725815     0.06531786
em_pop_tetramer_115        1   1.007947  0.00000000  A     0.25725815     0.06531786
em_pop_tetramer_116        1   1.007947  0.00000000  A     0.25832257    0.068656285
em_pop_tetramer_117        1   1.007947  0.00000000  A     0.25832257    0.068656285
em_pop_tetramer_118        1   1.007947  0.00000000  A     0.25832257    0.068656285
em_pop_tetramer_119        1   1.007947  0.00000000  A     0.25725815     0.06531786
em_pop_tetramer_120        1   1.007947  0.00000000  A     0.25725815     0.06531786
em_pop_tetramer_121        1   1.007947  0.00000000  A     0.25725815     0.06531786
em_pop_tetramer_122        1   1.007947  0.00000000  A     0.25725815     0.06531786
em_pop_tetramer_123        1   1.007947  0.00000000  A     0.25725815     0.06531786
em_pop_tetramer_124        1   1.007947  0.00000000  A     0.25725815     0.06531786
em_pop_tetramer_125        1   1.007947  0.00000000  A     0.25832257    0.068656285
em_pop_tetramer_126        1   1.007947  0.00000000  A     0.11034277    0.058955969
em_pop_tetramer_127        1   1.007947  0.00000000  A     0.26445434    0.066021356
em_pop_tetramer_128        1   1.007947  0.00000000  A     0.26445434    0.066021356
em_pop_tetramer_129        1   1.007947  0.00000000  A     0.26445434    0.066021356
em_pop_tetramer_130        1   1.007947  0.00000000  A     0.25725815     0.06531786
em_pop_tetramer_131        1   1.007947  0.00000000  A     0.25725815     0.06531786
em_pop_tetramer_132        6  12.010780  0.00000000  A     0.34806469     0.36350306
em_pop_tetramer_133        8  15.999430  0.00000000  A     0.30398122     0.87950233
em_pop_tetramer_134        6  12.010780  0.00000000  A     0.34806469     0.36350306
em_pop_tetramer_135        6  12.010780  0.00000000  A     0.34806469     0.36350306
em_pop_tetramer_136        6  12.010780  0.00000000  A     0.34806469     0.36350306
em_pop_tetramer_137        6  12.010780  0.00000000  A     0.34806469     0.36350306
em_pop_tetramer_138        6  12.010780  0.00000000  A     0.34806469     0.36350306
em_pop_tetramer_139        6  12.010780  0.00000000  A     0.34806469     0.36350306
em_pop_tetramer_140        6  12.010780  0.00000000  A     0.34806469     0.36350306
em_pop_tetramer_141        6  12.010780  0.00000000  A     0.34806469     0.36350306
em_pop_tetramer_142        8  15.999430  0.00000000  A     0.30251065     0.70485815
em_pop_tetramer_143        6  12.010780  0.00000000  A     0.33996695      0.4577296
em_pop_tetramer_144        6  12.010780  0.00000000  A     0.34806469     0.36350306
em_pop_tetramer_145        6  12.010780  0.00000000  A     0.34806469     0.36350306
em_pop_tetramer_146        6  12.010780  0.00000000  A     0.34806469     0.36350306
em_pop_tetramer_147        6  12.010780  0.00000000  A     0.34806469     0.36350306
em_pop_tetramer_148        6  12.010780  0.00000000  A     0.34806469     0.36350306
em_pop_tetramer_149        6  12.010780  0.00000000  A     0.34806469     0.36350306
em_pop_tetramer_150        6  12.010780  0.00000000  A     0.34806469     0.36350306
em_pop_tetramer_151        6  12.010780  0.00000000  A     0.34806469     0.36350306
em_pop_tetramer_152        6  12.010780  0.00000000  A     0.33996695      0.4577296
em_pop_tetramer_153        7  14.006720  0.00000000  A      0.3206876      0.7016213
em_pop_tetramer_154        6  12.010780  0.00000000  A     0.33996695      0.4577296
em_pop_tetramer_155        6  12.010780  0.00000000  A     0.34806469     0.36350306
em_pop_tetramer_156        6  12.010780  0.00000000  A     0.34806469     0.36350306
em_pop_tetramer_157        1   1.007947  0.00000000  A     0.25725815     0.06531786
em_pop_tetramer_158        1   1.007947  0.00000000  A     0.25725815     0.06531786
em_pop_tetramer_159        1   1.007947  0.00000000  A     0.25725815     0.06531786
em_pop_tetramer_160        1   1.007947  0.00000000  A     0.25832257    0.068656285
em_pop_tetramer_161        1   1.007947  0.00000000  A     0.25832257    0.068656285
em_pop_tetramer_162        1   1.007947  0.00000000  A     0.25832257    0.068656285
em_pop_tetramer_163        1   1.007947  0.00000000  A     0.25725815     0.06531786
em_pop_tetramer_164        1   1.007947  0.00000000  A     0.25725815     0.06531786
em_pop_tetramer_165        1   1.007947  0.00000000  A     0.25725815     0.06531786
em_pop_tetramer_166        1   1.007947  0.00000000  A     0.25725815     0.06531786
em_pop_tetramer_167        1   1.007947  0.00000000  A     0.25725815     0.06531786
em_pop_tetramer_168        1   1.007947  0.00000000  A     0.25725815     0.06531786
em_pop_tetramer_169        1   1.007947  0.00000000  A     0.25832257    0.068656285
em_pop_tetramer_170        1   1.007947  0.00000000  A     0.11034277    0.058955969
em_pop_tetramer_171        1   1.007947  0.00000000  A     0.26445434    0.066021356
em_pop_tetramer_172        1   1.007947  0.00000000  A     0.26445434    0.066021356
em_pop_tetramer_173        1   1.007947  0.00000000  A     0.26445434    0.066021356
em_pop_tetramer_174        1   1.007947  0.00000000  A     0.25725815     0.06531786
em_pop_tetramer_175        1   1.007947  0.00000000  A     0.25725815     0.06531786
em_pop_tetramer_176        6  12.010780  0.00000000  A     0.33996695      0.4577296
em_pop_tetramer_177        8  15.999430  0.00000000  A     0.30251065     0.70485815
em_pop_tetramer_178        1   1.007947  0.00000000  A     0.25832257    0.068656285
em_pop_tetramer_179        1   1.007947  0.00000000  A     0.25832257    0.068656285
em_pop_tetramer_180        1   1.007947  0.00000000  A     0.25832257    0.068656285
em_pop_tetramer_181        6  12.010780  0.00000000  A     0.33996695      0.4577296
em_pop_tetramer_182        6  12.010780  0.00000000  A     0.33996695      0.4577296
em_pop_tetramer_183        6  12.010780  0.00000000  A     0.33996695      0.4577296
em_pop_tetramer_184        6  12.010780  0.00000000  A     0.33996695      0.4577296
em_pop_tetramer_185        8  15.999430  0.00000000  A     0.30251065     0.70485815
em_pop_tetramer_186        6  12.010780  0.00000000  A     0.34806469     0.36350306
em_pop_tetramer_187        8  15.999430  0.00000000  A     0.30398122     0.87950233
em_pop_tetramer_188        1   1.007947  0.00000000  A     0.26445434    0.066021356
em_pop_tetramer_189        1   1.007947  0.00000000  A     0.26445434    0.066021356
em_pop_tetramer_190        1   1.007947  0.00000000  A     0.26445434    0.066021356
em_pop_tetramer_191        1   1.007947  0.00000000  A     0.26445434    0.066021356
em_pop_tetramer_192        1   1.007947  0.00000000  A     0.26445434    0.066021356
em_pop_tetramer_193        1   1.007947  0.00000000  A     0.26445434    0.066021356
em_pop_tetramer_194        1   1.007947  0.00000000  A     0.26445434    0.066021356
em_pop_tetramer_195        1   1.007947  0.00000000  A     0.26445434    0.066021356
em_pop_tetramer_196        1   1.007947  0.00000000  A     0.26445434    0.066021356
TCM_0          6  12.010780  0.00000000  A     0.33996695      0.4577296
TCM_1         17  35.453200  0.00000000  A     0.34709414        1.10876
TCM_2         17  35.453200  0.00000000  A     0.34709414        1.10876
TCM_3          1   1.007947  0.00000000  A     0.21149936      0.0656888
TCM_4         17  35.453200  0.00000000  A     0.34709414        1.10876


[ moleculetype ]
; Name            nrexcl
system1          3

[ atoms ]
;   nr       type  resnr residue  atom   cgnr    charge       mass  typeB    chargeB      massB
; residue    1 POP rtp POP q 0.1
    1 em_pop_tetramer_0      1    POP     C1      1 0.64547002  12.010780   ; qtot 0.645470
    2 em_pop_tetramer_1      1    POP     O2      2 -0.53805000  15.999430   ; qtot 0.107420
    3 em_pop_tetramer_2      1    POP     C3      3 -0.13680001  12.010780   ; qtot -0.029380
    4 em_pop_tetramer_3      1    POP     C4      4 -0.07735000   9.994886   ; qtot -0.106730
    5 em_pop_tetramer_4      1    POP     C5      5 -0.12985000   9.994886   ; qtot -0.236580
    6 em_pop_tetramer_5      1    POP     C6      6 -0.00004000  12.010780   ; qtot -0.236620
    7 em_pop_tetramer_6      1    POP     C7      7 -0.07989000  12.010780   ; qtot -0.316510
    8 em_pop_tetramer_7      1    POP     C8      8 0.00772000  12.010780   ; qtot -0.308790
    9 em_pop_tetramer_8      1    POP     C9      9 -0.14531000   9.994886   ; qtot -0.454100
   10 em_pop_tetramer_9      1    POP    C10     10 0.12926000  12.010780   ; qtot -0.324840
   11 em_pop_tetramer_10      1    POP    O11     11 -0.32464999  15.999430   ; qtot -0.649490
   12 em_pop_tetramer_11      1    POP    C12     12 0.11245000   5.963098   ; qtot -0.537040
   13 em_pop_tetramer_12      1    POP    C13     13 -0.20302001   9.994886   ; qtot -0.740060
   14 em_pop_tetramer_13      1    POP    C14     14 -0.08192000   9.994886   ; qtot -0.821980
   15 em_pop_tetramer_14      1    POP    C15     15 -0.03938000  12.010780   ; qtot -0.861360
   16 em_pop_tetramer_15      1    POP    C16     16 -0.10991000   9.994886   ; qtot -0.971270
   17 em_pop_tetramer_16      1    POP    C17     17 -0.12197000   9.994886   ; qtot -1.093240
   18 em_pop_tetramer_17      1    POP    C18     18 -0.09531000  12.010780   ; qtot -1.188550
   19 em_pop_tetramer_18      1    POP    C19     19 -0.12197000   9.994886   ; qtot -1.310520
   20 em_pop_tetramer_19      1    POP    C20     20 -0.10991000   9.994886   ; qtot -1.420430
   21 em_pop_tetramer_20      1    POP    C21     21 0.15423000   9.994886   ; qtot -1.266200
   22 em_pop_tetramer_21      1    POP    N22     22 -0.57032001  11.990826   ; qtot -1.836520
   23 em_pop_tetramer_22      1    POP    C23     23 -0.11153000   5.963098   ; qtot -1.948050
   24 em_pop_tetramer_23      1    POP    C24     24 -0.12985000   9.994886   ; qtot -2.077900
   25 em_pop_tetramer_24      1    POP    C25     25 -0.07735000   9.994886   ; qtot -2.155250
   26 em_pop_tetramer_25      1    POP    H26     26 0.15262000   3.023841   ; qtot -2.002630
   27 em_pop_tetramer_26      1    POP    H27     27 0.14360000   3.023841   ; qtot -1.859030
   28 em_pop_tetramer_27      1    POP    H28     28 0.15831000   3.023841   ; qtot -1.700720
   29 em_pop_tetramer_28      1    POP    H29     29 0.04634000   3.023841   ; qtot -1.654380
   30 em_pop_tetramer_29      1    POP    H30     30 0.04634000   3.023841   ; qtot -1.608040
   31 em_pop_tetramer_30      1    POP    H31     31 0.04634000   3.023841   ; qtot -1.561700
   32 em_pop_tetramer_31      1    POP    H32     32 0.14185999   3.023841   ; qtot -1.419840
   33 em_pop_tetramer_32      1    POP    H33     33 0.14077000   3.023841   ; qtot -1.279070
   34 em_pop_tetramer_33      1    POP    H34     34 0.13925999   3.023841   ; qtot -1.139810
   35 em_pop_tetramer_34      1    POP    H35     35 0.13561000   3.023841   ; qtot -1.004200
   36 em_pop_tetramer_35      1    POP    H36     36 0.13561000   3.023841   ; qtot -0.868590
   37 em_pop_tetramer_36      1    POP    H37     37 0.13925999   3.023841   ; qtot -0.729330
   38 em_pop_tetramer_37      1    POP    H38     38 0.08054000   3.023841   ; qtot -0.648790
   39 em_pop_tetramer_38      1    POP    H39     39 0.31220999   3.023841   ; qtot -0.336580
   40 em_pop_tetramer_39      1    POP    H40     40 0.04655000   3.023841   ; qtot -0.290030
   41 em_pop_tetramer_40      1    POP    H41     41 0.04655000   3.023841   ; qtot -0.243480
   42 em_pop_tetramer_41      1    POP    H42     42 0.04655000   3.023841   ; qtot -0.196930
   43 em_pop_tetramer_42      1    POP    H43     43 0.14360000   3.023841   ; qtot -0.053330
   44 em_pop_tetramer_43      1    POP    H44     44 0.15262000   3.023841   ; qtot 0.099290
; residue    2 POP rtp POP q -0.0
   45 em_pop_tetramer_44      2    POP    C45     45 0.67425001  12.010780   ; qtot 0.773540
   46 em_pop_tetramer_45      2    POP    O46     46 -0.61417001  15.999430   ; qtot 0.159370
   47 em_pop_tetramer_46      2    POP    C47     47 -0.14332999  12.010780   ; qtot 0.016040
   48 em_pop_tetramer_47      2    POP    C48     48 -0.09376000   9.994886   ; qtot -0.077720
   49 em_pop_tetramer_48      2    POP    C49     49 -0.12522000   9.994886   ; qtot -0.202940
   50 em_pop_tetramer_49      2    POP    C50     50 -0.00798000  12.010780   ; qtot -0.210920
   51 em_pop_tetramer_50      2    POP    C51     51 -0.07553000  12.010780   ; qtot -0.286450
   52 em_pop_tetramer_51      2    POP    C52     52 0.00729000  12.010780   ; qtot -0.279160
   53 em_pop_tetramer_52      2    POP    C53     53 -0.14438000   9.994886   ; qtot -0.423540
   54 em_pop_tetramer_53      2    POP    C54     54 0.12771000  12.010780   ; qtot -0.295830
   55 em_pop_tetramer_54      2    POP    O55     55 -0.32596999  15.999430   ; qtot -0.621800
   56 em_pop_tetramer_55      2    POP    C56     56 0.11340000   5.963098   ; qtot -0.508400
   57 em_pop_tetramer_56      2    POP    C57     57 -0.20127000   9.994886   ; qtot -0.709670
   58 em_pop_tetramer_57      2    POP    C58     58 -0.08265000   9.994886   ; qtot -0.792320
   59 em_pop_tetramer_58      2    POP    C59     59 -0.03826000  12.010780   ; qtot -0.830580
   60 em_pop_tetramer_59      2    POP    C60     60 -0.11003000   9.994886   ; qtot -0.940610
   61 em_pop_tetramer_60      2    POP    C61     61 -0.12240000   9.994886   ; qtot -1.063010
   62 em_pop_tetramer_61      2    POP    C62     62 -0.09593000  12.010780   ; qtot -1.158940
   63 em_pop_tetramer_62      2    POP    C63     63 -0.12240000   9.994886   ; qtot -1.281340
   64 em_pop_tetramer_63      2    POP    C64     64 -0.11003000   9.994886   ; qtot -1.391370
   65 em_pop_tetramer_64      2    POP    C65     65 0.15368000   9.994886   ; qtot -1.237690
   66 em_pop_tetramer_65      2    POP    N66     66 -0.57406002  11.990826   ; qtot -1.811750
   67 em_pop_tetramer_66      2    POP    C67     67 -0.10733000   5.963098   ; qtot -1.919080
   68 em_pop_tetramer_67      2    POP    C68     68 -0.12522000   9.994886   ; qtot -2.044300
   69 em_pop_tetramer_68      2    POP    C69     69 -0.09376000   9.994886   ; qtot -2.138060
   70 em_pop_tetramer_69      2    POP    H70     70 0.14790000   3.023841   ; qtot -1.990160
   71 em_pop_tetramer_70      2    POP    H71     71 0.14219999   3.023841   ; qtot -1.847960
   72 em_pop_tetramer_71      2    POP    H72     72 0.15812001   3.023841   ; qtot -1.689840
   73 em_pop_tetramer_72      2    POP    H73     73 0.04558000   3.023841   ; qtot -1.644260
   74 em_pop_tetramer_73      2    POP    H74     74 0.04558000   3.023841   ; qtot -1.598680
   75 em_pop_tetramer_74      2    POP    H75     75 0.04558000   3.023841   ; qtot -1.553100
   76 em_pop_tetramer_75      2    POP    H76     76 0.14123000   3.023841   ; qtot -1.411870
   77 em_pop_tetramer_76      2    POP    H77     77 0.13889000   3.023841   ; qtot -1.272980
   78 em_pop_tetramer_77      2    POP    H78     78 0.13931000   3.023841   ; qtot -1.133670
   79 em_pop_tetramer_78      2    POP    H79     79 0.13371000   3.023841   ; qtot -0.999960
   80 em_pop_tetramer_79      2    POP    H80     80 0.13371000   3.023841   ; qtot -0.866250
   81 em_pop_tetramer_80      2    POP    H81     81 0.13931000   3.023841   ; qtot -0.726940
   82 em_pop_tetramer_81      2    POP    H82     82 0.08521000   3.023841   ; qtot -0.641730
   83 em_pop_tetramer_82      2    POP    H83     83 0.31112000   3.023841   ; qtot -0.330610
   84 em_pop_tetramer_83      2    POP    H84     84 0.04416000   3.023841   ; qtot -0.286450
   85 em_pop_tetramer_84      2    POP    H85     85 0.04416000   3.023841   ; qtot -0.242290
   86 em_pop_tetramer_85      2    POP    H86     86 0.04416000   3.023841   ; qtot -0.198130
   87 em_pop_tetramer_86      2    POP    H87     87 0.14219999   3.023841   ; qtot -0.055930
   88 em_pop_tetramer_87      2    POP    H88     88 0.14790000   3.023841   ; qtot 0.091970
; residue    3 POP rtp POP q -0.0
   89 em_pop_tetramer_88      3    POP    C89     89 0.67657000  12.010780   ; qtot 0.768540
   90 em_pop_tetramer_89      3    POP    O90     90 -0.60786003  15.999430   ; qtot 0.160680
   91 em_pop_tetramer_90      3    POP    C91     91 -0.14214000  12.010780   ; qtot 0.018540
   92 em_pop_tetramer_91      3    POP    C92     92 -0.09242000   9.994886   ; qtot -0.073880
   93 em_pop_tetramer_92      3    POP    C93     93 -0.12373000   9.994886   ; qtot -0.197610
   94 em_pop_tetramer_93      3    POP    C94     94 -0.01116000  12.010780   ; qtot -0.208770
   95 em_pop_tetramer_94      3    POP    C95     95 -0.07399000  12.010780   ; qtot -0.282760
   96 em_pop_tetramer_95      3    POP    C96     96 0.01070000  12.010780   ; qtot -0.272060
   97 em_pop_tetramer_96      3    POP    C97     97 -0.14608000   9.994886   ; qtot -0.418140
   98 em_pop_tetramer_97      3    POP    C98     98 0.12558000  12.010780   ; qtot -0.292560
   99 em_pop_tetramer_98      3    POP    O99     99 -0.32523000  15.999430   ; qtot -0.617790
  100 em_pop_tetramer_99      3    POP   C100    100 0.11272000   5.963098   ; qtot -0.505070
  101 em_pop_tetramer_100      3    POP   C101    101 -0.20547000   9.994886   ; qtot -0.710540
  102 em_pop_tetramer_101      3    POP   C102    102 -0.08454000   9.994886   ; qtot -0.795080
  103 em_pop_tetramer_102      3    POP   C103    103 -0.04353000  12.010780   ; qtot -0.838610
  104 em_pop_tetramer_103      3    POP   C104    104 -0.11132000   9.994886   ; qtot -0.949930
  105 em_pop_tetramer_104      3    POP   C105    105 -0.11990000   9.994886   ; qtot -1.069830
  106 em_pop_tetramer_105      3    POP   C106    106 -0.09001000  12.010780   ; qtot -1.159840
  107 em_pop_tetramer_106      3    POP   C107    107 -0.11990000   9.994886   ; qtot -1.279740
  108 em_pop_tetramer_107      3    POP   C108    108 -0.11132000   9.994886   ; qtot -1.391060
  109 em_pop_tetramer_108      3    POP   C109    109 0.15338001   9.994886   ; qtot -1.237680
  110 em_pop_tetramer_109      3    POP   N110    110 -0.57388997  11.990826   ; qtot -1.811570
  111 em_pop_tetramer_110      3    POP   C111    111 -0.11173000   5.963098   ; qtot -1.923300
  112 em_pop_tetramer_111      3    POP   C112    112 -0.12373000   9.994886   ; qtot -2.047030
  113 em_pop_tetramer_112      3    POP   C113    113 -0.09242000   9.994886   ; qtot -2.139450
  114 em_pop_tetramer_113      3    POP   H114    114 0.14713000   3.023841   ; qtot -1.992320
  115 em_pop_tetramer_114      3    POP   H115    115 0.14184000   3.023841   ; qtot -1.850480
  116 em_pop_tetramer_115      3    POP   H116    116 0.15764000   3.023841   ; qtot -1.692840
  117 em_pop_tetramer_116      3    POP   H117    117 0.04528000   3.023841   ; qtot -1.647560
  118 em_pop_tetramer_117      3    POP   H118    118 0.04528000   3.023841   ; qtot -1.602280
  119 em_pop_tetramer_118      3    POP   H119    119 0.04528000   3.023841   ; qtot -1.557000
  120 em_pop_tetramer_119      3    POP   H120    120 0.13946000   3.023841   ; qtot -1.417540
  121 em_pop_tetramer_120      3    POP   H121    121 0.13932000   3.023841   ; qtot -1.278220
  122 em_pop_tetramer_121      3    POP   H122    122 0.13447000   3.023841   ; qtot -1.143750
  123 em_pop_tetramer_122      3    POP   H123    123 0.13808000   3.023841   ; qtot -1.005670
  124 em_pop_tetramer_123      3    POP   H124    124 0.13808000   3.023841   ; qtot -0.867590
  125 em_pop_tetramer_124      3    POP   H125    125 0.13447000   3.023841   ; qtot -0.733120
  126 em_pop_tetramer_125      3    POP   H126    126 0.08489000   3.023841   ; qtot -0.648230
  127 em_pop_tetramer_126      3    POP   H127    127 0.31601000   3.023841   ; qtot -0.332220
  128 em_pop_tetramer_127      3    POP   H128    128 0.04450000   3.023841   ; qtot -0.287720
  129 em_pop_tetramer_128      3    POP   H129    129 0.04450000   3.023841   ; qtot -0.243220
  130 em_pop_tetramer_129      3    POP   H130    130 0.04450000   3.023841   ; qtot -0.198720
  131 em_pop_tetramer_130      3    POP   H131    131 0.14184000   3.023841   ; qtot -0.056880
  132 em_pop_tetramer_131      3    POP   H132    132 0.14713000   3.023841   ; qtot 0.090250
; residue    4 POP rtp POP q 0.0
  133 em_pop_tetramer_132      4    POP   C133    133 0.67622000  12.010780   ; qtot 0.766470
  134 em_pop_tetramer_133      4    POP   O134    134 -0.61072999  15.999430   ; qtot 0.155740
  135 em_pop_tetramer_134      4    POP   C135    135 -0.14102000  12.010780   ; qtot 0.014720
  136 em_pop_tetramer_135      4    POP   C136    136 -0.08597000   9.994886   ; qtot -0.071250
  137 em_pop_tetramer_136      4    POP   C137    137 -0.12277000   9.994886   ; qtot -0.194020
  138 em_pop_tetramer_137      4    POP   C138    138 -0.01438000  12.010780   ; qtot -0.208400
  139 em_pop_tetramer_138      4    POP   C139    139 -0.06764000  12.010780   ; qtot -0.276040
  140 em_pop_tetramer_139      4    POP   C140    140 0.00974000  12.010780   ; qtot -0.266300
  141 em_pop_tetramer_140      4    POP   C141    141 -0.14821000   9.994886   ; qtot -0.414510
  142 em_pop_tetramer_141      4    POP   C142    142 0.12268000  12.010780   ; qtot -0.291830
  143 em_pop_tetramer_142      4    POP   O143    143 -0.32706001  15.999430   ; qtot -0.618890
  144 em_pop_tetramer_143      4    POP   C144    144 0.11414000   5.963098   ; qtot -0.504750
  145 em_pop_tetramer_144      4    POP   C145    145 -0.20523000   9.994886   ; qtot -0.709980
  146 em_pop_tetramer_145      4    POP   C146    146 -0.08598000   9.994886   ; qtot -0.795960
  147 em_pop_tetramer_146      4    POP   C147    147 -0.04094000  12.010780   ; qtot -0.836900
  148 em_pop_tetramer_147      4    POP   C148    148 -0.11340000   9.994886   ; qtot -0.950300
  149 em_pop_tetramer_148      4    POP   C149    149 -0.10807000   9.994886   ; qtot -1.058370
  150 em_pop_tetramer_149      4    POP   C150    150 -0.10525000  12.010780   ; qtot -1.163620
  151 em_pop_tetramer_150      4    POP   C151    151 -0.10807000   9.994886   ; qtot -1.271690
  152 em_pop_tetramer_151      4    POP   C152    152 -0.11340000   9.994886   ; qtot -1.385090
  153 em_pop_tetramer_152      4    POP   C153    153 0.15831000   9.994886   ; qtot -1.226780
  154 em_pop_tetramer_153      4    POP   N154    154 -0.54323000  11.990826   ; qtot -1.770010
  155 em_pop_tetramer_154      4    POP   C155    155 -0.10137000   5.963098   ; qtot -1.871380
  156 em_pop_tetramer_155      4    POP   C156    156 -0.12277000   9.994886   ; qtot -1.994150
  157 em_pop_tetramer_156      4    POP   C157    157 -0.08597000   9.994886   ; qtot -2.080120
  158 em_pop_tetramer_157      4    POP   H158    158 0.14900000   3.023841   ; qtot -1.931120
  159 em_pop_tetramer_158      4    POP   H159    159 0.14014000   3.023841   ; qtot -1.790980
  160 em_pop_tetramer_159      4    POP   H160    160 0.15538000   3.023841   ; qtot -1.635600
  161 em_pop_tetramer_160      4    POP   H161    161 0.04372000   3.023841   ; qtot -1.591880
  162 em_pop_tetramer_161      4    POP   H162    162 0.04372000   3.023841   ; qtot -1.548160
  163 em_pop_tetramer_162      4    POP   H163    163 0.04372000   3.023841   ; qtot -1.504440
  164 em_pop_tetramer_163      4    POP   H164    164 0.13732000   3.023841   ; qtot -1.367120
  165 em_pop_tetramer_164      4    POP   H165    165 0.14016999   3.023841   ; qtot -1.226950
  166 em_pop_tetramer_165      4    POP   H166    166 0.13280000   3.023841   ; qtot -1.094150
  167 em_pop_tetramer_166      4    POP   H167    167 0.13658001   3.023841   ; qtot -0.957570
  168 em_pop_tetramer_167      4    POP   H168    168 0.13658001   3.023841   ; qtot -0.820990
  169 em_pop_tetramer_168      4    POP   H169    169 0.13280000   3.023841   ; qtot -0.688190
  170 em_pop_tetramer_169      4    POP   H170    170 0.07259000   3.023841   ; qtot -0.615600
  171 em_pop_tetramer_170      4    POP   H171    171 0.31863001   3.023841   ; qtot -0.296970
  172 em_pop_tetramer_171      4    POP   H172    172 0.04645000   3.023841   ; qtot -0.250520
  173 em_pop_tetramer_172      4    POP   H173    173 0.04645000   3.023841   ; qtot -0.204070
  174 em_pop_tetramer_173      4    POP   H174    174 0.04645000   3.023841   ; qtot -0.157620
  175 em_pop_tetramer_174      4    POP   H175    175 0.14014000   3.023841   ; qtot -0.017480
  176 em_pop_tetramer_175      4    POP   H176    176 0.14900000   3.023841   ; qtot 0.131520
; residue    5 CAP rtp CAP q -0.2
  177 em_pop_tetramer_176      5    CAP   C177    177 0.12459000   5.963098   ; qtot 0.256110
  178 em_pop_tetramer_177      5    CAP   O178    178 -0.43040001  15.999430   ; qtot -0.174290
  179 em_pop_tetramer_178      5    CAP   H179    179 0.05083000   3.023841   ; qtot -0.123460
  180 em_pop_tetramer_179      5    CAP   H180    180 0.05083000   3.023841   ; qtot -0.072630
  181 em_pop_tetramer_180      5    CAP   H181    181 0.05083000   3.023841   ; qtot -0.021800
; residue    6 CAP rtp CAP q 0.0
  182 em_pop_tetramer_181      6    CAP   C182    182 -0.11463000   5.963098   ; qtot -0.136430
  183 em_pop_tetramer_182      6    CAP   C183    183 0.19014999  12.010780   ; qtot 0.053720
  184 em_pop_tetramer_183      6    CAP   C184    184 -0.11463000   5.963098   ; qtot -0.060910
  185 em_pop_tetramer_184      6    CAP   C185    185 -0.11463000   5.963098   ; qtot -0.175540
  186 em_pop_tetramer_185      6    CAP   O186    186 -0.44892001  15.999430   ; qtot -0.624460
  187 em_pop_tetramer_186      6    CAP   C187    187 0.74463999  12.010780   ; qtot 0.120180
  188 em_pop_tetramer_187      6    CAP   O188    188 -0.58538997  15.999430   ; qtot -0.465210
  189 em_pop_tetramer_188      6    CAP   H189    189 0.05169000   3.023841   ; qtot -0.413520
  190 em_pop_tetramer_189      6    CAP   H190    190 0.05169000   3.023841   ; qtot -0.361830
  191 em_pop_tetramer_190      6    CAP   H191    191 0.05169000   3.023841   ; qtot -0.310140
  192 em_pop_tetramer_191      6    CAP   H192    192 0.05169000   3.023841   ; qtot -0.258450
  193 em_pop_tetramer_192      6    CAP   H193    193 0.05169000   3.023841   ; qtot -0.206760
  194 em_pop_tetramer_193      6    CAP   H194    194 0.05169000   3.023841   ; qtot -0.155070
  195 em_pop_tetramer_194      6    CAP   H195    195 0.05169000   3.023841   ; qtot -0.103380
  196 em_pop_tetramer_195      6    CAP   H196    196 0.05169000   3.023841   ; qtot -0.051690
  197 em_pop_tetramer_196      6    CAP   H197    197 0.05169000   3.023841   ; qtot -0.000000

[ bonds ]
;    ai     aj funct         c0         c1         c2         c3
      1      2     1   0.12250 637673.816836
      1      3     1   0.14679 223784.907186
      1    178     1   0.13561 243795.038367
      3      4     1   0.14007 315369.603109
      3     25     1   0.14007 315369.603109
      4      5     1   0.14007 315369.603109
      4     26     1   0.10860 323372.939139
      5      6     1   0.14007 315369.603109
      5     27     1   0.10860 323372.939139
      6      7     1   0.14679 223784.907186
      6     24     1   0.14007 315369.603109
      7      8     1   0.14007 315369.603109
      7     14     1   0.14007 315369.603109
      8      9     1   0.14007 315369.603109
      8     15     1   0.14679 223784.907186
      9     10     1   0.14007 315369.603109
      9     28     1   0.10860 323372.939139
     10     11     1   0.13720 266731.066407
     10     13     1   0.14007 315369.603109
     11     12     1   0.14363 189984.684332
     12     29     1   0.10929 317186.185379
     12     30     1   0.10929 317186.185379
     12     31     1   0.10929 317186.185379
     13     14     1   0.14007 315369.603109
     13     32     1   0.10860 323372.939139
     14     33     1   0.10860 323372.939139
     15     16     1   0.14007 315369.603109
     15     20     1   0.14007 315369.603109
     16     17     1   0.14007 315369.603109
     16     34     1   0.10860 323372.939139
     17     18     1   0.14007 315369.603109
     17     35     1   0.10860 323372.939139
     18     19     1   0.14007 315369.603109
     18     21     1   0.15096 200304.454301
     19     20     1   0.14007 315369.603109
     19     36     1   0.10860 323372.939139
     20     37     1   0.10860 323372.939139
     21     22     1   0.14621 202028.005745
     21     23     1   0.15336 180164.203624
     21     38     1   0.10929 317186.185379
     22     39     1   0.10186 402492.840308
     22     45     1   0.13838 273614.770188
     23     40     1   0.10929 317186.185379
     23     41     1   0.10929 317186.185379
     23     42     1   0.10929 317186.185379
     24     25     1   0.14007 315369.603109
     24     43     1   0.10860 323372.939139
     25     44     1   0.10860 323372.939139
     45     46     1   0.12250 637673.816836
     45     47     1   0.14679 223784.907186
     47     48     1   0.14007 315369.603109
     47     69     1   0.14007 315369.603109
     48     49     1   0.14007 315369.603109
     48     70     1   0.10860 323372.939139
     49     50     1   0.14007 315369.603109
     49     71     1   0.10860 323372.939139
     50     51     1   0.14679 223784.907186
     50     68     1   0.14007 315369.603109
     51     52     1   0.14007 315369.603109
     51     58     1   0.14007 315369.603109
     52     53     1   0.14007 315369.603109
     52     59     1   0.14679 223784.907186
     53     54     1   0.14007 315369.603109
     53     72     1   0.10860 323372.939139
     54     55     1   0.13720 266731.066407
     54     57     1   0.14007 315369.603109
     55     56     1   0.14363 189984.684332
     56     73     1   0.10929 317186.185379
     56     74     1   0.10929 317186.185379
     56     75     1   0.10929 317186.185379
     57     58     1   0.14007 315369.603109
     57     76     1   0.10860 323372.939139
     58     77     1   0.10860 323372.939139
     59     60     1   0.14007 315369.603109
     59     64     1   0.14007 315369.603109
     60     61     1   0.14007 315369.603109
     60     78     1   0.10860 323372.939139
     61     62     1   0.14007 315369.603109
     61     79     1   0.10860 323372.939139
     62     63     1   0.14007 315369.603109
     62     65     1   0.15096 200304.454301
     63     64     1   0.14007 315369.603109
     63     80     1   0.10860 323372.939139
     64     81     1   0.10860 323372.939139
     65     66     1   0.14621 202028.005745
     65     67     1   0.15336 180164.203624
     65     82     1   0.10929 317186.185379
     66     83     1   0.10186 402492.840308
     66     89     1   0.13838 273614.770188
     67     84     1   0.10929 317186.185379
     67     85     1   0.10929 317186.185379
     67     86     1   0.10929 317186.185379
     68     69     1   0.14007 315369.603109
     68     87     1   0.10860 323372.939139
     69     88     1   0.10860 323372.939139
     89     90     1   0.12250 637673.816836
     89     91     1   0.14679 223784.907186
     91     92     1   0.14007 315369.603109
     91    113     1   0.14007 315369.603109
     92     93     1   0.14007 315369.603109
     92    114     1   0.10860 323372.939139
     93     94     1   0.14007 315369.603109
     93    115     1   0.10860 323372.939139
     94     95     1   0.14679 223784.907186
     94    112     1   0.14007 315369.603109
     95     96     1   0.14007 315369.603109
     95    102     1   0.14007 315369.603109
     96     97     1   0.14007 315369.603109
     96    103     1   0.14679 223784.907186
     97     98     1   0.14007 315369.603109
     97    116     1   0.10860 323372.939139
     98     99     1   0.13720 266731.066407
     98    101     1   0.14007 315369.603109
     99    100     1   0.14363 189984.684332
    100    117     1   0.10929 317186.185379
    100    118     1   0.10929 317186.185379
    100    119     1   0.10929 317186.185379
    101    102     1   0.14007 315369.603109
    101    120     1   0.10860 323372.939139
    102    121     1   0.10860 323372.939139
    103    104     1   0.14007 315369.603109
    103    108     1   0.14007 315369.603109
    104    105     1   0.14007 315369.603109
    104    122     1   0.10860 323372.939139
    105    106     1   0.14007 315369.603109
    105    123     1   0.10860 323372.939139
    106    107     1   0.14007 315369.603109
    106    109     1   0.15096 200304.454301
    107    108     1   0.14007 315369.603109
    107    124     1   0.10860 323372.939139
    108    125     1   0.10860 323372.939139
    109    110     1   0.14621 202028.005745
    109    111     1   0.15336 180164.203624
    109    126     1   0.10929 317186.185379
    110    127     1   0.10186 402492.840308
    110    133     1   0.13838 273614.770188
    111    128     1   0.10929 317186.185379
    111    129     1   0.10929 317186.185379
    111    130     1   0.10929 317186.185379
    112    113     1   0.14007 315369.603109
    112    131     1   0.10860 323372.939139
    113    132     1   0.10860 323372.939139
    133    134     1   0.12250 637673.816836
    133    135     1   0.14679 223784.907186
    135    136     1   0.14007 315369.603109
    135    157     1   0.14007 315369.603109
    136    137     1   0.14007 315369.603109
    136    158     1   0.10860 323372.939139
    137    138     1   0.14007 315369.603109
    137    159     1   0.10860 323372.939139
    138    139     1   0.14679 223784.907186
    138    156     1   0.14007 315369.603109
    139    140     1   0.14007 315369.603109
    139    146     1   0.14007 315369.603109
    140    141     1   0.14007 315369.603109
    140    147     1   0.14679 223784.907186
    141    142     1   0.14007 315369.603109
    141    160     1   0.10860 323372.939139
    142    143     1   0.13720 266731.066407
    142    145     1   0.14007 315369.603109
    143    144     1   0.14363 189984.684332
    144    161     1   0.10929 317186.185379
    144    162     1   0.10929 317186.185379
    144    163     1   0.10929 317186.185379
    145    146     1   0.14007 315369.603109
    145    164     1   0.10860 323372.939139
    146    165     1   0.10860 323372.939139
    147    148     1   0.14007 315369.603109
    147    152     1   0.14007 315369.603109
    148    149     1   0.14007 315369.603109
    148    166     1   0.10860 323372.939139
    149    150     1   0.14007 315369.603109
    149    167     1   0.10860 323372.939139
    150    151     1   0.14007 315369.603109
    150    153     1   0.15096 200304.454301
    151    152     1   0.14007 315369.603109
    151    168     1   0.10860 323372.939139
    152    169     1   0.10860 323372.939139
    153    154     1   0.14621 202028.005745
    153    155     1   0.15336 180164.203624
    153    170     1   0.10929 317186.185379
    154    171     1   0.10186 402492.840308
    154    187     1   0.13838 273614.770188
    155    172     1   0.10929 317186.185379
    155    173     1   0.10929 317186.185379
    155    174     1   0.10929 317186.185379
    156    157     1   0.14007 315369.603109
    156    175     1   0.10860 323372.939139
    157    176     1   0.10860 323372.939139
    177    178     1   0.14363 189984.684332
    177    179     1   0.10929 317186.185379
    177    180     1   0.10929 317186.185379
    177    181     1   0.10929 317186.185379
    182    183     1   0.15336 180164.203624
    182    189     1   0.10929 317186.185379
    182    190     1   0.10929 317186.185379
    182    191     1   0.10929 317186.185379
    183    184     1   0.15336 180164.203624
    183    185     1   0.15336 180164.203624
    183    186     1   0.14363 189984.684332
    184    192     1   0.10929 317186.185379
    184    193     1   0.10929 317186.185379
    184    194     1   0.10929 317186.185379
    185    195     1   0.10929 317186.185379
    185    196     1   0.10929 317186.185379
    185    197     1   0.10929 317186.185379
    186    187     1   0.13561 243795.038367
    187    188     1   0.12250 637673.816836

[ pairs ]
;    ai     aj funct         c0         c1         c2         c3
     95    113     1
     54     74     1
     99    120     1
    109    134     1
     82     85     1
    151    167     1
     61     64     1
    124    125     1
     51     76     1
     80     81     1
     55     72     1
    185    193     1
    142    161     1
     58     59     1
    106    127     1
    143    164     1
    153    167     1
    111    133     1
    185    192     1
     38     39     1
     17     36     1
    154    173     1
    149    155     1
      8     17     1
    106    122     1
    150    172     1
    153    168     1
     62     78     1
    182    197     1
     18     39     1
     95    115     1
    139    157     1
     51     71     1
    182    187     1
      4     24     1
    182    194     1
     45     88     1
    148    151     1
     61     80     1
     22     48     1
     96    105     1
     94    121     1
    154    172     1
     92    112     1
    141    164     1
     23     39     1
    138    147     1
     59     72     1
    144    145     1
    149    168     1
     52     55     1
     52     57     1
     19     38     1
     82     89     1
     17     22     1
     91    115     1
     51     87     1
    107    126     1
     66     86     1
     62     86     1
    139    152     1
    186    190     1
     53     56     1
     51     69     1
    148    153     1
      1     24     1
    150    174     1
     14     24     1
    186    194     1
    185    187     1
     61     82     1
    101    116     1
     68     71     1
    153    188     1
    133    158     1
     91     94     1
    106    125     1
     94    114     1
     62     83     1
     66     92     1
     70     71     1
    105    126     1
     11     28     1
      8     37     1
    150    171     1
     95    116     1
     98    119     1
    154    174     1
     95    120     1
     93    131     1
     11     14     1
    137    157     1
    105    108     1
    142    147     1
     50     77     1
    105    124     1
    146    156     1
      3    177     1
      9     16     1
      1    181     1
     38     42     1
    184    197     1
    184    190     1
     34     35     1
      6     44     1
    150    187     1
     64     78     1
    171    188     1
     60     81     1
     18     42     1
      2    177     1
    103    123     1
     52     61     1
     60     63     1
    135    159     1
     16     19     1
    103    116     1
      9     14     1
     54     75     1
      8     24     1
     19     35     1
     98    121     1
    140    169     1
     63     67     1
     93     96     1
     21     47     1
    138    165     1
     48     68     1
    139    160     1
    157    158     1
    139    148     1
     87     88     1
     97    120     1
    106    129     1
     18     37     1
     61     66     1
    135    175     1
     65     91     1
    114    115     1
     69     70     1
      9     32     1
    140    143     1
      7     25     1
    151    170     1
     97    100     1
     53     60     1
    106    133     1
     22     42     1
     15     28     1
    183    188     1
     89    114     1
     16     37     1
     10     29     1
    186    195     1
    127    134     1
      1    180     1
    156    159     1
     57     72     1
    146    147     1
    150    173     1
     51     72     1
    140    149     1
    110    130     1
     22     69     1
     65     80     1
     62     81     1
      2     25     1
     52     78     1
     94    132     1
     52     68     1
    147    160     1
      8     34     1
    186    196     1
    113    114     1
      6      9     1
    158    159     1
      1      5     1
    104    125     1
    142    165     1
     59     79     1
    142    163     1
     55     76     1
     55     58     1
    102    112     1
    147    150     1
      5      8     1
    134    136     1
     49     58     1
    186    189     1
    184    195     1
    112    115     1
    140    165     1
     38     41     1
      7     32     1
    141    144     1
    153    186     1
    186    191     1
    102    103     1
     18     41     1
      7     10     1
    107    123     1
    109    124     1
     17     23     1
      8     33     1
     96    122     1
    135    138     1
    140    145     1
    140    156     1
     10     30     1
      1    179     1
    126    129     1
     51     64     1
     67     83     1
    143    160     1
    110    157     1
    131    132     1
     82     86     1
     21     35     1
     94    101     1
    126    130     1
    104    109     1
     38     40     1
     65     90     1
    168    169     1
    143    146     1
     18     34     1
    185    190     1
    150    169     1
     90    113     1
    171    186     1
     18     40     1
     25    178     1
     47     87     1
    184    189     1
    185    194     1
    170    174     1
      8     13     1
    184    191     1
     39     47     1
     22     41     1
    126    127     1
    140    151     1
     14     15     1
     94    103     1
     58     68     1
     49     87     1
    109    135     1
      5     25     1
     51     60     1
    170    171     1
     93    102     1
    139    159     1
     50     70     1
    141    148     1
      4      7     1
     10     33     1
     49     69     1
     54     73     1
      6     26     1
    107    111     1
     96    125     1
     59     62     1
     38     45     1
     15     36     1
     22     40     1
     32     33     1
     39     46     1
    151    154     1
    170    187     1
     15     35     1
     95    131     1
    139    175     1
    182    195     1
     12     13     1
     46     69     1
     51     54     1
     95     98     1
    152    166     1
     17     20     1
     10     31     1
    108    122     1
     63     82     1
     83     91     1
     62     84     1
      7     43     1
    182    196     1
    142    162     1
    138    158     1
     91    131     1
      7     27     1
    133    176     1
      6     33     1
     54     59     1
    147    168     1
     54     77     1
     60     65     1
     19     23     1
      3      6     1
    166    167     1
     52     63     1
      7     16     1
      9     20     1
     96    121     1
     93    113     1
     19     22     1
     25     26     1
     47     50     1
     21     46     1
    110    129     1
     46     48     1
     78     79     1
      7     28     1
     98    103     1
    103    106     1
     15     18     1
     45     70     1
    170    173     1
    104    107     1
     76     77     1
    151    155     1
      6     13     1
    133    137     1
     96    101     1
      2      4     1
    110    136     1
     97    104     1
    107    110     1
    122    123     1
     99    116     1
     66     85     1
     62     85     1
     97    108     1
     99    102     1
    138    141     1
    137    175     1
    149    170     1
      4    178     1
    109    123     1
     96    112     1
    186    193     1
    141    152     1
     10     15     1
    154    183     1
    170    172     1
    136    176     1
    149    152     1
    186    192     1
     63     66     1
    105    110     1
     90     92     1
    185    189     1
    137    146     1
    140    166     1
    185    191     1
    138    176     1
    152    153     1
     65     79     1
    137    140     1
      7     20     1
     47     71     1
     56     57     1
     16     21     1
    184    196     1
     83     90     1
      9     12     1
     67     89     1
    139    142     1
     21     36     1
    111    127     1
     50     57     1
    145    160     1
    155    171     1
    126    133     1
    106    128     1
     45     49     1
     36     37     1
     24     27     1
    108    109     1
      6     15     1
      8     19     1
     62     89     1
     82     83     1
    155    187     1
     89    132     1
      5     43     1
     43     44     1
     53     76     1
    175    176     1
     53     58     1
    110    128     1
    186    197     1
     45     68     1
    120    121     1
     61     67     1
    127    135     1
     98    118     1
     96    107     1
    148    169     1
    141    146     1
     48     88     1
     98    117     1
    134    157     1
    139    164     1
      4     44     1
    133    156     1
     49     52     1
     52     77     1
     18     45     1
      5     14     1
     50     59     1
    100    101     1
    136    139     1
     13     28     1
     64     65     1
     95    104     1
     20     21     1
     94     97     1
    147    167     1
      8     11     1
    105    111     1
     95    108     1
     66     84     1
     82     84     1
    184    187     1
     23     45     1
    164    165     1
     48     51     1
     63     79     1
     17     38     1
     53     64     1
     66    113     1
    126    128     1
      1     44     1
      1     26     1
      3     43     1
     11     32     1
     89    112     1
    149    154     1
     89     93     1
     52     81     1
    150    166     1
     50     88     1
      3     27     1
    182    193     1
     20     34     1
     50     53     1
     92     95     1
    136    156     1
    182    192     1
     26     27     1
     92    132     1
    103    124     1
     97    102     1
     59     80     1
    138    145     1
     96     99     1
    106    130     1

[ angles ]
;    ai     aj     ak funct         c0         c1         c2         c3
      1      3      4     1   120.1049996 707.494800
      1      3     25     1   120.1049996 707.494800
      1    178    177     1   112.8736161 1003.288804
      2      1      3     1   120.1049996 707.494800
      2      1    178     1   123.6058900 529.778360
      3      1    178     1   120.1049996 707.494800
      3      4      5     1   120.1049996 707.494800
      3      4     26     1   119.8544860 275.494454
      3     25     24     1   120.1049996 707.494800
      3     25     44     1   119.8544860 275.494454
      4      3     25     1   120.1049996 707.494800
      4      5      6     1   120.1049996 707.494800
      4      5     27     1   119.8544860 275.494454
      5      4     26     1   119.8544860 275.494454
      5      6      7     1   120.1049996 707.494800
      5      6     24     1   120.1049996 707.494800
      6      5     27     1   119.8544860 275.494454
      6      7      8     1   120.1049996 707.494800
      6      7     14     1   120.1049996 707.494800
      6     24     25     1   120.1049996 707.494800
      6     24     43     1   119.8544860 275.494454
      7      6     24     1   120.1049996 707.494800
      7      8      9     1   120.1049996 707.494800
      7      8     15     1   120.1049996 707.494800
      7     14     13     1   120.1049996 707.494800
      7     14     33     1   119.8544860 275.494454
      8      7     14     1   120.1049996 707.494800
      8      9     10     1   120.1049996 707.494800
      8      9     28     1   119.8544860 275.494454
      8     15     16     1   120.1049996 707.494800
      8     15     20     1   120.1049996 707.494800
      9      8     15     1   120.1049996 707.494800
      9     10     11     1   120.1049996 707.494800
      9     10     13     1   120.1049996 707.494800
     10      9     28     1   119.8544860 275.494454
     10     11     12     1   112.8736161 1003.288804
     10     13     14     1   120.1049996 707.494800
     10     13     32     1   119.8544860 275.494454
     11     10     13     1   120.1049996 707.494800
     11     12     29     1   107.6607822 425.669015
     11     12     30     1   107.6607822 425.669015
     11     12     31     1   107.6607822 425.669015
     13     14     33     1   119.8544860 275.494454
     14     13     32     1   119.8544860 275.494454
     15     16     17     1   120.1049996 707.494800
     15     16     34     1   119.8544860 275.494454
     15     20     19     1   120.1049996 707.494800
     15     20     37     1   119.8544860 275.494454
     16     15     20     1   120.1049996 707.494800
     16     17     18     1   120.1049996 707.494800
     16     17     35     1   119.8544860 275.494454
     17     16     34     1   119.8544860 275.494454
     17     18     19     1   120.1049996 707.494800
     17     18     21     1   120.1049996 707.494800
     18     17     35     1   119.8544860 275.494454
     18     19     20     1   120.1049996 707.494800
     18     19     36     1   119.8544860 275.494454
     18     21     22     1   107.6607822 425.669015
     18     21     23     1   107.6607822 425.669015
     18     21     38     1   107.6607822 425.669015
     19     18     21     1   120.1049996 707.494800
     19     20     37     1   119.8544860 275.494454
     20     19     36     1   119.8544860 275.494454
     21     22     39     1   118.0636611 310.493310
     21     22     45     1   121.7705344 665.074568
     21     23     40     1   107.6607822 425.669015
     21     23     41     1   107.6607822 425.669015
     21     23     42     1   107.6607822 425.669015
     22     21     23     1   107.6607822 425.669015
     22     21     38     1   107.6607822 425.669015
     22     45     46     1   120.1049996 707.494800
     22     45     47     1   120.1049996 707.494800
     23     21     38     1   107.6607822 425.669015
     24     25     44     1   119.8544860 275.494454
     25     24     43     1   119.8544860 275.494454
     29     12     30     1   108.3543135 307.746906
     29     12     31     1   108.3543135 307.746906
     30     12     31     1   108.3543135 307.746906
     39     22     45     1   118.0636611 310.493310
     40     23     41     1   108.3543135 307.746906
     40     23     42     1   108.3543135 307.746906
     41     23     42     1   108.3543135 307.746906
     45     47     48     1   120.1049996 707.494800
     45     47     69     1   120.1049996 707.494800
     46     45     47     1   120.1049996 707.494800
     47     48     49     1   120.1049996 707.494800
     47     48     70     1   119.8544860 275.494454
     47     69     68     1   120.1049996 707.494800
     47     69     88     1   119.8544860 275.494454
     48     47     69     1   120.1049996 707.494800
     48     49     50     1   120.1049996 707.494800
     48     49     71     1   119.8544860 275.494454
     49     48     70     1   119.8544860 275.494454
     49     50     51     1   120.1049996 707.494800
     49     50     68     1   120.1049996 707.494800
     50     49     71     1   119.8544860 275.494454
     50     51     52     1   120.1049996 707.494800
     50     51     58     1   120.1049996 707.494800
     50     68     69     1   120.1049996 707.494800
     50     68     87     1   119.8544860 275.494454
     51     50     68     1   120.1049996 707.494800
     51     52     53     1   120.1049996 707.494800
     51     52     59     1   120.1049996 707.494800
     51     58     57     1   120.1049996 707.494800
     51     58     77     1   119.8544860 275.494454
     52     51     58     1   120.1049996 707.494800
     52     53     54     1   120.1049996 707.494800
     52     53     72     1   119.8544860 275.494454
     52     59     60     1   120.1049996 707.494800
     52     59     64     1   120.1049996 707.494800
     53     52     59     1   120.1049996 707.494800
     53     54     55     1   120.1049996 707.494800
     53     54     57     1   120.1049996 707.494800
     54     53     72     1   119.8544860 275.494454
     54     55     56     1   112.8736161 1003.288804
     54     57     58     1   120.1049996 707.494800
     54     57     76     1   119.8544860 275.494454
     55     54     57     1   120.1049996 707.494800
     55     56     73     1   107.6607822 425.669015
     55     56     74     1   107.6607822 425.669015
     55     56     75     1   107.6607822 425.669015
     57     58     77     1   119.8544860 275.494454
     58     57     76     1   119.8544860 275.494454
     59     60     61     1   120.1049996 707.494800
     59     60     78     1   119.8544860 275.494454
     59     64     63     1   120.1049996 707.494800
     59     64     81     1   119.8544860 275.494454
     60     59     64     1   120.1049996 707.494800
     60     61     62     1   120.1049996 707.494800
     60     61     79     1   119.8544860 275.494454
     61     60     78     1   119.8544860 275.494454
     61     62     63     1   120.1049996 707.494800
     61     62     65     1   120.1049996 707.494800
     62     61     79     1   119.8544860 275.494454
     62     63     64     1   120.1049996 707.494800
     62     63     80     1   119.8544860 275.494454
     62     65     66     1   107.6607822 425.669015
     62     65     67     1   107.6607822 425.669015
     62     65     82     1   107.6607822 425.669015
     63     62     65     1   120.1049996 707.494800
     63     64     81     1   119.8544860 275.494454
     64     63     80     1   119.8544860 275.494454
     65     66     83     1   118.0636611 310.493310
     65     66     89     1   121.7705344 665.074568
     65     67     84     1   107.6607822 425.669015
     65     67     85     1   107.6607822 425.669015
     65     67     86     1   107.6607822 425.669015
     66     65     67     1   107.6607822 425.669015
     66     65     82     1   107.6607822 425.669015
     66     89     90     1   120.1049996 707.494800
     66     89     91     1   120.1049996 707.494800
     67     65     82     1   107.6607822 425.669015
     68     69     88     1   119.8544860 275.494454
     69     68     87     1   119.8544860 275.494454
     73     56     74     1   108.3543135 307.746906
     73     56     75     1   108.3543135 307.746906
     74     56     75     1   108.3543135 307.746906
     83     66     89     1   118.0636611 310.493310
     84     67     85     1   108.3543135 307.746906
     84     67     86     1   108.3543135 307.746906
     85     67     86     1   108.3543135 307.746906
     89     91     92     1   120.1049996 707.494800
     89     91    113     1   120.1049996 707.494800
     90     89     91     1   120.1049996 707.494800
     91     92     93     1   120.1049996 707.494800
     91     92    114     1   119.8544860 275.494454
     91    113    112     1   120.1049996 707.494800
     91    113    132     1   119.8544860 275.494454
     92     91    113     1   120.1049996 707.494800
     92     93     94     1   120.1049996 707.494800
     92     93    115     1   119.8544860 275.494454
     93     92    114     1   119.8544860 275.494454
     93     94     95     1   120.1049996 707.494800
     93     94    112     1   120.1049996 707.494800
     94     93    115     1   119.8544860 275.494454
     94     95     96     1   120.1049996 707.494800
     94     95    102     1   120.1049996 707.494800
     94    112    113     1   120.1049996 707.494800
     94    112    131     1   119.8544860 275.494454
     95     94    112     1   120.1049996 707.494800
     95     96     97     1   120.1049996 707.494800
     95     96    103     1   120.1049996 707.494800
     95    102    101     1   120.1049996 707.494800
     95    102    121     1   119.8544860 275.494454
     96     95    102     1   120.1049996 707.494800
     96     97     98     1   120.1049996 707.494800
     96     97    116     1   119.8544860 275.494454
     96    103    104     1   120.1049996 707.494800
     96    103    108     1   120.1049996 707.494800
     97     96    103     1   120.1049996 707.494800
     97     98     99     1   120.1049996 707.494800
     97     98    101     1   120.1049996 707.494800
     98     97    116     1   119.8544860 275.494454
     98     99    100     1   112.8736161 1003.288804
     98    101    102     1   120.1049996 707.494800
     98    101    120     1   119.8544860 275.494454
     99     98    101     1   120.1049996 707.494800
     99    100    117     1   107.6607822 425.669015
     99    100    118     1   107.6607822 425.669015
     99    100    119     1   107.6607822 425.669015
    101    102    121     1   119.8544860 275.494454
    102    101    120     1   119.8544860 275.494454
    103    104    105     1   120.1049996 707.494800
    103    104    122     1   119.8544860 275.494454
    103    108    107     1   120.1049996 707.494800
    103    108    125     1   119.8544860 275.494454
    104    103    108     1   120.1049996 707.494800
    104    105    106     1   120.1049996 707.494800
    104    105    123     1   119.8544860 275.494454
    105    104    122     1   119.8544860 275.494454
    105    106    107     1   120.1049996 707.494800
    105    106    109     1   120.1049996 707.494800
    106    105    123     1   119.8544860 275.494454
    106    107    108     1   120.1049996 707.494800
    106    107    124     1   119.8544860 275.494454
    106    109    110     1   107.6607822 425.669015
    106    109    111     1   107.6607822 425.669015
    106    109    126     1   107.6607822 425.669015
    107    106    109     1   120.1049996 707.494800
    107    108    125     1   119.8544860 275.494454
    108    107    124     1   119.8544860 275.494454
    109    110    127     1   118.0636611 310.493310
    109    110    133     1   121.7705344 665.074568
    109    111    128     1   107.6607822 425.669015
    109    111    129     1   107.6607822 425.669015
    109    111    130     1   107.6607822 425.669015
    110    109    111     1   107.6607822 425.669015
    110    109    126     1   107.6607822 425.669015
    110    133    134     1   120.1049996 707.494800
    110    133    135     1   120.1049996 707.494800
    111    109    126     1   107.6607822 425.669015
    112    113    132     1   119.8544860 275.494454
    113    112    131     1   119.8544860 275.494454
    117    100    118     1   108.3543135 307.746906
    117    100    119     1   108.3543135 307.746906
    118    100    119     1   108.3543135 307.746906
    127    110    133     1   118.0636611 310.493310
    128    111    129     1   108.3543135 307.746906
    128    111    130     1   108.3543135 307.746906
    129    111    130     1   108.3543135 307.746906
    133    135    136     1   120.1049996 707.494800
    133    135    157     1   120.1049996 707.494800
    134    133    135     1   120.1049996 707.494800
    135    136    137     1   120.1049996 707.494800
    135    136    158     1   119.8544860 275.494454
    135    157    156     1   120.1049996 707.494800
    135    157    176     1   119.8544860 275.494454
    136    135    157     1   120.1049996 707.494800
    136    137    138     1   120.1049996 707.494800
    136    137    159     1   119.8544860 275.494454
    137    136    158     1   119.8544860 275.494454
    137    138    139     1   120.1049996 707.494800
    137    138    156     1   120.1049996 707.494800
    138    137    159     1   119.8544860 275.494454
    138    139    140     1   120.1049996 707.494800
    138    139    146     1   120.1049996 707.494800
    138    156    157     1   120.1049996 707.494800
    138    156    175     1   119.8544860 275.494454
    139    138    156     1   120.1049996 707.494800
    139    140    141     1   120.1049996 707.494800
    139    140    147     1   120.1049996 707.494800
    139    146    145     1   120.1049996 707.494800
    139    146    165     1   119.8544860 275.494454
    140    139    146     1   120.1049996 707.494800
    140    141    142     1   120.1049996 707.494800
    140    141    160     1   119.8544860 275.494454
    140    147    148     1   120.1049996 707.494800
    140    147    152     1   120.1049996 707.494800
    141    140    147     1   120.1049996 707.494800
    141    142    143     1   120.1049996 707.494800
    141    142    145     1   120.1049996 707.494800
    142    141    160     1   119.8544860 275.494454
    142    143    144     1   112.8736161 1003.288804
    142    145    146     1   120.1049996 707.494800
    142    145    164     1   119.8544860 275.494454
    143    142    145     1   120.1049996 707.494800
    143    144    161     1   107.6607822 425.669015
    143    144    162     1   107.6607822 425.669015
    143    144    163     1   107.6607822 425.669015
    145    146    165     1   119.8544860 275.494454
    146    145    164     1   119.8544860 275.494454
    147    148    149     1   120.1049996 707.494800
    147    148    166     1   119.8544860 275.494454
    147    152    151     1   120.1049996 707.494800
    147    152    169     1   119.8544860 275.494454
    148    147    152     1   120.1049996 707.494800
    148    149    150     1   120.1049996 707.494800
    148    149    167     1   119.8544860 275.494454
    149    148    166     1   119.8544860 275.494454
    149    150    151     1   120.1049996 707.494800
    149    150    153     1   120.1049996 707.494800
    150    149    167     1   119.8544860 275.494454
    150    151    152     1   120.1049996 707.494800
    150    151    168     1   119.8544860 275.494454
    150    153    154     1   107.6607822 425.669015
    150    153    155     1   107.6607822 425.669015
    150    153    170     1   107.6607822 425.669015
    151    150    153     1   120.1049996 707.494800
    151    152    169     1   119.8544860 275.494454
    152    151    168     1   119.8544860 275.494454
    153    154    171     1   118.0636611 310.493310
    153    154    187     1   121.7705344 665.074568
    153    155    172     1   107.6607822 425.669015
    153    155    173     1   107.6607822 425.669015
    153    155    174     1   107.6607822 425.669015
    154    153    155     1   107.6607822 425.669015
    154    153    170     1   107.6607822 425.669015
    154    187    186     1   120.1049996 707.494800
    154    187    188     1   120.1049996 707.494800
    155    153    170     1   107.6607822 425.669015
    156    157    176     1   119.8544860 275.494454
    157    156    175     1   119.8544860 275.494454
    161    144    162     1   108.3543135 307.746906
    161    144    163     1   108.3543135 307.746906
    162    144    163     1   108.3543135 307.746906
    171    154    187     1   118.0636611 310.493310
    172    155    173     1   108.3543135 307.746906
    172    155    174     1   108.3543135 307.746906
    173    155    174     1   108.3543135 307.746906
    178    177    179     1   107.6607822 425.669015
    178    177    180     1   107.6607822 425.669015
    178    177    181     1   107.6607822 425.669015
    179    177    180     1   108.3543135 307.746906
    179    177    181     1   108.3543135 307.746906
    180    177    181     1   108.3543135 307.746906
    182    183    184     1   107.6607822 425.669015
    182    183    185     1   107.6607822 425.669015
    182    183    186     1   107.6607822 425.669015
    183    182    189     1   107.6607822 425.669015
    183    182    190     1   107.6607822 425.669015
    183    182    191     1   107.6607822 425.669015
    183    184    192     1   107.6607822 425.669015
    183    184    193     1   107.6607822 425.669015
    183    184    194     1   107.6607822 425.669015
    183    185    195     1   107.6607822 425.669015
    183    185    196     1   107.6607822 425.669015
    183    185    197     1   107.6607822 425.669015
    183    186    187     1   112.8736161 1003.288804
    184    183    185     1   107.6607822 425.669015
    184    183    186     1   107.6607822 425.669015
    185    183    186     1   107.6607822 425.669015
    186    187    188     1   123.6058900 529.778360
    189    182    190     1   108.3543135 307.746906
    189    182    191     1   108.3543135 307.746906
    190    182    191     1   108.3543135 307.746906
    192    184    193     1   108.3543135 307.746906
    192    184    194     1   108.3543135 307.746906
    193    184    194     1   108.3543135 307.746906
    195    185    196     1   108.3543135 307.746906
    195    185    197     1   108.3543135 307.746906
    196    185    197     1   108.3543135 307.746906

[ dihedrals ]
;    ai     aj     ak     al funct         c0         c1         c2         c3         c4         c5
      1      3      4      5     1  180.0000000  13.6752988  2
      1      3      4     26     1  180.0000000  13.6752988  2
      1      3     25     24     1  180.0000000  13.6752988  2
      1      3     25     44     1  180.0000000  13.6752988  2
      1    178    177    179     1  0.0000000  1.1008580  3
      1    178    177    180     1  0.0000000  1.1008580  3
      1    178    177    181     1  0.0000000  1.1008580  3
      2      1      3      4     1  0.0000000  0.1108310  1
      2      1      3      4     1  180.0000000  1.7930374  2
      2      1      3      4     1  0.0000000  0.1553346  3
      2      1      3      4     1  180.0000000  0.2504072  4
      2      1      3     25     1  0.0000000  0.1108310  1
      2      1      3     25     1  180.0000000  1.7930374  2
      2      1      3     25     1  0.0000000  0.1553346  3
      2      1      3     25     1  180.0000000  0.2504072  4
      2      1    178    177     1  0.0000000  4.0186228  1
      2      1    178    177     1  180.0000000  3.2112974  2
      2      1    178    177     1  0.0000000  -2.4804379  3
      2      1    178    177     1  180.0000000  0.4499206  4
      3      1    178    177     1  0.0000000  1.4851200  1
      3      1    178    177     1  180.0000000  16.3628369  2
      3      1    178    177     1  0.0000000  3.1985371  3
      3      1    178    177     1  180.0000000  2.3700509  4
      3      4      5      6     1  180.0000000  13.6752988  2
      3      4      5     27     1  180.0000000  13.6752988  2
      3     25     24      6     1  180.0000000  13.6752988  2
      3     25     24     43     1  180.0000000  13.6752988  2
      4      3      1    178     1  0.0000000  -0.1035888  1
      4      3      1    178     1  180.0000000  2.0973690  2
      4      3      1    178     1  0.0000000  -0.1936175  3
      4      3      1    178     1  180.0000000  -0.0857315  4
      4      3     25     24     1  180.0000000  13.6752988  2
      4      3     25     44     1  180.0000000  13.6752988  2
      4      5      6      7     1  180.0000000  13.6752988  2
      4      5      6     24     1  180.0000000  13.6752988  2
      5      4      3     25     1  180.0000000  13.6752988  2
      5      6      7      8     1  0.0000000  -0.3104529  1
      5      6      7      8     1  180.0000000  5.5916842  2
      5      6      7      8     1  0.0000000  -0.3501756  3
      5      6      7      8     1  180.0000000  -0.2401493  4
      5      6      7     14     1  0.0000000  0.3374007  1
      5      6      7     14     1  180.0000000  6.2743214  2
      5      6      7     14     1  0.0000000  0.3658606  3
      5      6      7     14     1  180.0000000  1.9822818  4
      5      6     24     25     1  180.0000000  13.6752988  2
      5      6     24     43     1  180.0000000  13.6752988  2
      6      5      4     26     1  180.0000000  13.6752988  2
      6      7      8      9     1  180.0000000  13.6752988  2
      6      7      8     15     1  180.0000000  13.6752988  2
      6      7     14     13     1  180.0000000  13.6752988  2
      6      7     14     33     1  180.0000000  13.6752988  2
      6     24     25     44     1  180.0000000  13.6752988  2
      7      6      5     27     1  180.0000000  13.6752988  2
      7      6     24     25     1  180.0000000  13.6752988  2
      7      6     24     43     1  180.0000000  13.6752988  2
      7      8      9     10     1  180.0000000  13.6752988  2
      7      8      9     28     1  180.0000000  13.6752988  2
      7      8     15     16     1  180.0000000  5.1777217  2
      7      8     15     20     1  180.0000000  5.1777217  2
      7     14     13     10     1  180.0000000  13.6752988  2
      7     14     13     32     1  180.0000000  13.6752988  2
      8      7      6     24     1  0.0000000  -0.3104529  1
      8      7      6     24     1  180.0000000  5.5916842  2
      8      7      6     24     1  0.0000000  -0.3501756  3
      8      7      6     24     1  180.0000000  -0.2401493  4
      8      7     14     13     1  180.0000000  13.6752988  2
      8      7     14     33     1  180.0000000  13.6752988  2
      8      9     10     11     1  180.0000000  13.6752988  2
      8      9     10     13     1  180.0000000  13.6752988  2
      8     15     16     17     1  180.0000000  13.6752988  2
      8     15     16     34     1  180.0000000  13.6752988  2
      8     15     20     19     1  180.0000000  13.6752988  2
      8     15     20     37     1  180.0000000  13.6752988  2
      9      8      7     14     1  180.0000000  13.6752988  2
      9      8     15     16     1  180.0000000  5.1777217  2
      9      8     15     20     1  180.0000000  5.1777217  2
      9     10     11     12     1  0.0000000  0.2294017  1
      9     10     11     12     1  180.0000000  9.7412762  2
      9     10     11     12     1  0.0000000  1.1472183  3
      9     10     11     12     1  180.0000000  0.6722126  4
      9     10     13     14     1  180.0000000  13.6752988  2
      9     10     13     32     1  180.0000000  13.6752988  2
     10      9      8     15     1  180.0000000  13.6752988  2
     10     11     12     29     1  0.0000000  1.1008580  3
     10     11     12     30     1  0.0000000  1.1008580  3
     10     11     12     31     1  0.0000000  1.1008580  3
     10     13     14     33     1  180.0000000  13.6752988  2
     11     10      9     28     1  180.0000000  13.6752988  2
     11     10     13     14     1  180.0000000  13.6752988  2
     11     10     13     32     1  180.0000000  13.6752988  2
     12     11     10     13     1  0.0000000  0.2294017  1
     12     11     10     13     1  180.0000000  9.7412762  2
     12     11     10     13     1  0.0000000  1.1472183  3
     12     11     10     13     1  180.0000000  0.6722126  4
     13     10      9     28     1  180.0000000  13.6752988  2
     14      7      6     24     1  0.0000000  0.3374007  1
     14      7      6     24     1  180.0000000  6.2743214  2
     14      7      6     24     1  0.0000000  0.3658606  3
     14      7      6     24     1  180.0000000  1.9822818  4
     14      7      8     15     1  180.0000000  13.6752988  2
     15      8      9     28     1  180.0000000  13.6752988  2
     15     16     17     18     1  180.0000000  13.6752988  2
     15     16     17     35     1  180.0000000  13.6752988  2
     15     20     19     18     1  180.0000000  13.6752988  2
     15     20     19     36     1  180.0000000  13.6752988  2
     16     15     20     19     1  180.0000000  13.6752988  2
     16     15     20     37     1  180.0000000  13.6752988  2
     16     17     18     19     1  180.0000000  13.6752988  2
     16     17     18     21     1  180.0000000  13.6752988  2
     17     16     15     20     1  180.0000000  13.6752988  2
     17     18     19     20     1  180.0000000  13.6752988  2
     17     18     19     36     1  180.0000000  13.6752988  2
     17     18     21     22     1  0.0000000  0.1827509  1
     17     18     21     22     1  180.0000000  1.4235759  2
     17     18     21     22     1  0.0000000  0.0288771  3
     17     18     21     22     1  180.0000000  -0.2162537  4
     17     18     21     23     1  0.0000000  -0.0447856  1
     17     18     21     23     1  180.0000000  -0.1016246  2
     17     18     21     23     1  0.0000000  0.0222490  3
     17     18     21     23     1  180.0000000  -0.1810534  4
     17     18     21     38     1  0.0000000  -0.1444826  1
     17     18     21     38     1  180.0000000  -0.8335750  2
     17     18     21     38     1  0.0000000  0.0194142  3
     17     18     21     38     1  180.0000000  -0.0450445  4
     18     17     16     34     1  180.0000000  13.6752988  2
     18     19     20     37     1  180.0000000  13.6752988  2
     18     21     22     39     1  0.0000000  3.6778041  1
     18     21     22     39     1  180.0000000  2.9181736  2
     18     21     22     39     1  0.0000000  1.0220108  3
     18     21     22     39     1  180.0000000  0.8738375  4
     18     21     22     45     1  0.0000000  -5.5711032  1
     18     21     22     45     1  180.0000000  2.1862849  2
     18     21     22     45     1  0.0000000  -0.3789673  3
     18     21     22     45     1  180.0000000  -0.5079296  4
     18     21     23     40     1  0.0000000  0.6020980  3
     18     21     23     41     1  0.0000000  0.6020980  3
     18     21     23     42     1  0.0000000  0.6020980  3
     19     18     17     35     1  180.0000000  13.6752988  2
     19     18     21     22     1  0.0000000  0.1827509  1
     19     18     21     22     1  180.0000000  1.4235759  2
     19     18     21     22     1  0.0000000  0.0288771  3
     19     18     21     22     1  180.0000000  -0.2162537  4
     19     18     21     23     1  0.0000000  -0.0447856  1
     19     18     21     23     1  180.0000000  -0.1016246  2
     19     18     21     23     1  0.0000000  0.0222490  3
     19     18     21     23     1  180.0000000  -0.1810534  4
     19     18     21     38     1  0.0000000  -0.1444826  1
     19     18     21     38     1  180.0000000  -0.8335750  2
     19     18     21     38     1  0.0000000  0.0194142  3
     19     18     21     38     1  180.0000000  -0.0450445  4
     20     15     16     34     1  180.0000000  13.6752988  2
     20     19     18     21     1  180.0000000  13.6752988  2
     21     18     17     35     1  180.0000000  13.6752988  2
     21     18     19     36     1  180.0000000  13.6752988  2
     21     22     45     46     1  0.0000000  -1.8829294  1
     21     22     45     46     1  180.0000000  9.6523639  2
     21     22     45     46     1  0.0000000  0.5624679  3
     21     22     45     46     1  180.0000000  -0.5838241  4
     21     22     45     47     1  0.0000000  0.7595881  1
     21     22     45     47     1  180.0000000  8.7531392  2
     21     22     45     47     1  0.0000000  1.1747430  3
     21     22     45     47     1  180.0000000  1.8484704  4
     22     21     23     40     1  0.0000000  0.6020980  3
     22     21     23     41     1  0.0000000  0.6020980  3
     22     21     23     42     1  0.0000000  0.6020980  3
     22     45     47     48     1  0.0000000  -0.0259111  1
     22     45     47     48     1  180.0000000  4.1841426  2
     22     45     47     48     1  0.0000000  -0.0521547  3
     22     45     47     48     1  180.0000000  0.1685062  4
     22     45     47     69     1  0.0000000  -0.0259111  1
     22     45     47     69     1  180.0000000  4.1841426  2
     22     45     47     69     1  0.0000000  -0.0521547  3
     22     45     47     69     1  180.0000000  0.1685062  4
     23     21     22     39     1  0.0000000  -1.5993850  1
     23     21     22     39     1  180.0000000  0.7968884  2
     23     21     22     39     1  0.0000000  1.4376924  3
     23     21     22     39     1  180.0000000  -0.6282509  4
     23     21     22     45     1  0.0000000  -0.3011930  1
     23     21     22     45     1  180.0000000  0.2397493  2
     23     21     22     45     1  0.0000000  -1.5009880  3
     23     21     22     45     1  180.0000000  0.0977526  4
     24      6      5     27     1  180.0000000  13.6752988  2
     25      3      1    178     1  0.0000000  -0.1035888  1
     25      3      1    178     1  180.0000000  2.0973690  2
     25      3      1    178     1  0.0000000  -0.1936175  3
     25      3      1    178     1  180.0000000  -0.0857315  4
     25      3      4     26     1  180.0000000  13.6752988  2
     26      4      5     27     1  180.0000000  13.6752988  2
     32     13     14     33     1  180.0000000  13.6752988  2
     34     16     17     35     1  180.0000000  13.6752988  2
     36     19     20     37     1  180.0000000  13.6752988  2
     38     21     22     39     1  0.0000000  -2.2551005  1
     38     21     22     39     1  180.0000000  1.0484759  2
     38     21     22     39     1  0.0000000  1.2048988  3
     38     21     22     39     1  180.0000000  -0.3311261  4
     38     21     22     45     1  0.0000000  3.0663930  1
     38     21     22     45     1  180.0000000  0.2021086  2
     38     21     22     45     1  0.0000000  0.5039470  3
     38     21     22     45     1  180.0000000  0.1559833  4
     38     21     23     40     1  0.0000000  0.9539296  3
     38     21     23     41     1  0.0000000  0.9539296  3
     38     21     23     42     1  0.0000000  0.9539296  3
     39     22     45     46     1  0.0000000  4.1631303  1
     39     22     45     46     1  180.0000000  5.1678144  2
     39     22     45     46     1  0.0000000  -0.0543892  3
     39     22     45     46     1  180.0000000  -0.6179288  4
     39     22     45     47     1  0.0000000  2.4227476  1
     39     22     45     47     1  180.0000000  9.2531306  2
     39     22     45     47     1  0.0000000  0.4005233  3
     39     22     45     47     1  180.0000000  0.6207233  4
     43     24     25     44     1  180.0000000  13.6752988  2
     45     47     48     49     1  180.0000000  13.6752988  2
     45     47     48     70     1  180.0000000  13.6752988  2
     45     47     69     68     1  180.0000000  13.6752988  2
     45     47     69     88     1  180.0000000  13.6752988  2
     46     45     47     48     1  0.0000000  0.0110907  1
     46     45     47     48     1  180.0000000  -0.2163593  2
     46     45     47     48     1  0.0000000  0.1147625  3
     46     45     47     48     1  180.0000000  0.2955211  4
     46     45     47     69     1  0.0000000  0.0110907  1
     46     45     47     69     1  180.0000000  -0.2163593  2
     46     45     47     69     1  0.0000000  0.1147625  3
     46     45     47     69     1  180.0000000  0.2955211  4
     47     48     49     50     1  180.0000000  13.6752988  2
     47     48     49     71     1  180.0000000  13.6752988  2
     47     69     68     50     1  180.0000000  13.6752988  2
     47     69     68     87     1  180.0000000  13.6752988  2
     48     47     69     68     1  180.0000000  13.6752988  2
     48     47     69     88     1  180.0000000  13.6752988  2
     48     49     50     51     1  180.0000000  13.6752988  2
     48     49     50     68     1  180.0000000  13.6752988  2
     49     48     47     69     1  180.0000000  13.6752988  2
     49     50     51     52     1  0.0000000  -0.3104529  1
     49     50     51     52     1  180.0000000  5.5916842  2
     49     50     51     52     1  0.0000000  -0.3501756  3
     49     50     51     52     1  180.0000000  -0.2401493  4
     49     50     51     58     1  0.0000000  0.3374007  1
     49     50     51     58     1  180.0000000  6.2743214  2
     49     50     51     58     1  0.0000000  0.3658606  3
     49     50     51     58     1  180.0000000  1.9822818  4
     49     50     68     69     1  180.0000000  13.6752988  2
     49     50     68     87     1  180.0000000  13.6752988  2
     50     49     48     70     1  180.0000000  13.6752988  2
     50     51     52     53     1  180.0000000  13.6752988  2
     50     51     52     59     1  180.0000000  13.6752988  2
     50     51     58     57     1  180.0000000  13.6752988  2
     50     51     58     77     1  180.0000000  13.6752988  2
     50     68     69     88     1  180.0000000  13.6752988  2
     51     50     49     71     1  180.0000000  13.6752988  2
     51     50     68     69     1  180.0000000  13.6752988  2
     51     50     68     87     1  180.0000000  13.6752988  2
     51     52     53     54     1  180.0000000  13.6752988  2
     51     52     53     72     1  180.0000000  13.6752988  2
     51     52     59     60     1  180.0000000  5.1777217  2
     51     52     59     64     1  180.0000000  5.1777217  2
     51     58     57     54     1  180.0000000  13.6752988  2
     51     58     57     76     1  180.0000000  13.6752988  2
     52     51     50     68     1  0.0000000  -0.3104529  1
     52     51     50     68     1  180.0000000  5.5916842  2
     52     51     50     68     1  0.0000000  -0.3501756  3
     52     51     50     68     1  180.0000000  -0.2401493  4
     52     51     58     57     1  180.0000000  13.6752988  2
     52     51     58     77     1  180.0000000  13.6752988  2
     52     53     54     55     1  180.0000000  13.6752988  2
     52     53     54     57     1  180.0000000  13.6752988  2
     52     59     60     61     1  180.0000000  13.6752988  2
     52     59     60     78     1  180.0000000  13.6752988  2
     52     59     64     63     1  180.0000000  13.6752988  2
     52     59     64     81     1  180.0000000  13.6752988  2
     53     52     51     58     1  180.0000000  13.6752988  2
     53     52     59     60     1  180.0000000  5.1777217  2
     53     52     59     64     1  180.0000000  5.1777217  2
     53     54     55     56     1  0.0000000  0.2294017  1
     53     54     55     56     1  180.0000000  9.7412762  2
     53     54     55     56     1  0.0000000  1.1472183  3
     53     54     55     56     1  180.0000000  0.6722126  4
     53     54     57     58     1  180.0000000  13.6752988  2
     53     54     57     76     1  180.0000000  13.6752988  2
     54     53     52     59     1  180.0000000  13.6752988  2
     54     55     56     73     1  0.0000000  1.1008580  3
     54     55     56     74     1  0.0000000  1.1008580  3
     54     55     56     75     1  0.0000000  1.1008580  3
     54     57     58     77     1  180.0000000  13.6752988  2
     55     54     53     72     1  180.0000000  13.6752988  2
     55     54     57     58     1  180.0000000  13.6752988  2
     55     54     57     76     1  180.0000000  13.6752988  2
     56     55     54     57     1  0.0000000  0.2294017  1
     56     55     54     57     1  180.0000000  9.7412762  2
     56     55     54     57     1  0.0000000  1.1472183  3
     56     55     54     57     1  180.0000000  0.6722126  4
     57     54     53     72     1  180.0000000  13.6752988  2
     58     51     50     68     1  0.0000000  0.3374007  1
     58     51     50     68     1  180.0000000  6.2743214  2
     58     51     50     68     1  0.0000000  0.3658606  3
     58     51     50     68     1  180.0000000  1.9822818  4
     58     51     52     59     1  180.0000000  13.6752988  2
     59     52     53     72     1  180.0000000  13.6752988  2
     59     60     61     62     1  180.0000000  13.6752988  2
     59     60     61     79     1  180.0000000  13.6752988  2
     59     64     63     62     1  180.0000000  13.6752988  2
     59     64     63     80     1  180.0000000  13.6752988  2
     60     59     64     63     1  180.0000000  13.6752988  2
     60     59     64     81     1  180.0000000  13.6752988  2
     60     61     62     63     1  180.0000000  13.6752988  2
     60     61     62     65     1  180.0000000  13.6752988  2
     61     60     59     64     1  180.0000000  13.6752988  2
     61     62     63     64     1  180.0000000  13.6752988  2
     61     62     63     80     1  180.0000000  13.6752988  2
     61     62     65     66     1  0.0000000  0.1827509  1
     61     62     65     66     1  180.0000000  1.4235759  2
     61     62     65     66     1  0.0000000  0.0288771  3
     61     62     65     66     1  180.0000000  -0.2162537  4
     61     62     65     67     1  0.0000000  -0.0447856  1
     61     62     65     67     1  180.0000000  -0.1016246  2
     61     62     65     67     1  0.0000000  0.0222490  3
     61     62     65     67     1  180.0000000  -0.1810534  4
     61     62     65     82     1  0.0000000  -0.1444826  1
     61     62     65     82     1  180.0000000  -0.8335750  2
     61     62     65     82     1  0.0000000  0.0194142  3
     61     62     65     82     1  180.0000000  -0.0450445  4
     62     61     60     78     1  180.0000000  13.6752988  2
     62     63     64     81     1  180.0000000  13.6752988  2
     62     65     66     83     1  0.0000000  3.6778041  1
     62     65     66     83     1  180.0000000  2.9181736  2
     62     65     66     83     1  0.0000000  1.0220108  3
     62     65     66     83     1  180.0000000  0.8738375  4
     62     65     66     89     1  0.0000000  -5.5711032  1
     62     65     66     89     1  180.0000000  2.1862849  2
     62     65     66     89     1  0.0000000  -0.3789673  3
     62     65     66     89     1  180.0000000  -0.5079296  4
     62     65     67     84     1  0.0000000  0.6020980  3
     62     65     67     85     1  0.0000000  0.6020980  3
     62     65     67     86     1  0.0000000  0.6020980  3
     63     62     61     79     1  180.0000000  13.6752988  2
     63     62     65     66     1  0.0000000  0.1827509  1
     63     62     65     66     1  180.0000000  1.4235759  2
     63     62     65     66     1  0.0000000  0.0288771  3
     63     62     65     66     1  180.0000000  -0.2162537  4
     63     62     65     67     1  0.0000000  -0.0447856  1
     63     62     65     67     1  180.0000000  -0.1016246  2
     63     62     65     67     1  0.0000000  0.0222490  3
     63     62     65     67     1  180.0000000  -0.1810534  4
     63     62     65     82     1  0.0000000  -0.1444826  1
     63     62     65     82     1  180.0000000  -0.8335750  2
     63     62     65     82     1  0.0000000  0.0194142  3
     63     62     65     82     1  180.0000000  -0.0450445  4
     64     59     60     78     1  180.0000000  13.6752988  2
     64     63     62     65     1  180.0000000  13.6752988  2
     65     62     61     79     1  180.0000000  13.6752988  2
     65     62     63     80     1  180.0000000  13.6752988  2
     65     66     89     90     1  0.0000000  -1.8829294  1
     65     66     89     90     1  180.0000000  9.6523639  2
     65     66     89     90     1  0.0000000  0.5624679  3
     65     66     89     90     1  180.0000000  -0.5838241  4
     65     66     89     91     1  0.0000000  0.7595881  1
     65     66     89     91     1  180.0000000  8.7531392  2
     65     66     89     91     1  0.0000000  1.1747430  3
     65     66     89     91     1  180.0000000  1.8484704  4
     66     65     67     84     1  0.0000000  0.6020980  3
     66     65     67     85     1  0.0000000  0.6020980  3
     66     65     67     86     1  0.0000000  0.6020980  3
     66     89     91     92     1  0.0000000  -0.0259111  1
     66     89     91     92     1  180.0000000  4.1841426  2
     66     89     91     92     1  0.0000000  -0.0521547  3
     66     89     91     92     1  180.0000000  0.1685062  4
     66     89     91    113     1  0.0000000  -0.0259111  1
     66     89     91    113     1  180.0000000  4.1841426  2
     66     89     91    113     1  0.0000000  -0.0521547  3
     66     89     91    113     1  180.0000000  0.1685062  4
     67     65     66     83     1  0.0000000  -1.5993850  1
     67     65     66     83     1  180.0000000  0.7968884  2
     67     65     66     83     1  0.0000000  1.4376924  3
     67     65     66     83     1  180.0000000  -0.6282509  4
     67     65     66     89     1  0.0000000  -0.3011930  1
     67     65     66     89     1  180.0000000  0.2397493  2
     67     65     66     89     1  0.0000000  -1.5009880  3
     67     65     66     89     1  180.0000000  0.0977526  4
     68     50     49     71     1  180.0000000  13.6752988  2
     69     47     48     70     1  180.0000000  13.6752988  2
     70     48     49     71     1  180.0000000  13.6752988  2
     76     57     58     77     1  180.0000000  13.6752988  2
     78     60     61     79     1  180.0000000  13.6752988  2
     80     63     64     81     1  180.0000000  13.6752988  2
     82     65     66     83     1  0.0000000  -2.2551005  1
     82     65     66     83     1  180.0000000  1.0484759  2
     82     65     66     83     1  0.0000000  1.2048988  3
     82     65     66     83     1  180.0000000  -0.3311261  4
     82     65     66     89     1  0.0000000  3.0663930  1
     82     65     66     89     1  180.0000000  0.2021086  2
     82     65     66     89     1  0.0000000  0.5039470  3
     82     65     66     89     1  180.0000000  0.1559833  4
     82     65     67     84     1  0.0000000  0.9539296  3
     82     65     67     85     1  0.0000000  0.9539296  3
     82     65     67     86     1  0.0000000  0.9539296  3
     83     66     89     90     1  0.0000000  4.1631303  1
     83     66     89     90     1  180.0000000  5.1678144  2
     83     66     89     90     1  0.0000000  -0.0543892  3
     83     66     89     90     1  180.0000000  -0.6179288  4
     83     66     89     91     1  0.0000000  2.4227476  1
     83     66     89     91     1  180.0000000  9.2531306  2
     83     66     89     91     1  0.0000000  0.4005233  3
     83     66     89     91     1  180.0000000  0.6207233  4
     87     68     69     88     1  180.0000000  13.6752988  2
     89     91     92     93     1  180.0000000  13.6752988  2
     89     91     92    114     1  180.0000000  13.6752988  2
     89     91    113    112     1  180.0000000  13.6752988  2
     89     91    113    132     1  180.0000000  13.6752988  2
     90     89     91     92     1  0.0000000  0.0110907  1
     90     89     91     92     1  180.0000000  -0.2163593  2
     90     89     91     92     1  0.0000000  0.1147625  3
     90     89     91     92     1  180.0000000  0.2955211  4
     90     89     91    113     1  0.0000000  0.0110907  1
     90     89     91    113     1  180.0000000  -0.2163593  2
     90     89     91    113     1  0.0000000  0.1147625  3
     90     89     91    113     1  180.0000000  0.2955211  4
     91     92     93     94     1  180.0000000  13.6752988  2
     91     92     93    115     1  180.0000000  13.6752988  2
     91    113    112     94     1  180.0000000  13.6752988  2
     91    113    112    131     1  180.0000000  13.6752988  2
     92     91    113    112     1  180.0000000  13.6752988  2
     92     91    113    132     1  180.0000000  13.6752988  2
     92     93     94     95     1  180.0000000  13.6752988  2
     92     93     94    112     1  180.0000000  13.6752988  2
     93     92     91    113     1  180.0000000  13.6752988  2
     93     94     95     96     1  0.0000000  -0.3104529  1
     93     94     95     96     1  180.0000000  5.5916842  2
     93     94     95     96     1  0.0000000  -0.3501756  3
     93     94     95     96     1  180.0000000  -0.2401493  4
     93     94     95    102     1  0.0000000  0.3374007  1
     93     94     95    102     1  180.0000000  6.2743214  2
     93     94     95    102     1  0.0000000  0.3658606  3
     93     94     95    102     1  180.0000000  1.9822818  4
     93     94    112    113     1  180.0000000  13.6752988  2
     93     94    112    131     1  180.0000000  13.6752988  2
     94     93     92    114     1  180.0000000  13.6752988  2
     94     95     96     97     1  180.0000000  13.6752988  2
     94     95     96    103     1  180.0000000  13.6752988  2
     94     95    102    101     1  180.0000000  13.6752988  2
     94     95    102    121     1  180.0000000  13.6752988  2
     94    112    113    132     1  180.0000000  13.6752988  2
     95     94     93    115     1  180.0000000  13.6752988  2
     95     94    112    113     1  180.0000000  13.6752988  2
     95     94    112    131     1  180.0000000  13.6752988  2
     95     96     97     98     1  180.0000000  13.6752988  2
     95     96     97    116     1  180.0000000  13.6752988  2
     95     96    103    104     1  180.0000000  5.1777217  2
     95     96    103    108     1  180.0000000  5.1777217  2
     95    102    101     98     1  180.0000000  13.6752988  2
     95    102    101    120     1  180.0000000  13.6752988  2
     96     95     94    112     1  0.0000000  -0.3104529  1
     96     95     94    112     1  180.0000000  5.5916842  2
     96     95     94    112     1  0.0000000  -0.3501756  3
     96     95     94    112     1  180.0000000  -0.2401493  4
     96     95    102    101     1  180.0000000  13.6752988  2
     96     95    102    121     1  180.0000000  13.6752988  2
     96     97     98     99     1  180.0000000  13.6752988  2
     96     97     98    101     1  180.0000000  13.6752988  2
     96    103    104    105     1  180.0000000  13.6752988  2
     96    103    104    122     1  180.0000000  13.6752988  2
     96    103    108    107     1  180.0000000  13.6752988  2
     96    103    108    125     1  180.0000000  13.6752988  2
     97     96     95    102     1  180.0000000  13.6752988  2
     97     96    103    104     1  180.0000000  5.1777217  2
     97     96    103    108     1  180.0000000  5.1777217  2
     97     98     99    100     1  0.0000000  0.2294017  1
     97     98     99    100     1  180.0000000  9.7412762  2
     97     98     99    100     1  0.0000000  1.1472183  3
     97     98     99    100     1  180.0000000  0.6722126  4
     97     98    101    102     1  180.0000000  13.6752988  2
     97     98    101    120     1  180.0000000  13.6752988  2
     98     97     96    103     1  180.0000000  13.6752988  2
     98     99    100    117     1  0.0000000  1.1008580  3
     98     99    100    118     1  0.0000000  1.1008580  3
     98     99    100    119     1  0.0000000  1.1008580  3
     98    101    102    121     1  180.0000000  13.6752988  2
     99     98     97    116     1  180.0000000  13.6752988  2
     99     98    101    102     1  180.0000000  13.6752988  2
     99     98    101    120     1  180.0000000  13.6752988  2
    100     99     98    101     1  0.0000000  0.2294017  1
    100     99     98    101     1  180.0000000  9.7412762  2
    100     99     98    101     1  0.0000000  1.1472183  3
    100     99     98    101     1  180.0000000  0.6722126  4
    101     98     97    116     1  180.0000000  13.6752988  2
    102     95     94    112     1  0.0000000  0.3374007  1
    102     95     94    112     1  180.0000000  6.2743214  2
    102     95     94    112     1  0.0000000  0.3658606  3
    102     95     94    112     1  180.0000000  1.9822818  4
    102     95     96    103     1  180.0000000  13.6752988  2
    103     96     97    116     1  180.0000000  13.6752988  2
    103    104    105    106     1  180.0000000  13.6752988  2
    103    104    105    123     1  180.0000000  13.6752988  2
    103    108    107    106     1  180.0000000  13.6752988  2
    103    108    107    124     1  180.0000000  13.6752988  2
    104    103    108    107     1  180.0000000  13.6752988  2
    104    103    108    125     1  180.0000000  13.6752988  2
    104    105    106    107     1  180.0000000  13.6752988  2
    104    105    106    109     1  180.0000000  13.6752988  2
    105    104    103    108     1  180.0000000  13.6752988  2
    105    106    107    108     1  180.0000000  13.6752988  2
    105    106    107    124     1  180.0000000  13.6752988  2
    105    106    109    110     1  0.0000000  0.1827509  1
    105    106    109    110     1  180.0000000  1.4235759  2
    105    106    109    110     1  0.0000000  0.0288771  3
    105    106    109    110     1  180.0000000  -0.2162537  4
    105    106    109    111     1  0.0000000  -0.0447856  1
    105    106    109    111     1  180.0000000  -0.1016246  2
    105    106    109    111     1  0.0000000  0.0222490  3
    105    106    109    111     1  180.0000000  -0.1810534  4
    105    106    109    126     1  0.0000000  -0.1444826  1
    105    106    109    126     1  180.0000000  -0.8335750  2
    105    106    109    126     1  0.0000000  0.0194142  3
    105    106    109    126     1  180.0000000  -0.0450445  4
    106    105    104    122     1  180.0000000  13.6752988  2
    106    107    108    125     1  180.0000000  13.6752988  2
    106    109    110    127     1  0.0000000  3.6778041  1
    106    109    110    127     1  180.0000000  2.9181736  2
    106    109    110    127     1  0.0000000  1.0220108  3
    106    109    110    127     1  180.0000000  0.8738375  4
    106    109    110    133     1  0.0000000  -5.5711032  1
    106    109    110    133     1  180.0000000  2.1862849  2
    106    109    110    133     1  0.0000000  -0.3789673  3
    106    109    110    133     1  180.0000000  -0.5079296  4
    106    109    111    128     1  0.0000000  0.6020980  3
    106    109    111    129     1  0.0000000  0.6020980  3
    106    109    111    130     1  0.0000000  0.6020980  3
    107    106    105    123     1  180.0000000  13.6752988  2
    107    106    109    110     1  0.0000000  0.1827509  1
    107    106    109    110     1  180.0000000  1.4235759  2
    107    106    109    110     1  0.0000000  0.0288771  3
    107    106    109    110     1  180.0000000  -0.2162537  4
    107    106    109    111     1  0.0000000  -0.0447856  1
    107    106    109    111     1  180.0000000  -0.1016246  2
    107    106    109    111     1  0.0000000  0.0222490  3
    107    106    109    111     1  180.0000000  -0.1810534  4
    107    106    109    126     1  0.0000000  -0.1444826  1
    107    106    109    126     1  180.0000000  -0.8335750  2
    107    106    109    126     1  0.0000000  0.0194142  3
    107    106    109    126     1  180.0000000  -0.0450445  4
    108    103    104    122     1  180.0000000  13.6752988  2
    108    107    106    109     1  180.0000000  13.6752988  2
    109    106    105    123     1  180.0000000  13.6752988  2
    109    106    107    124     1  180.0000000  13.6752988  2
    109    110    133    134     1  0.0000000  -1.8829294  1
    109    110    133    134     1  180.0000000  9.6523639  2
    109    110    133    134     1  0.0000000  0.5624679  3
    109    110    133    134     1  180.0000000  -0.5838241  4
    109    110    133    135     1  0.0000000  0.7595881  1
    109    110    133    135     1  180.0000000  8.7531392  2
    109    110    133    135     1  0.0000000  1.1747430  3
    109    110    133    135     1  180.0000000  1.8484704  4
    110    109    111    128     1  0.0000000  0.6020980  3
    110    109    111    129     1  0.0000000  0.6020980  3
    110    109    111    130     1  0.0000000  0.6020980  3
    110    133    135    136     1  0.0000000  -0.0259111  1
    110    133    135    136     1  180.0000000  4.1841426  2
    110    133    135    136     1  0.0000000  -0.0521547  3
    110    133    135    136     1  180.0000000  0.1685062  4
    110    133    135    157     1  0.0000000  -0.0259111  1
    110    133    135    157     1  180.0000000  4.1841426  2
    110    133    135    157     1  0.0000000  -0.0521547  3
    110    133    135    157     1  180.0000000  0.1685062  4
    111    109    110    127     1  0.0000000  -1.5993850  1
    111    109    110    127     1  180.0000000  0.7968884  2
    111    109    110    127     1  0.0000000  1.4376924  3
    111    109    110    127     1  180.0000000  -0.6282509  4
    111    109    110    133     1  0.0000000  -0.3011930  1
    111    109    110    133     1  180.0000000  0.2397493  2
    111    109    110    133     1  0.0000000  -1.5009880  3
    111    109    110    133     1  180.0000000  0.0977526  4
    112     94     93    115     1  180.0000000  13.6752988  2
    113     91     92    114     1  180.0000000  13.6752988  2
    114     92     93    115     1  180.0000000  13.6752988  2
    120    101    102    121     1  180.0000000  13.6752988  2
    122    104    105    123     1  180.0000000  13.6752988  2
    124    107    108    125     1  180.0000000  13.6752988  2
    126    109    110    127     1  0.0000000  -2.2551005  1
    126    109    110    127     1  180.0000000  1.0484759  2
    126    109    110    127     1  0.0000000  1.2048988  3
    126    109    110    127     1  180.0000000  -0.3311261  4
    126    109    110    133     1  0.0000000  3.0663930  1
    126    109    110    133     1  180.0000000  0.2021086  2
    126    109    110    133     1  0.0000000  0.5039470  3
    126    109    110    133     1  180.0000000  0.1559833  4
    126    109    111    128     1  0.0000000  0.9539296  3
    126    109    111    129     1  0.0000000  0.9539296  3
    126    109    111    130     1  0.0000000  0.9539296  3
    127    110    133    134     1  0.0000000  4.1631303  1
    127    110    133    134     1  180.0000000  5.1678144  2
    127    110    133    134     1  0.0000000  -0.0543892  3
    127    110    133    134     1  180.0000000  -0.6179288  4
    127    110    133    135     1  0.0000000  2.4227476  1
    127    110    133    135     1  180.0000000  9.2531306  2
    127    110    133    135     1  0.0000000  0.4005233  3
    127    110    133    135     1  180.0000000  0.6207233  4
    131    112    113    132     1  180.0000000  13.6752988  2
    133    135    136    137     1  180.0000000  13.6752988  2
    133    135    136    158     1  180.0000000  13.6752988  2
    133    135    157    156     1  180.0000000  13.6752988  2
    133    135    157    176     1  180.0000000  13.6752988  2
    134    133    135    136     1  0.0000000  0.0110907  1
    134    133    135    136     1  180.0000000  -0.2163593  2
    134    133    135    136     1  0.0000000  0.1147625  3
    134    133    135    136     1  180.0000000  0.2955211  4
    134    133    135    157     1  0.0000000  0.0110907  1
    134    133    135    157     1  180.0000000  -0.2163593  2
    134    133    135    157     1  0.0000000  0.1147625  3
    134    133    135    157     1  180.0000000  0.2955211  4
    135    136    137    138     1  180.0000000  13.6752988  2
    135    136    137    159     1  180.0000000  13.6752988  2
    135    157    156    138     1  180.0000000  13.6752988  2
    135    157    156    175     1  180.0000000  13.6752988  2
    136    135    157    156     1  180.0000000  13.6752988  2
    136    135    157    176     1  180.0000000  13.6752988  2
    136    137    138    139     1  180.0000000  13.6752988  2
    136    137    138    156     1  180.0000000  13.6752988  2
    137    136    135    157     1  180.0000000  13.6752988  2
    137    138    139    140     1  0.0000000  -0.3104529  1
    137    138    139    140     1  180.0000000  5.5916842  2
    137    138    139    140     1  0.0000000  -0.3501756  3
    137    138    139    140     1  180.0000000  -0.2401493  4
    137    138    139    146     1  0.0000000  0.3374007  1
    137    138    139    146     1  180.0000000  6.2743214  2
    137    138    139    146     1  0.0000000  0.3658606  3
    137    138    139    146     1  180.0000000  1.9822818  4
    137    138    156    157     1  180.0000000  13.6752988  2
    137    138    156    175     1  180.0000000  13.6752988  2
    138    137    136    158     1  180.0000000  13.6752988  2
    138    139    140    141     1  180.0000000  13.6752988  2
    138    139    140    147     1  180.0000000  13.6752988  2
    138    139    146    145     1  180.0000000  13.6752988  2
    138    139    146    165     1  180.0000000  13.6752988  2
    138    156    157    176     1  180.0000000  13.6752988  2
    139    138    137    159     1  180.0000000  13.6752988  2
    139    138    156    157     1  180.0000000  13.6752988  2
    139    138    156    175     1  180.0000000  13.6752988  2
    139    140    141    142     1  180.0000000  13.6752988  2
    139    140    141    160     1  180.0000000  13.6752988  2
    139    140    147    148     1  180.0000000  5.1777217  2
    139    140    147    152     1  180.0000000  5.1777217  2
    139    146    145    142     1  180.0000000  13.6752988  2
    139    146    145    164     1  180.0000000  13.6752988  2
    140    139    138    156     1  0.0000000  -0.3104529  1
    140    139    138    156     1  180.0000000  5.5916842  2
    140    139    138    156     1  0.0000000  -0.3501756  3
    140    139    138    156     1  180.0000000  -0.2401493  4
    140    139    146    145     1  180.0000000  13.6752988  2
    140    139    146    165     1  180.0000000  13.6752988  2
    140    141    142    143     1  180.0000000  13.6752988  2
    140    141    142    145     1  180.0000000  13.6752988  2
    140    147    148    149     1  180.0000000  13.6752988  2
    140    147    148    166     1  180.0000000  13.6752988  2
    140    147    152    151     1  180.0000000  13.6752988  2
    140    147    152    169     1  180.0000000  13.6752988  2
    141    140    139    146     1  180.0000000  13.6752988  2
    141    140    147    148     1  180.0000000  5.1777217  2
    141    140    147    152     1  180.0000000  5.1777217  2
    141    142    143    144     1  0.0000000  0.2294017  1
    141    142    143    144     1  180.0000000  9.7412762  2
    141    142    143    144     1  0.0000000  1.1472183  3
    141    142    143    144     1  180.0000000  0.6722126  4
    141    142    145    146     1  180.0000000  13.6752988  2
    141    142    145    164     1  180.0000000  13.6752988  2
    142    141    140    147     1  180.0000000  13.6752988  2
    142    143    144    161     1  0.0000000  1.1008580  3
    142    143    144    162     1  0.0000000  1.1008580  3
    142    143    144    163     1  0.0000000  1.1008580  3
    142    145    146    165     1  180.0000000  13.6752988  2
    143    142    141    160     1  180.0000000  13.6752988  2
    143    142    145    146     1  180.0000000  13.6752988  2
    143    142    145    164     1  180.0000000  13.6752988  2
    144    143    142    145     1  0.0000000  0.2294017  1
    144    143    142    145     1  180.0000000  9.7412762  2
    144    143    142    145     1  0.0000000  1.1472183  3
    144    143    142    145     1  180.0000000  0.6722126  4
    145    142    141    160     1  180.0000000  13.6752988  2
    146    139    138    156     1  0.0000000  0.3374007  1
    146    139    138    156     1  180.0000000  6.2743214  2
    146    139    138    156     1  0.0000000  0.3658606  3
    146    139    138    156     1  180.0000000  1.9822818  4
    146    139    140    147     1  180.0000000  13.6752988  2
    147    140    141    160     1  180.0000000  13.6752988  2
    147    148    149    150     1  180.0000000  13.6752988  2
    147    148    149    167     1  180.0000000  13.6752988  2
    147    152    151    150     1  180.0000000  13.6752988  2
    147    152    151    168     1  180.0000000  13.6752988  2
    148    147    152    151     1  180.0000000  13.6752988  2
    148    147    152    169     1  180.0000000  13.6752988  2
    148    149    150    151     1  180.0000000  13.6752988  2
    148    149    150    153     1  180.0000000  13.6752988  2
    149    148    147    152     1  180.0000000  13.6752988  2
    149    150    151    152     1  180.0000000  13.6752988  2
    149    150    151    168     1  180.0000000  13.6752988  2
    149    150    153    154     1  0.0000000  0.1621440  1
    149    150    153    154     1  180.0000000  1.0440364  2
    149    150    153    154     1  0.0000000  0.2645817  3
    149    150    153    154     1  180.0000000  0.2233173  4
    149    150    153    155     1  0.0000000  -0.0663963  1
    149    150    153    155     1  180.0000000  0.0285930  2
    149    150    153    155     1  0.0000000  0.2723852  3
    149    150    153    155     1  180.0000000  0.2211485  4
    149    150    153    170     1  0.0000000  -0.0961184  1
    149    150    153    170     1  180.0000000  -0.7539868  2
    149    150    153    170     1  0.0000000  0.2661140  3
    149    150    153    170     1  180.0000000  0.3187386  4
    150    149    148    166     1  180.0000000  13.6752988  2
    150    151    152    169     1  180.0000000  13.6752988  2
    150    153    154    171     1  0.0000000  2.4039576  1
    150    153    154    171     1  180.0000000  1.1356328  2
    150    153    154    171     1  0.0000000  0.4747278  3
    150    153    154    171     1  180.0000000  0.2501738  4
    150    153    154    187     1  0.0000000  -4.7914620  1
    150    153    154    187     1  180.0000000  2.4573188  2
    150    153    154    187     1  0.0000000  -1.1921511  3
    150    153    154    187     1  180.0000000  -0.1653612  4
    150    153    155    172     1  0.0000000  0.6020980  3
    150    153    155    173     1  0.0000000  0.6020980  3
    150    153    155    174     1  0.0000000  0.6020980  3
    151    150    149    167     1  180.0000000  13.6752988  2
    151    150    153    154     1  0.0000000  0.1621440  1
    151    150    153    154     1  180.0000000  1.0440364  2
    151    150    153    154     1  0.0000000  0.2645817  3
    151    150    153    154     1  180.0000000  0.2233173  4
    151    150    153    155     1  0.0000000  -0.0663963  1
    151    150    153    155     1  180.0000000  0.0285930  2
    151    150    153    155     1  0.0000000  0.2723852  3
    151    150    153    155     1  180.0000000  0.2211485  4
    151    150    153    170     1  0.0000000  -0.0961184  1
    151    150    153    170     1  180.0000000  -0.7539868  2
    151    150    153    170     1  0.0000000  0.2661140  3
    151    150    153    170     1  180.0000000  0.3187386  4
    152    147    148    166     1  180.0000000  13.6752988  2
    152    151    150    153     1  180.0000000  13.6752988  2
    153    150    149    167     1  180.0000000  13.6752988  2
    153    150    151    168     1  180.0000000  13.6752988  2
    153    154    187    186     1  0.0000000  1.0397504  1
    153    154    187    186     1  180.0000000  8.3115197  2
    153    154    187    186     1  0.0000000  0.2086762  3
    153    154    187    186     1  180.0000000  -0.4303245  4
    153    154    187    188     1  0.0000000  1.2546636  1
    153    154    187    188     1  180.0000000  7.8125699  2
    153    154    187    188     1  0.0000000  1.5431837  3
    153    154    187    188     1  180.0000000  -1.0717968  4
    154    153    155    172     1  0.0000000  0.6020980  3
    154    153    155    173     1  0.0000000  0.6020980  3
    154    153    155    174     1  0.0000000  0.6020980  3
    154    187    186    183     1  0.0000000  1.6774689  1
    154    187    186    183     1  180.0000000  18.3762392  2
    154    187    186    183     1  0.0000000  -0.1959689  3
    154    187    186    183     1  180.0000000  2.1120338  4
    155    153    154    171     1  0.0000000  -1.4598242  1
    155    153    154    171     1  180.0000000  1.6525453  2
    155    153    154    171     1  0.0000000  0.5195906  3
    155    153    154    171     1  180.0000000  -0.0177829  4
    155    153    154    187     1  0.0000000  -0.6517322  1
    155    153    154    187     1  180.0000000  -0.2085392  2
    155    153    154    187     1  0.0000000  -1.6379615  3
    155    153    154    187     1  180.0000000  -0.4319335  4
    156    138    137    159     1  180.0000000  13.6752988  2
    157    135    136    158     1  180.0000000  13.6752988  2
    158    136    137    159     1  180.0000000  13.6752988  2
    164    145    146    165     1  180.0000000  13.6752988  2
    166    148    149    167     1  180.0000000  13.6752988  2
    168    151    152    169     1  180.0000000  13.6752988  2
    170    153    154    171     1  0.0000000  -1.1086536  1
    170    153    154    171     1  180.0000000  1.4339657  2
    170    153    154    171     1  0.0000000  0.4521079  3
    170    153    154    171     1  180.0000000  -0.0489000  4
    170    153    154    187     1  0.0000000  2.6282771  1
    170    153    154    187     1  180.0000000  0.5082180  2
    170    153    154    187     1  0.0000000  -0.0252197  3
    170    153    154    187     1  180.0000000  -0.0769240  4
    170    153    155    172     1  0.0000000  0.9539296  3
    170    153    155    173     1  0.0000000  0.9539296  3
    170    153    155    174     1  0.0000000  0.9539296  3
    171    154    187    186     1  0.0000000  2.0543940  1
    171    154    187    186     1  180.0000000  8.6325049  2
    171    154    187    186     1  0.0000000  -0.1476518  3
    171    154    187    186     1  180.0000000  -0.9720459  4
    171    154    187    188     1  0.0000000  4.7025266  1
    171    154    187    188     1  180.0000000  2.0378597  2
    171    154    187    188     1  0.0000000  1.2316296  3
    171    154    187    188     1  180.0000000  -1.4701442  4
    175    156    157    176     1  180.0000000  13.6752988  2
    182    183    184    192     1  0.0000000  0.4122821  3
    182    183    184    193     1  0.0000000  0.4122821  3
    182    183    184    194     1  0.0000000  0.4122821  3
    182    183    185    195     1  0.0000000  0.4122821  3
    182    183    185    196     1  0.0000000  0.4122821  3
    182    183    185    197     1  0.0000000  0.4122821  3
    182    183    186    187     1  0.0000000  1.5889861  1
    182    183    186    187     1  180.0000000  0.1982482  2
    182    183    186    187     1  0.0000000  -1.7450620  3
    182    183    186    187     1  180.0000000  1.2618900  4
    183    186    187    188     1  0.0000000  3.8798912  1
    183    186    187    188     1  180.0000000  4.7964278  2
    183    186    187    188     1  0.0000000  0.5233958  3
    183    186    187    188     1  180.0000000  0.6758884  4
    184    183    182    189     1  0.0000000  0.4122821  3
    184    183    182    190     1  0.0000000  0.4122821  3
    184    183    182    191     1  0.0000000  0.4122821  3
    184    183    185    195     1  0.0000000  0.4122821  3
    184    183    185    196     1  0.0000000  0.4122821  3
    184    183    185    197     1  0.0000000  0.4122821  3
    184    183    186    187     1  0.0000000  1.5889861  1
    184    183    186    187     1  180.0000000  0.1982482  2
    184    183    186    187     1  0.0000000  -1.7450620  3
    184    183    186    187     1  180.0000000  1.2618900  4
    185    183    182    189     1  0.0000000  0.4122821  3
    185    183    182    190     1  0.0000000  0.4122821  3
    185    183    182    191     1  0.0000000  0.4122821  3
    185    183    184    192     1  0.0000000  0.4122821  3
    185    183    184    193     1  0.0000000  0.4122821  3
    185    183    184    194     1  0.0000000  0.4122821  3
    185    183    186    187     1  0.0000000  1.5889861  1
    185    183    186    187     1  180.0000000  0.1982482  2
    185    183    186    187     1  0.0000000  -1.7450620  3
    185    183    186    187     1  180.0000000  1.2618900  4
    186    183    182    189     1  0.0000000  0.5486676  3
    186    183    182    189     1  0.0000000  1.8265113  1
    186    183    182    190     1  0.0000000  0.5486676  3
    186    183    182    190     1  0.0000000  1.8265113  1
    186    183    182    191     1  0.0000000  0.5486676  3
    186    183    182    191     1  0.0000000  1.8265113  1
    186    183    184    192     1  0.0000000  0.5486676  3
    186    183    184    192     1  0.0000000  1.8265113  1
    186    183    184    193     1  0.0000000  0.5486676  3
    186    183    184    193     1  0.0000000  1.8265113  1
    186    183    184    194     1  0.0000000  0.5486676  3
    186    183    184    194     1  0.0000000  1.8265113  1
    186    183    185    195     1  0.0000000  0.5486676  3
    186    183    185    195     1  0.0000000  1.8265113  1
    186    183    185    196     1  0.0000000  0.5486676  3
    186    183    185    196     1  0.0000000  1.8265113  1
    186    183    185    197     1  0.0000000  0.5486676  3
    186    183    185    197     1  0.0000000  1.8265113  1
    150    149    151    153     4  180.0000000  7.2952092  2
     15      8     16     20     4  180.0000000  7.2952092  2
     94     95    112     93     4  180.0000000  7.2952092  2
      1      3    178      2     4  180.0000000  18.0130916  2
     24     43      6     25     4  180.0000000  7.2952092  2
     92     93    114     91     4  180.0000000  7.2952092  2
     24     25     43      6     4  180.0000000  7.2952092  2
     57     76     54     58     4  180.0000000  7.2952092  2
     63     64     80     62     4  180.0000000  7.2952092  2
      1    178      2      3     4  180.0000000  18.0130916  2
     69     68     88     47     4  180.0000000  7.2952092  2
     22     45     21     39     4  180.0000000  1.7520674  2
    104    103    105    122     4  180.0000000  7.2952092  2
     24      6     25     43     4  180.0000000  7.2952092  2
    187    188    154    186     4  180.0000000  18.0130916  2
    104    105    122    103     4  180.0000000  7.2952092  2
    148    147    149    166     4  180.0000000  7.2952092  2
      5      4      6     27     4  180.0000000  7.2952092  2
     49     48     50     71     4  180.0000000  7.2952092  2
    139    138    140    146     4  180.0000000  7.2952092  2
    139    146    138    140     4  180.0000000  7.2952092  2
     68     50     69     87     4  180.0000000  7.2952092  2
    104    122    103    105     4  180.0000000  7.2952092  2
    154    187    153    171     4  180.0000000  1.7520674  2
    146    139    145    165     4  180.0000000  7.2952092  2
     94     93     95    112     4  180.0000000  7.2952092  2
      3      4     25      1     4  180.0000000  7.2952092  2
     18     21     17     19     4  180.0000000  7.2952092  2
     51     52     58     50     4  180.0000000  7.2952092  2
    137    159    136    138     4  180.0000000  7.2952092  2
    147    140    148    152     4  180.0000000  7.2952092  2
     16     15     17     34     4  180.0000000  7.2952092  2
    157    156    176    135     4  180.0000000  7.2952092  2
    113     91    112    132     4  180.0000000  7.2952092  2
     20     19     37     15     4  180.0000000  7.2952092  2
    106    105    107    109     4  180.0000000  7.2952092  2
      8      9     15      7     4  180.0000000  7.2952092  2
    148    166    147    149     4  180.0000000  7.2952092  2
     61     60     62     79     4  180.0000000  7.2952092  2
     96     97    103     95     4  180.0000000  7.2952092  2
    150    153    149    151     4  180.0000000  7.2952092  2
    135    133    136    157     4  180.0000000  7.2952092  2
    154    171    187    153     4  180.0000000  1.7520674  2
     58     51     57     77     4  180.0000000  7.2952092  2
     68     87     50     69     4  180.0000000  7.2952092  2
    146    145    165    139     4  180.0000000  7.2952092  2
    133    135    110    134     4  180.0000000  7.2952092  2
    149    148    150    167     4  180.0000000  7.2952092  2
     50     51     68     49     4  180.0000000  7.2952092  2
    105    104    106    123     4  180.0000000  7.2952092  2
    136    158    135    137     4  180.0000000  7.2952092  2
    151    168    150    152     4  180.0000000  7.2952092  2
     95     94     96    102     4  180.0000000  7.2952092  2
     49     71     48     50     4  180.0000000  7.2952092  2
      8     15      7      9     4  180.0000000  7.2952092  2
    146    165    139    145     4  180.0000000  7.2952092  2
     51     50     52     58     4  180.0000000  7.2952092  2
      8      7      9     15     4  180.0000000  7.2952092  2
    107    108    124    106     4  180.0000000  7.2952092  2
     58     77     51     57     4  180.0000000  7.2952092  2
    102    101    121     95     4  180.0000000  7.2952092  2
     10      9     11     13     4  180.0000000  7.2952092  2
    187    154    186    188     4  180.0000000  18.0130916  2
    136    137    158    135     4  180.0000000  7.2952092  2
     17     18     35     16     4  180.0000000  7.2952092  2
     61     62     79     60     4  180.0000000  7.2952092  2
    138    139    156    137     4  180.0000000  7.2952092  2
    102     95    101    121     4  180.0000000  7.2952092  2
    101    102    120     98     4  180.0000000  7.2952092  2
    147    148    152    140     4  180.0000000  7.2952092  2
     14     13     33      7     4  180.0000000  7.2952092  2
     19     36     18     20     4  180.0000000  7.2952092  2
      1      2      3    178     4  180.0000000  18.0130916  2
    145    146    164    142     4  180.0000000  7.2952092  2
     48     70     47     49     4  180.0000000  7.2952092  2
    141    142    160    140     4  180.0000000  7.2952092  2
     54     57     53     55     4  180.0000000  7.2952092  2
     59     64     52     60     4  180.0000000  7.2952092  2
     52     51     53     59     4  180.0000000  7.2952092  2
    141    160    140    142     4  180.0000000  7.2952092  2
     22     39     45     21     4  180.0000000  1.7520674  2
     64     59     63     81     4  180.0000000  7.2952092  2
    110    127    133    109     4  180.0000000  1.7520674  2
      9     10     28      8     4  180.0000000  7.2952092  2
     95    102     94     96     4  180.0000000  7.2952092  2
     50     49     51     68     4  180.0000000  7.2952092  2
    147    152    140    148     4  180.0000000  7.2952092  2
    154    153    171    187     4  180.0000000  1.7520674  2
    139    140    146    138     4  180.0000000  7.2952092  2
    149    150    167    148     4  180.0000000  7.2952092  2
     14     33      7     13     4  180.0000000  7.2952092  2
     25      3     24     44     4  180.0000000  7.2952092  2
     93     92     94    115     4  180.0000000  7.2952092  2
     47     48     69     45     4  180.0000000  7.2952092  2
     97     96     98    116     4  180.0000000  7.2952092  2
     50     68     49     51     4  180.0000000  7.2952092  2
     96    103     95     97     4  180.0000000  7.2952092  2
     53     54     72     52     4  180.0000000  7.2952092  2
    152    147    151    169     4  180.0000000  7.2952092  2
     15     16     20      8     4  180.0000000  7.2952092  2
    152    151    169    147     4  180.0000000  7.2952092  2
     94    112     93     95     4  180.0000000  7.2952092  2
    150    151    153    149     4  180.0000000  7.2952092  2
    142    145    141    143     4  180.0000000  7.2952092  2
     13     14     32     10     4  180.0000000  7.2952092  2
      4      5     26      3     4  180.0000000  7.2952092  2
    103    104    108     96     4  180.0000000  7.2952092  2
      4      3      5     26     4  180.0000000  7.2952092  2
    152    169    147    151     4  180.0000000  7.2952092  2
     97     98    116     96     4  180.0000000  7.2952092  2
     91     89     92    113     4  180.0000000  7.2952092  2
     68     69     87     50     4  180.0000000  7.2952092  2
     66     89     65     83     4  180.0000000  1.7520674  2
    133    110    134    135     4  180.0000000  7.2952092  2
     54     53     55     57     4  180.0000000  7.2952092  2
    112    131     94    113     4  180.0000000  7.2952092  2
     16     34     15     17     4  180.0000000  7.2952092  2
    110    109    127    133     4  180.0000000  1.7520674  2
      4     26      3      5     4  180.0000000  7.2952092  2
     64     63     81     59     4  180.0000000  7.2952092  2
     61     79     60     62     4  180.0000000  7.2952092  2
    157    176    135    156     4  180.0000000  7.2952092  2
     10     11     13      9     4  180.0000000  7.2952092  2
     54     55     57     53     4  180.0000000  7.2952092  2
    156    157    175    138     4  180.0000000  7.2952092  2
      9      8     10     28     4  180.0000000  7.2952092  2
     92    114     91     93     4  180.0000000  7.2952092  2
     22     21     39     45     4  180.0000000  1.7520674  2
     63     62     64     80     4  180.0000000  7.2952092  2
     89     66     90     91     4  180.0000000  7.2952092  2
      5      6     27      4     4  180.0000000  7.2952092  2
     59     60     64     52     4  180.0000000  7.2952092  2
    110    133    109    127     4  180.0000000  1.7520674  2
     20     37     15     19     4  180.0000000  7.2952092  2
     49     50     71     48     4  180.0000000  7.2952092  2
     69     88     47     68     4  180.0000000  7.2952092  2
     93     94    115     92     4  180.0000000  7.2952092  2
     45     46     47     22     4  180.0000000  7.2952092  2
    141    140    142    160     4  180.0000000  7.2952092  2
      6     24      5      7     4  180.0000000  7.2952092  2
     60     61     78     59     4  180.0000000  7.2952092  2
     57     58     76     54     4  180.0000000  7.2952092  2
     53     72     52     54     4  180.0000000  7.2952092  2
     17     16     18     35     4  180.0000000  7.2952092  2
     98     99    101     97     4  180.0000000  7.2952092  2
      5     27      4      6     4  180.0000000  7.2952092  2
      7      6      8     14     4  180.0000000  7.2952092  2
    156    175    138    157     4  180.0000000  7.2952092  2
     91    113     89     92     4  180.0000000  7.2952092  2
    145    142    146    164     4  180.0000000  7.2952092  2
     13     10     14     32     4  180.0000000  7.2952092  2
    108    125    103    107     4  180.0000000  7.2952092  2
     96     95     97    103     4  180.0000000  7.2952092  2
     18     17     19     21     4  180.0000000  7.2952092  2
    140    141    147    139     4  180.0000000  7.2952092  2
    137    136    138    159     4  180.0000000  7.2952092  2
     98     97     99    101     4  180.0000000  7.2952092  2
     15     20      8     16     4  180.0000000  7.2952092  2
    148    149    166    147     4  180.0000000  7.2952092  2
     18     19     21     17     4  180.0000000  7.2952092  2
     66     83     89     65     4  180.0000000  1.7520674  2
      6      7     24      5     4  180.0000000  7.2952092  2
    140    139    141    147     4  180.0000000  7.2952092  2
     69     47     68     88     4  180.0000000  7.2952092  2
     97    116     96     98     4  180.0000000  7.2952092  2
     10     13      9     11     4  180.0000000  7.2952092  2
    103    108     96    104     4  180.0000000  7.2952092  2
     60     78     59     61     4  180.0000000  7.2952092  2
     19     18     20     36     4  180.0000000  7.2952092  2
     62     65     61     63     4  180.0000000  7.2952092  2
     25     44      3     24     4  180.0000000  7.2952092  2
     95     96    102     94     4  180.0000000  7.2952092  2
    140    147    139    141     4  180.0000000  7.2952092  2
     13     32     10     14     4  180.0000000  7.2952092  2
    135    157    133    136     4  180.0000000  7.2952092  2
    108    107    125    103     4  180.0000000  7.2952092  2
     62     63     65     61     4  180.0000000  7.2952092  2
    135    136    157    133     4  180.0000000  7.2952092  2
      6      5      7     24     4  180.0000000  7.2952092  2
    113    132     91    112     4  180.0000000  7.2952092  2
     48     47     49     70     4  180.0000000  7.2952092  2
    136    135    137    158     4  180.0000000  7.2952092  2
    106    109    105    107     4  180.0000000  7.2952092  2
    101    120     98    102     4  180.0000000  7.2952092  2
    107    106    108    124     4  180.0000000  7.2952092  2
     52     53     59     51     4  180.0000000  7.2952092  2
     57     54     58     76     4  180.0000000  7.2952092  2
    157    135    156    176     4  180.0000000  7.2952092  2
     93    115     92     94     4  180.0000000  7.2952092  2
    138    137    139    156     4  180.0000000  7.2952092  2
     63     80     62     64     4  180.0000000  7.2952092  2
     47     45     48     69     4  180.0000000  7.2952092  2
    107    124    106    108     4  180.0000000  7.2952092  2
     58     57     77     51     4  180.0000000  7.2952092  2
    142    143    145    141     4  180.0000000  7.2952092  2
     45     47     22     46     4  180.0000000  7.2952092  2
     59     52     60     64     4  180.0000000  7.2952092  2
    142    141    143    145     4  180.0000000  7.2952092  2
    145    164    142    146     4  180.0000000  7.2952092  2
    156    138    157    175     4  180.0000000  7.2952092  2
    112    113    131     94     4  180.0000000  7.2952092  2
     62     61     63     65     4  180.0000000  7.2952092  2
     60     59     61     78     4  180.0000000  7.2952092  2
    149    167    148    150     4  180.0000000  7.2952092  2
     98    101     97     99     4  180.0000000  7.2952092  2
    137    138    159    136     4  180.0000000  7.2952092  2
     51     58     50     52     4  180.0000000  7.2952092  2
    112     94    113    131     4  180.0000000  7.2952092  2
     20     15     19     37     4  180.0000000  7.2952092  2
    105    123    104    106     4  180.0000000  7.2952092  2
     47     69     45     48     4  180.0000000  7.2952092  2
    138    156    137    139     4  180.0000000  7.2952092  2
     53     52     54     72     4  180.0000000  7.2952092  2
      3      1      4     25     4  180.0000000  7.2952092  2
     66     65     83     89     4  180.0000000  1.7520674  2
     17     35     16     18     4  180.0000000  7.2952092  2
    105    106    123    104     4  180.0000000  7.2952092  2
      9     28      8     10     4  180.0000000  7.2952092  2
      7      8     14      6     4  180.0000000  7.2952092  2
    133    134    135    110     4  180.0000000  7.2952092  2
     92     91     93    114     4  180.0000000  7.2952092  2
     25     24     44      3     4  180.0000000  7.2952092  2
      7     14      6      8     4  180.0000000  7.2952092  2
     89     90     91     66     4  180.0000000  7.2952092  2
     91     92    113     89     4  180.0000000  7.2952092  2
     89     91     66     90     4  180.0000000  7.2952092  2
     48     49     70     47     4  180.0000000  7.2952092  2
    103     96    104    108     4  180.0000000  7.2952092  2
    102    121     95    101     4  180.0000000  7.2952092  2
    113    112    132     91     4  180.0000000  7.2952092  2
    108    103    107    125     4  180.0000000  7.2952092  2
    151    150    152    168     4  180.0000000  7.2952092  2
    101     98    102    120     4  180.0000000  7.2952092  2
     19     20     36     18     4  180.0000000  7.2952092  2
     45     22     46     47     4  180.0000000  7.2952092  2
     14      7     13     33     4  180.0000000  7.2952092  2
    151    152    168    150     4  180.0000000  7.2952092  2
     64     81     59     63     4  180.0000000  7.2952092  2
     16     17     34     15     4  180.0000000  7.2952092  2
     52     59     51     53     4  180.0000000  7.2952092  2
    187    186    188    154     4  180.0000000  18.0130916  2
      3     25      1      4     4  180.0000000  7.2952092  2
    106    107    109    105     4  180.0000000  7.2952092  2


[ moleculetype ]
; Name            nrexcl
TCM          3

[ atoms ]
;   nr       type  resnr residue  atom   cgnr    charge       mass  typeB    chargeB      massB
; residue    1 TCM rtp TCM q 0.0
    1      TCM_0      1    TCM     c1      1 0.22438000   9.994886   ; qtot 0.224380
    2      TCM_1      1    TCM    cl1      2 -0.11463000  35.453200   ; qtot 0.109750
    3      TCM_2      1    TCM    cl2      3 -0.11463000  35.453200   ; qtot -0.004880
    4      TCM_3      1    TCM     h1      4 0.11951000   3.023841   ; qtot 0.114630
    5      TCM_4      1    TCM    cl3      5 -0.11463000  35.453200   ; qtot 0.000000

[ bonds ]
;    ai     aj funct         c0         c1         c2         c3
      1      2     1   0.17948 173885.040698
      1      3     1   0.17948 173885.040698
      1      4     1   0.10929 317186.185379
      1      5     1   0.17948 173885.040698

[ angles ]
;    ai     aj     ak funct         c0         c1         c2         c3
      2      1      3     1   107.6607822 425.669015
      2      1      4     1   107.6607822 425.669015
      2      1      5     1   107.6607822 425.669015
      3      1      4     1   107.6607822 425.669015
      3      1      5     1   107.6607822 425.669015
      4      1      5     1   107.6607822 425.669015

[ system ]
; Name
FOO

[ molecules ]
; Compound       #mols
system1              1
TCM                634
