Giant Rising Ordinary Mutants for A Clerical Setup
 3367
    1POP     C1    1   4.743   2.927   0.917
    1POP     O2    2   4.654   2.864   0.976
    1POP     C3    3   4.772   3.070   0.946
    1POP     C4    4   4.869   3.144   0.877
    1POP     C5    5   4.884   3.281   0.904
    1POP     C6    6   4.804   3.346   0.999
    1POP     C7    7   4.821   3.491   1.026
    1POP     C8    8   4.715   3.585   1.016
    1POP     C9    9   4.740   3.720   1.052
    1POP    C10   10   4.867   3.763   1.092
    1POP    O11   11   4.874   3.897   1.123
    1POP    C12   12   5.000   3.949   1.163
    1POP    C13   13   4.971   3.672   1.098
    1POP    C14   14   4.948   3.538   1.066
    1POP    C15   15   4.580   3.548   0.968
    1POP    C16   16   4.465   3.572   1.046
    1POP    C17   17   4.338   3.533   1.002
    1POP    C18   18   4.320   3.469   0.879
    1POP    C19   19   4.434   3.446   0.800
    1POP    C20   20   4.561   3.486   0.844
    1POP    C21   21   4.182   3.432   0.825
    1POP    N22   22   4.112   3.336   0.911
    1POP    C23   23   4.100   3.560   0.801
    1POP    C24   24   4.707   3.270   1.066
    1POP    C25   25   4.690   3.135   1.039
    1POP    H26   26   4.931   3.097   0.802
    1POP    H27   27   4.959   3.336   0.849
    1POP    H28   28   4.660   3.792   1.046
    1POP    H29   29   4.987   4.057   1.180
    1POP    H30   30   5.076   3.938   1.084
    1POP    H31   31   5.034   3.905   1.257
    1POP    H32   32   5.072   3.702   1.127
    1POP    H33   33   5.032   3.468   1.073
    1POP    H34   34   4.475   3.621   1.142
    1POP    H35   35   4.252   3.557   1.064
    1POP    H36   36   4.425   3.397   0.703
    1POP    H37   37   4.647   3.467   0.779
    1POP    H38   38   4.195   3.381   0.729
    1POP    H39   39   4.098   3.371   1.005
    1POP    H40   40   4.004   3.540   0.754
    1POP    H41   41   4.154   3.627   0.734
    1POP    H42   42   4.080   3.613   0.895
    1POP    H43   43   4.641   3.317   1.138
    1POP    H44   44   4.611   3.080   1.091
    2POP    C45   45   3.995   3.279   0.860
    2POP    O46   46   3.921   3.341   0.784
    2POP    C47   47   3.964   3.140   0.890
    2POP    C48   48   4.046   3.058   0.968
    2POP    C49   49   4.013   2.925   0.987
    2POP    C50   50   3.898   2.866   0.928
    2POP    C51   51   3.861   2.726   0.951
    2POP    C52   52   3.734   2.688   1.004
    2POP    C53   53   3.709   2.547   1.018
    2POP    C54   54   3.802   2.450   0.985
    2POP    O55   55   3.760   2.322   1.005
    2POP    C56   56   3.850   2.215   0.974
    2POP    C57   57   3.926   2.488   0.936
    2POP    C58   58   3.955   2.625   0.920
    2POP    C59   59   3.632   2.785   1.045
    2POP    C60   60   3.502   2.784   0.991
    2POP    C61   61   3.406   2.879   1.027
    2POP    C62   62   3.437   2.981   1.119
    2POP    C63   63   3.565   2.982   1.176
    2POP    C64   64   3.661   2.885   1.140
    2POP    C65   65   3.332   3.081   1.167
    2POP    N66   66   3.281   3.166   1.060
    2POP    C67   67   3.222   3.007   1.243
    2POP    C68   68   3.819   2.950   0.846
    2POP    C69   69   3.850   3.085   0.828
    2POP    H70   70   4.136   3.098   1.013
    2POP    H71   71   4.077   2.863   1.050
    2POP    H72   72   3.612   2.517   1.058
    2POP    H73   73   3.798   2.121   0.994
    2POP    H74   74   3.938   2.219   1.038
    2POP    H75   75   3.877   2.216   0.868
    2POP    H76   76   4.003   2.416   0.912
    2POP    H77   77   4.053   2.653   0.882
    2POP    H78   78   3.476   2.707   0.917
    2POP    H79   79   3.307   2.873   0.983
    2POP    H80   80   3.593   3.056   1.250
    2POP    H81   81   3.759   2.890   1.186
    2POP    H82   82   3.380   3.151   1.237
    2POP    H83   83   3.238   3.112   0.986
    2POP    H84   84   3.150   3.075   1.291
    2POP    H85   85   3.263   2.947   1.325
    2POP    H86   86   3.164   2.942   1.177
    2POP    H87   87   3.730   2.910   0.796
    2POP    H88   88   3.786   3.147   0.765
    3POP    C89   89   3.200   3.273   1.098
    3POP    O90   90   3.124   3.271   1.193
    3POP    C91   91   3.214   3.400   1.021
    3POP    C92   92   3.301   3.416   0.914
    3POP    C93   93   3.311   3.541   0.851
    3POP    C94   94   3.235   3.652   0.894
    3POP    C95   95   3.243   3.780   0.823
    3POP    C96   96   3.128   3.848   0.772
    3POP    C97   97   3.145   3.975   0.713
    3POP    C98   98   3.270   4.036   0.700
    3POP    O99   99   3.269   4.158   0.640
    3POP   C100  100   3.393   4.225   0.622
    3POP   C101  101   3.382   3.968   0.746
    3POP   C102  102   3.369   3.844   0.808
    3POP   C103  103   2.992   3.787   0.776
    3POP   C104  104   2.885   3.854   0.837
    3POP   C105  105   2.757   3.795   0.844
    3POP   C106  106   2.733   3.668   0.791
    3POP   C107  107   2.841   3.600   0.730
    3POP   C108  108   2.967   3.660   0.722
    3POP   C109  109   2.593   3.606   0.790
    3POP   N110  110   2.542   3.582   0.925
    3POP   C111  111   2.500   3.691   0.704
    3POP   C112  112   3.151   3.634   1.005
    3POP   C113  113   3.140   3.510   1.067
    3POP   H114  114   3.364   3.334   0.881
    3POP   H115  115   3.378   3.550   0.765
    3POP   H116  116   3.058   4.027   0.674
    3POP   H117  117   3.373   4.321   0.573
    3POP   H118  118   3.460   4.169   0.555
    3POP   H119  119   3.442   4.246   0.717
    3POP   H120  120   3.482   4.010   0.739
    3POP   H121  121   3.458   3.794   0.845
    3POP   H122  122   2.899   3.953   0.879
    3POP   H123  123   2.677   3.852   0.889
    3POP   H124  124   2.827   3.502   0.687
    3POP   H125  125   3.047   3.605   0.673
    3POP   H126  126   2.600   3.506   0.744
    3POP   H127  127   2.533   3.669   0.977
    3POP   H128  128   2.401   3.647   0.693
    3POP   H129  129   2.540   3.702   0.603
    3POP   H130  130   2.485   3.790   0.746
    3POP   H131  131   3.092   3.718   1.043
    3POP   H132  132   3.072   3.500   1.152
    4POP   C133  133   2.424   3.507   0.935
    4POP   O134  134   2.336   3.508   0.850
    4POP   C135  135   2.411   3.414   1.050
    4POP   C136  136   2.507   3.401   1.149
    4POP   C137  137   2.488   3.309   1.253
    4POP   C138  138   2.374   3.227   1.257
    4POP   C139  139   2.352   3.131   1.369
    4POP   C140  140   2.235   3.133   1.449
    4POP   C141  141   2.222   3.033   1.548
    4POP   C142  142   2.320   2.937   1.572
    4POP   O143  143   2.291   2.849   1.673
    4POP   C144  144   2.388   2.748   1.704
    4POP   C145  145   2.435   2.938   1.496
    4POP   C146  146   2.451   3.034   1.395
    4POP   C147  147   2.128   3.235   1.434
    4POP   C148  148   1.995   3.199   1.411
    4POP   C149  149   1.895   3.295   1.392
    4POP   C150  150   1.924   3.432   1.395
    4POP   C151  151   2.057   3.468   1.420
    4POP   C152  152   2.157   3.372   1.439
    4POP   C153  153   1.816   3.539   1.383
    4POP   N154  154   1.737   3.532   1.261
    4POP   C155  155   1.720   3.534   1.503
    4POP   C156  156   2.280   3.238   1.154
    4POP   C157  157   2.297   3.332   1.052
    4POP   H158  158   2.598   3.461   1.147
    4POP   H159  159   2.563   3.302   1.331
    4POP   H160  160   2.132   3.032   1.611
    4POP   H161  161   2.347   2.688   1.786
    4POP   H162  162   2.482   2.792   1.738
    4POP   H163  163   2.404   2.681   1.619
    4POP   H164  164   2.515   2.865   1.510
    4POP   H165  165   2.542   3.032   1.334
    4POP   H166  166   1.968   3.093   1.406
    4POP   H167  167   1.793   3.261   1.375
    4POP   H168  168   2.086   3.574   1.426
    4POP   H169  169   2.259   3.406   1.457
    4POP   H170  170   1.866   3.637   1.384
    4POP   H171  171   1.684   3.447   1.248
    4POP   H172  172   1.645   3.614   1.496
    4POP   H173  173   1.773   3.545   1.598
    4POP   H174  174   1.665   3.439   1.504
    4POP   H175  175   2.191   3.176   1.153
    4POP   H176  176   2.221   3.341   0.975
    5CAP   C177  177   4.748   2.775   0.743
    5CAP   O178  178   4.814   2.880   0.812
    5CAP   H179  179   4.709   2.699   0.811
    5CAP   H180  180   4.817   2.726   0.674
    5CAP   H181  181   4.666   2.819   0.686
    6CAP   C182  182   1.298   3.657   1.183
    6CAP   C183  183   1.437   3.725   1.191
    6CAP   C184  184   1.462   3.800   1.060
    6CAP   C185  185   1.432   3.822   1.311
    6CAP   O186  186   1.534   3.617   1.208
    6CAP   C187  187   1.666   3.646   1.229
    6CAP   O188  188   1.714   3.758   1.230
    6CAP   H189  189   1.219   3.730   1.165
    6CAP   H190  190   1.295   3.583   1.102
    6CAP   H191  191   1.274   3.603   1.275
    6CAP   H192  192   1.468   3.730   0.977
    6CAP   H193  193   1.555   3.856   1.063
    6CAP   H194  194   1.381   3.872   1.040
    6CAP   H195  195   1.420   3.770   1.405
    6CAP   H196  196   1.523   3.882   1.318
    6CAP   H197  197   1.349   3.894   1.299
    1TCM     c1  198   4.338   0.335   2.673
    1TCM    cl1  199   4.463   0.360   2.548
    1TCM    cl2  200   4.242   0.484   2.690
    1TCM     h1  201   4.272   0.252   2.642
    1TCM    cl3  202   4.416   0.296   2.828
    1TCM     c1  203   1.694   2.479   4.344
    1TCM    cl1  204   1.603   2.327   4.353
    1TCM    cl2  205   1.627   2.595   4.461
    1TCM     h1  206   1.800   2.460   4.368
    1TCM    cl3  207   1.681   2.546   4.180
    1TCM     c1  208   1.817   2.265   0.995
    1TCM    cl1  209   1.901   2.112   0.962
    1TCM    cl2  210   1.796   2.355   0.843
    1TCM     h1  211   1.718   2.244   1.039
    1TCM    cl3  212   1.913   2.363   1.109
    1TCM     c1  213   2.650   0.610   3.807
    1TCM    cl1  214   2.695   0.501   3.674
    1TCM    cl2  215   2.682   0.530   3.963
    1TCM     h1  216   2.709   0.703   3.800
    1TCM    cl3  217   2.477   0.649   3.796
    1TCM     c1  218   2.171   1.755   2.859
    1TCM    cl1  219   2.049   1.846   2.768
    1TCM    cl2  220   2.118   1.737   3.028
    1TCM     h1  221   2.184   1.655   2.814
    1TCM    cl3  222   2.326   1.843   2.855
    1TCM     c1  223   5.037   1.289   0.555
    1TCM    cl1  224   5.174   1.233   0.456
    1TCM    cl2  225   5.084   1.289   0.727
    1TCM     h1  226   5.009   1.391   0.524
    1TCM    cl3  227   4.899   1.179   0.532
    1TCM     c1  228   2.901   0.794   2.572
    1TCM    cl1  229   2.768   0.907   2.539
    1TCM    cl2  230   2.835   0.630   2.591
    1TCM     h1  231   2.973   0.795   2.488
    1TCM    cl3  232   2.983   0.842   2.722
    1TCM     c1  233   3.775   4.023   4.738
    1TCM    cl1  234   3.711   3.940   4.595
    1TCM    cl2  235   3.651   4.133   4.803
    1TCM     h1  236   3.802   3.948   4.816
    1TCM    cl3  237   3.920   4.116   4.694
    1TCM     c1  238   0.770   4.147   3.478
    1TCM    cl1  239   0.813   3.982   3.428
    1TCM    cl2  240   0.831   4.263   3.358
    1TCM     h1  241   0.659   4.156   3.484
    1TCM    cl3  242   0.842   4.182   3.636
    1TCM     c1  243   3.902   1.343   2.587
    1TCM    cl1  244   3.882   1.339   2.763
    1TCM    cl2  245   4.051   1.257   2.542
    1TCM     h1  246   3.815   1.294   2.539
    1TCM    cl3  247   3.912   1.512   2.532
    1TCM     c1  248   4.917   3.092   4.462
    1TCM    cl1  249   4.741   3.074   4.483
    1TCM    cl2  250   4.987   2.936   4.412
    1TCM     h1  251   4.937   3.168   4.385
    1TCM    cl3  252   4.990   3.142   4.616
    1TCM     c1  253   0.575   2.830   1.447
    1TCM    cl1  254   0.553   3.005   1.471
    1TCM    cl2  255   0.415   2.753   1.429
    1TCM     h1  256   0.635   2.813   1.356
    1TCM    cl3  257   0.658   2.761   1.588
    1TCM     c1  258   1.501   1.959   2.423
    1TCM    cl1  259   1.385   1.871   2.526
    1TCM    cl2  260   1.439   1.965   2.257
    1TCM     h1  261   1.514   2.062   2.462
    1TCM    cl3  262   1.658   1.875   2.425
    1TCM     c1  263   4.282   4.436   0.720
    1TCM    cl1  264   4.451   4.426   0.775
    1TCM    cl2  265   4.247   4.298   0.612
    1TCM     h1  266   4.214   4.432   0.807
    1TCM    cl3  267   4.257   4.588   0.631
    1TCM     c1  268   2.572   5.235   3.823
    1TCM    cl1  269   2.670   5.087   3.841
    1TCM    cl2  270   2.585   5.332   3.972
    1TCM     h1  271   2.610   5.294   3.737
    1TCM    cl3  272   2.402   5.190   3.796
    1TCM     c1  273   2.879   1.887   3.062
    1TCM    cl1  274   3.033   1.814   3.014
    1TCM    cl2  275   2.789   1.774   3.166
    1TCM     h1  276   2.898   1.981   3.118
    1TCM    cl3  277   2.782   1.923   2.917
    1TCM     c1  278   0.684   3.113   5.018
    1TCM    cl1  279   0.814   3.198   4.932
    1TCM    cl2  280   0.694   2.938   4.984
    1TCM     h1  281   0.694   3.130   5.127
    1TCM    cl3  282   0.526   3.174   4.963
    1TCM     c1  283   4.599   3.535   2.146
    1TCM    cl1  284   4.542   3.647   2.020
    1TCM    cl2  285   4.459   3.454   2.221
    1TCM     h1  286   4.666   3.459   2.100
    1TCM    cl3  287   4.688   3.626   2.270
    1TCM     c1  288   5.245   3.664   4.905
    1TCM    cl1  289   5.094   3.743   4.853
    1TCM    cl2  290   5.339   3.776   5.005
    1TCM     h1  291   5.220   3.573   4.964
    1TCM    cl3  292   5.340   3.618   4.762
    1TCM     c1  293   2.177   1.157   3.522
    1TCM    cl1  294   2.301   1.283   3.545
    1TCM    cl2  295   2.202   1.077   3.365
    1TCM     h1  296   2.185   1.083   3.604
    1TCM    cl3  297   2.016   1.232   3.526
    1TCM     c1  298   1.326   2.057   2.767
    1TCM    cl1  299   1.378   1.887   2.761
    1TCM    cl2  300   1.179   2.078   2.669
    1TCM     h1  301   1.304   2.086   2.872
    1TCM    cl3  302   1.455   2.161   2.703
    1TCM     c1  303   3.146   4.692   4.820
    1TCM    cl1  304   3.181   4.714   4.647
    1TCM    cl2  305   3.184   4.524   4.867
    1TCM     h1  306   3.208   4.762   4.880
    1TCM    cl3  307   2.974   4.725   4.850
    1TCM     c1  308   2.699   2.470   2.021
    1TCM    cl1  309   2.611   2.450   1.868
    1TCM    cl2  310   2.661   2.629   2.091
    1TCM     h1  311   2.669   2.390   2.092
    1TCM    cl3  312   2.874   2.459   1.990
    1TCM     c1  313   2.731   2.026   5.067
    1TCM    cl1  314   2.834   1.933   5.179
    1TCM    cl2  315   2.828   2.076   4.927
    1TCM     h1  316   2.647   1.962   5.033
    1TCM    cl3  317   2.668   2.170   5.150
    1TCM     c1  318   4.928   0.262   1.253
    1TCM    cl1  319   4.778   0.168   1.237
    1TCM    cl2  320   4.913   0.376   1.389
    1TCM     h1  321   5.013   0.193   1.272
    1TCM    cl3  322   4.958   0.352   1.103
    1TCM     c1  323   3.037   0.848   1.260
    1TCM    cl1  324   3.106   0.686   1.237
    1TCM    cl2  325   2.862   0.843   1.226
    1TCM     h1  326   3.053   0.880   1.365
    1TCM    cl3  327   3.115   0.963   1.151
    1TCM     c1  328   3.963   3.278   1.868
    1TCM    cl1  329   3.956   3.107   1.821
    1TCM    cl2  330   3.970   3.290   2.045
    1TCM     h1  331   4.054   3.324   1.824
    1TCM    cl3  332   3.819   3.362   1.809
    1TCM     c1  333   1.027   0.849   3.696
    1TCM    cl1  334   0.899   0.897   3.582
    1TCM    cl2  335   0.984   0.905   3.860
    1TCM     h1  336   1.037   0.739   3.697
    1TCM    cl3  337   1.181   0.923   3.647
    1TCM     c1  338   0.702   5.165   4.127
    1TCM    cl1  339   0.599   5.299   4.182
    1TCM    cl2  340   0.858   5.172   4.213
    1TCM     h1  341   0.652   5.068   4.149
    1TCM    cl3  342   0.730   5.179   3.952
    1TCM     c1  343   2.808   3.636   3.433
    1TCM    cl1  344   2.955   3.602   3.527
    1TCM    cl2  345   2.851   3.667   3.263
    1TCM     h1  346   2.740   3.548   3.438
    1TCM    cl3  347   2.726   3.779   3.500
    1TCM     c1  348   0.302   0.965   2.475
    1TCM    cl1  349   0.133   0.985   2.525
    1TCM    cl2  350   0.311   0.844   2.345
    1TCM     h1  351   0.342   1.062   2.438
    1TCM    cl3  352   0.400   0.910   2.613
    1TCM     c1  353   4.981   1.982   2.119
    1TCM    cl1  354   5.093   2.019   2.252
    1TCM    cl2  355   4.975   2.121   2.007
    1TCM     h1  356   5.017   1.893   2.064
    1TCM    cl3  357   4.819   1.952   2.184
    1TCM     c1  358   1.254   3.561   2.333
    1TCM    cl1  359   1.345   3.409   2.343
    1TCM    cl2  360   1.154   3.560   2.185
    1TCM     h1  361   1.188   3.572   2.422
    1TCM    cl3  362   1.367   3.698   2.326
    1TCM     c1  363   3.907   1.415   2.029
    1TCM    cl1  364   3.793   1.280   2.007
    1TCM    cl2  365   3.898   1.473   2.197
    1TCM     h1  366   4.010   1.381   2.007
    1TCM    cl3  367   3.863   1.548   1.919
    1TCM     c1  368   0.864   2.229   2.087
    1TCM    cl1  369   0.722   2.222   2.194
    1TCM    cl2  370   0.819   2.305   1.933
    1TCM     h1  371   0.944   2.289   2.136
    1TCM    cl3  372   0.923   2.064   2.057
    1TCM     c1  373   2.185   3.845   1.757
    1TCM    cl1  374   2.362   3.839   1.742
    1TCM    cl2  375   2.112   3.845   1.594
    1TCM     h1  376   2.149   3.756   1.812
    1TCM    cl3  377   2.137   3.992   1.843
    1TCM     c1  378   1.047   4.556   1.143
    1TCM    cl1  379   0.903   4.551   1.038
    1TCM    cl2  380   1.118   4.394   1.153
    1TCM     h1  381   1.121   4.627   1.100
    1TCM    cl3  382   1.000   4.611   1.306
    1TCM     c1  383   0.239   1.266   4.841
    1TCM    cl1  384   0.070   1.316   4.818
    1TCM    cl2  385   0.323   1.388   4.939
    1TCM     h1  386   0.242   1.169   4.893
    1TCM    cl3  387   0.319   1.252   4.683
    1TCM     c1  388   1.322   3.896   4.779
    1TCM    cl1  389   1.460   4.009   4.787
    1TCM    cl2  390   1.343   3.768   4.900
    1TCM     h1  391   1.228   3.951   4.800
    1TCM    cl3  392   1.314   3.824   4.617
    1TCM     c1  393   0.310   0.744   4.846
    1TCM    cl1  394   0.397   0.700   4.995
    1TCM    cl2  395   0.372   0.647   4.710
    1TCM     h1  396   0.202   0.724   4.859
    1TCM    cl3  397   0.335   0.917   4.812
    1TCM     c1  398   1.065   4.309   2.235
    1TCM    cl1  399   0.947   4.273   2.363
    1TCM    cl2  400   0.985   4.401   2.105
    1TCM     h1  401   1.148   4.369   2.277
    1TCM    cl3  402   1.128   4.157   2.168
    1TCM     c1  403   3.690   4.130   0.168
    1TCM    cl1  404   3.768   4.012   0.060
    1TCM    cl2  405   3.750   4.107   0.334
    1TCM     h1  406   3.714   4.233   0.134
    1TCM    cl3  407   3.514   4.106   0.165
    1TCM     c1  408   1.579   1.541   1.406
    1TCM    cl1  409   1.449   1.625   1.493
    1TCM    cl2  410   1.713   1.653   1.376
    1TCM     h1  411   1.615   1.456   1.467
    1TCM    cl3  412   1.516   1.481   1.250
    1TCM     c1  413   3.469   0.652   2.304
    1TCM    cl1  414   3.297   0.608   2.303
    1TCM    cl2  415   3.559   0.534   2.402
    1TCM     h1  416   3.508   0.651   2.200
    1TCM    cl3  417   3.489   0.814   2.373
    1TCM     c1  418   0.136   0.611   1.985
    1TCM    cl1  419   0.030   0.634   2.127
    1TCM    cl2  420   0.283   0.709   2.005
    1TCM     h1  421   0.163   0.504   1.977
    1TCM    cl3  422   0.050   0.662   1.839
    1TCM     c1  423   3.939   2.609   1.229
    1TCM    cl1  424   4.014   2.496   1.343
    1TCM    cl2  425   4.059   2.659   1.108
    1TCM     h1  426   3.854   2.559   1.177
    1TCM    cl3  427   3.879   2.752   1.316
    1TCM     c1  428   4.173   0.090   0.792
    1TCM    cl1  429   4.056   0.000   0.692
    1TCM    cl2  430   4.200   0.251   0.722
    1TCM     h1  431   4.133   0.100   0.895
    1TCM    cl3  432   4.327   0.001   0.797
    1TCM     c1  433   4.953   1.741   3.393
    1TCM    cl1  434   4.826   1.765   3.270
    1TCM    cl2  435   4.883   1.661   3.535
    1TCM     h1  436   5.034   1.678   3.351
    1TCM    cl3  437   5.020   1.899   3.440
    1TCM     c1  438   1.987   3.586   2.404
    1TCM    cl1  439   2.067   3.526   2.257
    1TCM    cl2  440   1.893   3.732   2.365
    1TCM     h1  441   1.919   3.508   2.444
    1TCM    cl3  442   2.109   3.626   2.527
    1TCM     c1  443   0.571   0.261   4.868
    1TCM    cl1  444   0.458   0.290   5.002
    1TCM    cl2  445   0.562   0.090   4.818
    1TCM     h1  446   0.545   0.326   4.782
    1TCM    cl3  447   0.737   0.297   4.922
    1TCM     c1  448   4.531   0.695   4.567
    1TCM    cl1  449   4.534   0.857   4.494
    1TCM    cl2  450   4.492   0.708   4.740
    1TCM     h1  451   4.454   0.633   4.516
    1TCM    cl3  452   4.691   0.619   4.548
    1TCM     c1  453   3.846   4.615   1.565
    1TCM    cl1  454   3.741   4.742   1.633
    1TCM    cl2  455   3.881   4.652   1.395
    1TCM     h1  456   3.941   4.612   1.622
    1TCM    cl3  457   3.764   4.458   1.577
    1TCM     c1  458   4.493   4.567   4.891
    1TCM    cl1  459   4.329   4.524   4.945
    1TCM    cl2  460   4.607   4.440   4.943
    1TCM     h1  461   4.495   4.576   4.781
    1TCM    cl3  462   4.541   4.722   4.964
    1TCM     c1  463   3.972   4.322   1.756
    1TCM    cl1  464   3.865   4.220   1.656
    1TCM    cl2  465   4.052   4.222   1.879
    1TCM     h1  466   4.048   4.369   1.691
    1TCM    cl3  467   3.875   4.448   1.835
    1TCM     c1  468   3.856   4.069   3.373
    1TCM    cl1  469   3.738   3.936   3.357
    1TCM    cl2  470   3.925   4.068   3.536
    1TCM     h1  471   3.937   4.055   3.298
    1TCM    cl3  472   3.774   4.224   3.344
    1TCM     c1  473   0.368   0.896   3.404
    1TCM    cl1  474   0.275   1.046   3.380
    1TCM    cl2  475   0.409   0.879   3.576
    1TCM     h1  476   0.306   0.810   3.372
    1TCM    cl3  477   0.517   0.902   3.307
    1TCM     c1  478   3.052   2.654   2.848
    1TCM    cl1  479   3.094   2.668   3.020
    1TCM    cl2  480   2.985   2.808   2.791
    1TCM     h1  481   3.143   2.629   2.790
    1TCM    cl3  482   2.931   2.525   2.827
    1TCM     c1  483   3.699   2.452   2.415
    1TCM    cl1  484   3.633   2.460   2.249
    1TCM    cl2  485   3.617   2.322   2.504
    1TCM     h1  486   3.807   2.431   2.410
    1TCM    cl3  487   3.671   2.607   2.497
    1TCM     c1  488   5.012   0.663   2.431
    1TCM    cl1  489   5.117   0.620   2.568
    1TCM    cl2  490   5.105   0.655   2.280
    1TCM     h1  491   4.927   0.592   2.426
    1TCM    cl3  492   4.950   0.828   2.453
    1TCM     c1  493   0.353   0.174   3.013
    1TCM    cl1  494   0.465   0.057   2.940
    1TCM    cl2  495   0.186   0.119   2.990
    1TCM     h1  496   0.375   0.183   3.121
    1TCM    cl3  497   0.375   0.333   2.934
    1TCM     c1  498   5.218   3.664   1.386
    1TCM    cl1  499   5.070   3.603   1.308
    1TCM    cl2  500   5.204   3.643   1.563
    1TCM     h1  501   5.306   3.606   1.349
    1TCM    cl3  502   5.239   3.836   1.348
    1TCM     c1  503   1.560   3.295   0.945
    1TCM    cl1  504   1.525   3.469   0.949
    1TCM    cl2  505   1.686   3.263   0.823
    1TCM     h1  506   1.595   3.262   1.044
    1TCM    cl3  507   1.412   3.206   0.902
    1TCM     c1  508   2.739   4.418   4.196
    1TCM    cl1  509   2.574   4.485   4.207
    1TCM    cl2  510   2.828   4.499   4.066
    1TCM     h1  511   2.791   4.433   4.293
    1TCM    cl3  512   2.729   4.243   4.162
    1TCM     c1  513   4.635   1.693   0.403
    1TCM    cl1  514   4.491   1.640   0.313
    1TCM    cl2  515   4.604   1.853   0.474
    1TCM     h1  516   4.657   1.620   0.484
    1TCM    cl3  517   4.774   1.703   0.293
    1TCM     c1  518   2.924   4.761   4.489
    1TCM    cl1  519   2.997   4.599   4.493
    1TCM    cl2  520   2.818   4.774   4.347
    1TCM     h1  521   2.864   4.777   4.582
    1TCM    cl3  522   3.051   4.885   4.480
    1TCM     c1  523   3.860   4.162   2.051
    1TCM    cl1  524   3.791   4.254   1.915
    1TCM    cl2  525   3.732   4.126   2.169
    1TCM     h1  526   3.904   4.068   2.013
    1TCM    cl3  527   3.987   4.259   2.130
    1TCM     c1  528   0.932   0.233   3.409
    1TCM    cl1  529   0.783   0.235   3.507
    1TCM    cl2  530   0.892   0.272   3.240
    1TCM     h1  531   1.003   0.309   3.448
    1TCM    cl3  532   1.006   0.072   3.417
    1TCM     c1  533   0.967   1.367   2.634
    1TCM    cl1  534   0.907   1.460   2.495
    1TCM    cl2  535   0.829   1.321   2.737
    1TCM     h1  536   1.018   1.275   2.598
    1TCM    cl3  537   1.080   1.467   2.728
    1TCM     c1  538   1.164   0.798   2.302
    1TCM    cl1  539   1.049   0.734   2.182
    1TCM    cl2  540   1.260   0.929   2.229
    1TCM     h1  541   1.109   0.837   2.390
    1TCM    cl3  542   1.273   0.667   2.354
    1TCM     c1  543   2.887   1.134   3.971
    1TCM    cl1  544   2.732   1.127   4.057
    1TCM    cl2  545   2.868   1.229   3.822
    1TCM     h1  546   2.963   1.182   4.035
    1TCM    cl3  547   2.939   0.969   3.930
    1TCM     c1  548   4.624   5.147   1.269
    1TCM    cl1  549   4.751   5.227   1.173
    1TCM    cl2  550   4.639   5.195   1.439
    1TCM     h1  551   4.525   5.177   1.230
    1TCM    cl3  552   4.642   4.970   1.256
    1TCM     c1  553   0.538   4.427   0.330
    1TCM    cl1  554   0.394   4.517   0.383
    1TCM    cl2  555   0.539   4.418   0.153
    1TCM     h1  556   0.629   4.480   0.365
    1TCM    cl3  557   0.534   4.264   0.399
    1TCM     c1  558   2.395   3.430   2.228
    1TCM    cl1  559   2.508   3.554   2.170
    1TCM    cl2  560   2.418   3.406   2.403
    1TCM     h1  561   2.291   3.462   2.208
    1TCM    cl3  562   2.427   3.277   2.143
    1TCM     c1  563   0.361   3.168   1.120
    1TCM    cl1  564   0.531   3.187   1.074
    1TCM    cl2  565   0.332   3.250   1.276
    1TCM     h1  566   0.296   3.214   1.042
    1TCM    cl3  567   0.322   2.996   1.137
    1TCM     c1  568   3.431   3.656   1.105
    1TCM    cl1  569   3.350   3.512   1.170
    1TCM    cl2  570   3.310   3.779   1.064
    1TCM     h1  571   3.501   3.697   1.181
    1TCM    cl3  572   3.522   3.612   0.958
    1TCM     c1  573   3.170   3.035   4.988
    1TCM    cl1  574   3.300   3.033   4.866
    1TCM    cl2  575   3.242   3.049   5.150
    1TCM     h1  576   3.104   3.122   4.969
    1TCM    cl3  577   3.076   2.885   4.977
    1TCM     c1  578   1.138   1.273   1.931
    1TCM    cl1  579   1.265   1.222   1.817
    1TCM    cl2  580   1.210   1.292   2.093
    1TCM     h1  581   1.096   1.370   1.898
    1TCM    cl3  582   1.010   1.151   1.937
    1TCM     c1  583   1.967   2.668   4.756
    1TCM    cl1  584   1.874   2.624   4.611
    1TCM    cl2  585   2.093   2.545   4.784
    1TCM     h1  586   2.015   2.767   4.741
    1TCM    cl3  587   1.859   2.675   4.897
    1TCM     c1  588   2.246   4.130   4.183
    1TCM    cl1  589   2.231   4.038   4.032
    1TCM    cl2  590   2.369   4.054   4.287
    1TCM     h1  591   2.276   4.234   4.161
    1TCM    cl3  592   2.089   4.130   4.268
    1TCM     c1  593   0.769   0.351   0.143
    1TCM    cl1  594   0.895   0.452   0.068
    1TCM    cl2  595   0.794   0.345   0.319
    1TCM     h1  596   0.669   0.394   0.121
    1TCM    cl3  597   0.779   0.186   0.077
    1TCM     c1  598   1.109   0.655   2.968
    1TCM    cl1  599   1.099   0.827   2.925
    1TCM    cl2  600   0.957   0.604   3.045
    1TCM     h1  601   1.126   0.595   2.876
    1TCM    cl3  602   1.244   0.629   3.082
    1TCM     c1  603   4.494   3.210   3.275
    1TCM    cl1  604   4.448   3.161   3.110
    1TCM    cl2  605   4.632   3.321   3.267
    1TCM     h1  606   4.408   3.260   3.324
    1TCM    cl3  607   4.539   3.066   3.369
    1TCM     c1  608   3.214   4.777   5.188
    1TCM    cl1  609   3.209   4.866   5.341
    1TCM    cl2  610   3.243   4.891   5.054
    1TCM     h1  611   3.295   4.702   5.191
    1TCM    cl3  612   3.058   4.695   5.162
    1TCM     c1  613   1.867   0.126   3.630
    1TCM    cl1  614   1.863   0.136   3.452
    1TCM    cl2  615   1.838   0.288   3.699
    1TCM     h1  616   1.788   0.056   3.665
    1TCM    cl3  617   2.026   0.067   3.682
    1TCM     c1  618   0.980   0.819   4.096
    1TCM    cl1  619   1.014   0.727   4.244
    1TCM    cl2  620   0.830   0.912   4.117
    1TCM     h1  621   1.064   0.889   4.076
    1TCM    cl3  622   0.963   0.707   3.959
    1TCM     c1  623   2.060   5.148   2.407
    1TCM    cl1  624   1.941   5.225   2.514
    1TCM    cl2  625   2.034   5.202   2.240
    1TCM     h1  626   2.163   5.176   2.440
    1TCM    cl3  627   2.041   4.971   2.416
    1TCM     c1  628   1.208   1.270   2.380
    1TCM    cl1  629   1.178   1.096   2.359
    1TCM    cl2  630   1.064   1.362   2.329
    1TCM     h1  631   1.229   1.292   2.486
    1TCM    cl3  632   1.347   1.319   2.280
    1TCM     c1  633   1.608   1.634   0.186
    1TCM    cl1  634   1.572   1.803   0.142
    1TCM    cl2  635   1.782   1.618   0.222
    1TCM     h1  636   1.549   1.606   0.276
    1TCM    cl3  637   1.565   1.527   0.051
    1TCM     c1  638   4.227   3.115   2.465
    1TCM    cl1  639   4.396   3.171   2.458
    1TCM    cl2  640   4.151   3.178   2.613
    1TCM     h1  641   4.172   3.152   2.376
    1TCM    cl3  642   4.224   2.938   2.468
    1TCM     c1  643   2.942   4.879   1.404
    1TCM    cl1  644   2.877   5.033   1.344
    1TCM    cl2  645   2.821   4.751   1.383
    1TCM     h1  646   3.034   4.853   1.347
    1TCM    cl3  647   2.982   4.895   1.577
    1TCM     c1  648   4.330   2.470   3.326
    1TCM    cl1  649   4.426   2.531   3.463
    1TCM    cl2  650   4.166   2.432   3.382
    1TCM     h1  651   4.325   2.548   3.247
    1TCM    cl3  652   4.406   2.324   3.260
    1TCM     c1  653   4.278   0.787   3.721
    1TCM    cl1  654   4.344   0.734   3.877
    1TCM    cl2  655   4.299   0.658   3.601
    1TCM     h1  656   4.170   0.810   3.733
    1TCM    cl3  657   4.364   0.933   3.667
    1TCM     c1  658   4.269   0.996   3.310
    1TCM    cl1  659   4.136   0.982   3.192
    1TCM    cl2  660   4.221   0.918   3.463
    1TCM     h1  661   4.359   0.946   3.270
    1TCM    cl3  662   4.304   1.168   3.339
    1TCM     c1  663   2.072   0.285   3.320
    1TCM    cl1  664   1.941   0.376   3.242
    1TCM    cl2  665   2.228   0.331   3.247
    1TCM     h1  666   2.074   0.308   3.428
    1TCM    cl3  667   2.045   0.111   3.296
    1TCM     c1  668   0.508   4.495   3.659
    1TCM    cl1  669   0.572   4.639   3.742
    1TCM    cl2  670   0.412   4.398   3.774
    1TCM     h1  671   0.443   4.526   3.575
    1TCM    cl3  672   0.643   4.397   3.598
    1TCM     c1  673   0.292   1.934   4.820
    1TCM    cl1  674   0.348   1.841   4.961
    1TCM    cl2  675   0.306   1.834   4.674
    1TCM     h1  676   0.186   1.963   4.835
    1TCM    cl3  677   0.392   2.080   4.801
    1TCM     c1  678   1.117   5.109   5.242
    1TCM    cl1  679   1.248   5.194   5.327
    1TCM    cl2  680   1.157   5.096   5.069
    1TCM     h1  681   1.105   5.007   5.285
    1TCM    cl3  682   0.965   5.200   5.261
    1TCM     c1  683   0.861   2.253   1.204
    1TCM    cl1  684   0.708   2.199   1.276
    1TCM    cl2  685   0.997   2.203   1.308
    1TCM     h1  686   0.873   2.207   1.103
    1TCM    cl3  687   0.861   2.430   1.188
    1TCM     c1  688   4.805   1.726   2.326
    1TCM    cl1  689   4.962   1.808   2.317
    1TCM    cl2  690   4.830   1.553   2.358
    1TCM     h1  691   4.745   1.770   2.408
    1TCM    cl3  692   4.719   1.746   2.172
    1TCM     c1  693   2.937   1.335   2.600
    1TCM    cl1  694   2.786   1.364   2.691
    1TCM    cl2  695   2.933   1.429   2.449
    1TCM     h1  696   3.023   1.367   2.661
    1TCM    cl3  697   2.951   1.162   2.562
    1TCM     c1  698   3.211   0.571   2.659
    1TCM    cl1  699   3.060   0.600   2.749
    1TCM    cl2  700   3.313   0.716   2.667
    1TCM     h1  701   3.265   0.485   2.704
    1TCM    cl3  702   3.172   0.535   2.489
    1TCM     c1  703   2.368   4.658   1.099
    1TCM    cl1  704   2.460   4.767   1.205
    1TCM    cl2  705   2.450   4.646   0.942
    1TCM     h1  706   2.362   4.558   1.146
    1TCM    cl3  707   2.204   4.723   1.076
    1TCM     c1  708   0.576   3.421   4.111
    1TCM    cl1  709   0.612   3.595   4.110
    1TCM    cl2  710   0.595   3.356   3.946
    1TCM     h1  711   0.646   3.369   4.179
    1TCM    cl3  712   0.409   3.395   4.166
    1TCM     c1  713   2.474   0.149   1.689
    1TCM    cl1  714   2.400   0.284   1.777
    1TCM    cl2  715   2.484   0.007   1.795
    1TCM     h1  716   2.412   0.124   1.600
    1TCM    cl3  717   2.638   0.196   1.636
    1TCM     c1  718   2.676   4.934   3.621
    1TCM    cl1  719   2.528   4.928   3.522
    1TCM    cl2  720   2.639   4.874   3.784
    1TCM     h1  721   2.754   4.871   3.575
    1TCM    cl3  722   2.733   5.102   3.631
    1TCM     c1  723   3.664   3.677   4.830
    1TCM    cl1  724   3.596   3.841   4.830
    1TCM    cl2  725   3.817   3.676   4.739
    1TCM     h1  726   3.683   3.645   4.935
    1TCM    cl3  727   3.549   3.564   4.754
    1TCM     c1  728   1.714   0.250   4.768
    1TCM    cl1  729   1.560   0.214   4.848
    1TCM    cl2  730   1.694   0.239   4.592
    1TCM     h1  731   1.747   0.353   4.795
    1TCM    cl3  732   1.837   0.133   4.822
    1TCM     c1  733   3.458   3.772   1.892
    1TCM    cl1  734   3.406   3.628   1.981
    1TCM    cl2  735   3.609   3.835   1.963
    1TCM     h1  736   3.477   3.745   1.786
    1TCM    cl3  737   3.332   3.897   1.900
    1TCM     c1  738   0.240   2.770   2.135
    1TCM    cl1  739   0.305   2.912   2.220
    1TCM    cl2  740   0.277   2.783   1.962
    1TCM     h1  741   0.285   2.678   2.176
    1TCM    cl3  742   0.063   2.764   2.157
    1TCM     c1  743   1.851   0.923   3.537
    1TCM    cl1  744   1.879   1.008   3.384
    1TCM    cl2  745   1.820   0.751   3.503
    1TCM     h1  746   1.941   0.932   3.601
    1TCM    cl3  747   1.711   0.994   3.620
    1TCM     c1  748   1.459   4.572   3.680
    1TCM    cl1  749   1.317   4.677   3.695
    1TCM    cl2  750   1.494   4.542   3.508
    1TCM     h1  751   1.547   4.621   3.727
    1TCM    cl3  752   1.428   4.417   3.761
    1TCM     c1  753   1.300   3.252   3.567
    1TCM    cl1  754   1.329   3.385   3.681
    1TCM    cl2  755   1.392   3.280   3.418
    1TCM     h1  756   1.332   3.156   3.614
    1TCM    cl3  757   1.126   3.243   3.529
    1TCM     c1  758   4.867   2.334   2.484
    1TCM    cl1  759   4.725   2.381   2.387
    1TCM    cl2  760   4.817   2.310   2.653
    1TCM     h1  761   4.910   2.240   2.444
    1TCM    cl3  762   4.989   2.463   2.476
    1TCM     c1  763   2.478   1.458   1.794
    1TCM    cl1  764   2.344   1.448   1.910
    1TCM    cl2  765   2.504   1.628   1.748
    1TCM     h1  766   2.570   1.418   1.840
    1TCM    cl3  767   2.438   1.364   1.649
    1TCM     c1  768   1.359   0.147   3.736
    1TCM    cl1  769   1.183   0.172   3.738
    1TCM    cl2  770   1.411   0.100   3.573
    1TCM     h1  771   1.411   0.241   3.766
    1TCM    cl3  772   1.401   0.018   3.851
    1TCM     c1  773   4.302   3.800   2.731
    1TCM    cl1  774   4.470   3.741   2.738
    1TCM    cl2  775   4.194   3.678   2.800
    1TCM     h1  776   4.294   3.894   2.789
    1TCM    cl3  777   4.258   3.830   2.562
    1TCM     c1  778   4.427   1.298   4.029
    1TCM    cl1  779   4.461   1.152   3.932
    1TCM    cl2  780   4.477   1.270   4.197
    1TCM     h1  781   4.483   1.384   3.987
    1TCM    cl3  782   4.253   1.333   4.024
    1TCM     c1  783   3.744   2.055   2.674
    1TCM    cl1  784   3.677   2.120   2.825
    1TCM    cl2  785   3.884   2.153   2.625
    1TCM     h1  786   3.777   1.950   2.690
    1TCM    cl3  787   3.620   2.060   2.547
    1TCM     c1  788   4.963   4.009   3.376
    1TCM    cl1  789   5.069   3.893   3.461
    1TCM    cl2  790   4.978   3.984   3.201
    1TCM     h1  791   4.858   3.992   3.407
    1TCM    cl3  792   5.012   4.175   3.417
    1TCM     c1  793   0.470   1.825   0.641
    1TCM    cl1  794   0.480   1.739   0.797
    1TCM    cl2  795   0.347   1.953   0.652
    1TCM     h1  796   0.568   1.870   0.618
    1TCM    cl3  797   0.425   1.710   0.513
    1TCM     c1  798   3.711   1.695   3.650
    1TCM    cl1  799   3.865   1.760   3.711
    1TCM    cl2  800   3.704   1.717   3.474
    1TCM     h1  801   3.704   1.587   3.674
    1TCM    cl3  802   3.576   1.781   3.727
    1TCM     c1  803   1.456   2.409   2.971
    1TCM    cl1  804   1.385   2.376   2.812
    1TCM    cl2  805   1.434   2.267   3.076
    1TCM     h1  806   1.564   2.431   2.960
    1TCM    cl3  807   1.374   2.549   3.045
    1TCM     c1  808   0.303   3.047   0.164
    1TCM    cl1  809   0.310   3.224   0.150
    1TCM    cl2  810   0.378   2.997   0.317
    1TCM     h1  811   0.197   3.014   0.162
    1TCM    cl3  812   0.390   2.973   0.028
    1TCM     c1  813   0.829   4.669   5.025
    1TCM    cl1  814   0.701   4.619   5.139
    1TCM    cl2  815   0.758   4.773   4.899
    1TCM     h1  816   0.907   4.725   5.080
    1TCM    cl3  817   0.901   4.524   4.950
    1TCM     c1  818   4.709   4.853   0.137
    1TCM    cl1  819   4.854   4.830   0.037
    1TCM    cl2  820   4.756   4.873   0.307
    1TCM     h1  821   4.655   4.944   0.103
    1TCM    cl3  822   4.602   4.712   0.121
    1TCM     c1  823   0.827   1.553   0.589
    1TCM    cl1  824   0.961   1.491   0.688
    1TCM    cl2  825   0.884   1.579   0.422
    1TCM     h1  826   0.744   1.479   0.588
    1TCM    cl3  827   0.768   1.707   0.656
    1TCM     c1  828   2.438   0.378   3.524
    1TCM    cl1  829   2.399   0.518   3.626
    1TCM    cl2  830   2.468   0.433   3.357
    1TCM     h1  831   2.530   0.328   3.563
    1TCM    cl3  832   2.303   0.263   3.525
    1TCM     c1  833   0.527   1.538   3.320
    1TCM    cl1  834   0.537   1.538   3.498
    1TCM    cl2  835   0.677   1.470   3.253
    1TCM     h1  836   0.441   1.476   3.288
    1TCM    cl3  837   0.506   1.705   3.262
    1TCM     c1  838   0.340   4.408   4.977
    1TCM    cl1  839   0.312   4.265   4.876
    1TCM    cl2  840   0.372   4.357   5.144
    1TCM     h1  841   0.428   4.464   4.938
    1TCM    cl3  842   0.197   4.513   4.973
    1TCM     c1  843   4.297   1.433   2.195
    1TCM    cl1  844   4.462   1.490   2.228
    1TCM    cl2  845   4.187   1.499   2.318
    1TCM     h1  846   4.265   1.468   2.095
    1TCM    cl3  847   4.292   1.256   2.201
    1TCM     c1  848   1.486   0.669   1.807
    1TCM    cl1  849   1.451   0.542   1.926
    1TCM    cl2  850   1.420   0.622   1.649
    1TCM     h1  851   1.439   0.764   1.840
    1TCM    cl3  852   1.662   0.692   1.794
    1TCM     c1  853   2.018   1.891   3.558
    1TCM    cl1  854   2.005   2.003   3.421
    1TCM    cl2  855   1.960   1.972   3.706
    1TCM     h1  856   1.956   1.801   3.539
    1TCM    cl3  857   2.187   1.842   3.580
    1TCM     c1  858   2.648   3.611   3.828
    1TCM    cl1  859   2.762   3.695   3.935
    1TCM    cl2  860   2.579   3.470   3.912
    1TCM     h1  861   2.566   3.680   3.799
    1TCM    cl3  862   2.733   3.556   3.682
    1TCM     c1  863   0.858   1.375   3.740
    1TCM    cl1  864   0.822   1.319   3.575
    1TCM    cl2  865   0.706   1.424   3.820
    1TCM     h1  866   0.904   1.292   3.798
    1TCM    cl3  867   0.969   1.513   3.734
    1TCM     c1  868   0.794   4.413   1.928
    1TCM    cl1  869   0.663   4.401   1.809
    1TCM    cl2  870   0.728   4.386   2.091
    1TCM     h1  871   0.871   4.337   1.906
    1TCM    cl3  872   0.866   4.576   1.920
    1TCM     c1  873   3.717   4.173   2.602
    1TCM    cl1  874   3.870   4.190   2.514
    1TCM    cl2  875   3.672   4.002   2.611
    1TCM     h1  876   3.728   4.215   2.704
    1TCM    cl3  877   3.589   4.263   2.516
    1TCM     c1  878   0.682   2.569   3.589
    1TCM    cl1  879   0.681   2.589   3.412
    1TCM    cl2  880   0.789   2.435   3.633
    1TCM     h1  881   0.718   2.663   3.636
    1TCM    cl3  882   0.517   2.534   3.645
    1TCM     c1  883   1.778   3.876   1.748
    1TCM    cl1  884   1.788   3.947   1.585
    1TCM    cl2  885   1.629   3.933   1.828
    1TCM     h1  886   1.775   3.765   1.740
    1TCM    cl3  887   1.919   3.925   1.844
    1TCM     c1  888   1.612   1.614   2.620
    1TCM    cl1  889   1.477   1.701   2.695
    1TCM    cl2  890   1.554   1.457   2.558
    1TCM     h1  891   1.653   1.674   2.536
    1TCM    cl3  892   1.739   1.587   2.741
    1TCM     c1  893   3.955   0.135   4.034
    1TCM    cl1  894   4.037   0.039   3.909
    1TCM    cl2  895   4.049   0.129   4.185
    1TCM     h1  896   3.947   0.240   4.000
    1TCM    cl3  897   3.792   0.069   4.063
    1TCM     c1  898   0.162   4.541   4.579
    1TCM    cl1  899   0.311   4.619   4.520
    1TCM    cl2  900   0.047   4.666   4.632
    1TCM     h1  901   0.117   4.481   4.498
    1TCM    cl3  902   0.201   4.436   4.717
    1TCM     c1  903   1.037   1.735   0.851
    1TCM    cl1  904   0.944   1.876   0.907
    1TCM    cl2  905   1.053   1.741   0.674
    1TCM     h1  906   1.138   1.736   0.898
    1TCM    cl3  907   0.952   1.586   0.898
    1TCM     c1  908   2.724   2.848   0.292
    1TCM    cl1  909   2.663   2.941   0.153
    1TCM    cl2  910   2.697   2.675   0.263
    1TCM     h1  911   2.832   2.867   0.304
    1TCM    cl3  912   2.637   2.898   0.439
    1TCM     c1  913   3.616   1.427   3.447
    1TCM    cl1  914   3.493   1.384   3.326
    1TCM    cl2  915   3.765   1.477   3.363
    1TCM     h1  916   3.579   1.510   3.510
    1TCM    cl3  917   3.651   1.286   3.549
    1TCM     c1  918   3.525   0.283   1.969
    1TCM    cl1  919   3.578   0.425   2.061
    1TCM    cl2  920   3.538   0.317   1.794
    1TCM     h1  921   3.588   0.196   1.994
    1TCM    cl3  922   3.355   0.246   2.008
    1TCM     c1  923   4.132   2.684   1.511
    1TCM    cl1  924   4.088   2.777   1.656
    1TCM    cl2  925   4.117   2.510   1.546
    1TCM     h1  926   4.065   2.711   1.427
    1TCM    cl3  927   4.300   2.720   1.466
    1TCM     c1  928   3.014   4.242   2.680
    1TCM    cl1  929   2.863   4.150   2.665
    1TCM    cl2  930   3.079   4.223   2.844
    1TCM     h1  931   3.088   4.205   2.606
    1TCM    cl3  932   2.982   4.415   2.649
    1TCM     c1  933   4.438   1.113   2.776
    1TCM    cl1  934   4.529   1.006   2.885
    1TCM    cl2  935   4.437   1.043   2.612
    1TCM     h1  936   4.334   1.124   2.812
    1TCM    cl3  937   4.516   1.273   2.771
    1TCM     c1  938   1.098   2.089   4.965
    1TCM    cl1  939   1.073   2.260   5.008
    1TCM    cl2  940   1.118   1.994   5.114
    1TCM     h1  941   1.010   2.052   4.909
    1TCM    cl3  942   1.244   2.074   4.865
    1TCM     c1  943   2.383   4.578   4.596
    1TCM    cl1  944   2.555   4.591   4.638
    1TCM    cl2  945   2.332   4.408   4.609
    1TCM     h1  946   2.323   4.640   4.666
    1TCM    cl3  947   2.358   4.635   4.429
    1TCM     c1  948   2.308   5.078   5.105
    1TCM    cl1  949   2.278   5.173   5.252
    1TCM    cl2  950   2.477   5.099   5.054
    1TCM     h1  951   2.288   4.970   5.126
    1TCM    cl3  952   2.200   5.134   4.975
    1TCM     c1  953   2.035   1.287   3.016
    1TCM    cl1  954   2.079   1.306   3.188
    1TCM    cl2  955   1.973   1.122   2.989
    1TCM     h1  956   1.957   1.360   2.990
    1TCM    cl3  957   2.179   1.314   2.915
    1TCM     c1  958   1.946   2.210   5.153
    1TCM    cl1  959   1.869   2.354   5.224
    1TCM    cl2  960   2.025   2.255   5.001
    1TCM     h1  961   2.021   2.170   5.224
    1TCM    cl3  962   1.822   2.086   5.122
    1TCM     c1  963   2.251   1.829   1.710
    1TCM    cl1  964   2.212   1.738   1.858
    1TCM    cl2  965   2.329   1.720   1.593
    1TCM     h1  966   2.158   1.871   1.666
    1TCM    cl3  967   2.362   1.962   1.750
    1TCM     c1  968   2.671   2.711   0.840
    1TCM    cl1  969   2.736   2.555   0.896
    1TCM    cl2  970   2.763   2.766   0.698
    1TCM     h1  971   2.565   2.699   0.813
    1TCM    cl3  972   2.686   2.832   0.970
    1TCM     c1  973   3.074   1.880   2.011
    1TCM    cl1  974   2.979   2.015   1.946
    1TCM    cl2  975   3.129   1.776   1.878
    1TCM     h1  976   3.162   1.919   2.066
    1TCM    cl3  977   2.972   1.785   2.122
    1TCM     c1  978   4.635   4.632   2.714
    1TCM    cl1  979   4.632   4.589   2.887
    1TCM    cl2  980   4.752   4.763   2.687
    1TCM     h1  981   4.664   4.543   2.654
    1TCM    cl3  982   4.473   4.686   2.664
    1TCM     c1  983   3.217   0.417   4.909
    1TCM    cl1  984   3.358   0.479   4.997
    1TCM    cl2  985   3.141   0.549   4.817
    1TCM     h1  986   3.249   0.337   4.839
    1TCM    cl3  987   3.099   0.351   5.025
    1TCM     c1  988   3.966   3.997   4.136
    1TCM    cl1  989   3.954   3.820   4.130
    1TCM    cl2  990   4.046   4.046   4.287
    1TCM     h1  991   4.025   4.033   4.049
    1TCM    cl3  992   3.803   4.068   4.130
    1TCM     c1  993   1.975   1.400   2.599
    1TCM    cl1  994   1.882   1.311   2.721
    1TCM    cl2  995   2.054   1.540   2.675
    1TCM     h1  996   2.052   1.333   2.555
    1TCM    cl3  997   1.866   1.456   2.470
    1TCM     c1  998   2.676   0.495   0.135
    1TCM    cl1  999   2.831   0.408   0.141
    1TCM    cl2 1000   2.641   0.564   0.295
    1TCM     h1 1001   2.683   0.577   0.061
    1TCM    cl3 1002   2.547   0.383   0.088
    1TCM     c1 1003   2.453   2.915   2.039
    1TCM    cl1 1004   2.488   3.062   2.132
    1TCM    cl2 1005   2.444   2.955   1.866
    1TCM     h1 1006   2.534   2.841   2.055
    1TCM    cl3 1007   2.298   2.847   2.093
    1TCM     c1 1008   1.115   4.965   1.639
    1TCM    cl1 1009   1.096   5.141   1.638
    1TCM    cl2 1010   1.288   4.924   1.651
    1TCM     h1 1011   1.061   4.922   1.726
    1TCM    cl3 1012   1.049   4.897   1.489
    1TCM     c1 1013   4.250   2.316   4.401
    1TCM    cl1 1014   4.125   2.435   4.443
    1TCM    cl2 1015   4.183   2.152   4.414
    1TCM     h1 1016   4.285   2.334   4.297
    1TCM    cl3 1017   4.387   2.333   4.513
    1TCM     c1 1018   1.931   5.128   5.147
    1TCM    cl1 1019   1.850   5.005   5.049
    1TCM    cl2 1020   1.858   5.132   5.310
    1TCM     h1 1021   2.038   5.104   5.156
    1TCM    cl3 1022   1.911   5.288   5.071
    1TCM     c1 1023   3.507   3.744   0.540
    1TCM    cl1 1024   3.488   3.609   0.426
    1TCM    cl2 1025   3.603   3.691   0.680
    1TCM     h1 1026   3.559   3.828   0.489
    1TCM    cl3 1027   3.347   3.799   0.595
    1TCM     c1 1028   4.667   0.982   1.074
    1TCM    cl1 1029   4.703   1.033   1.240
    1TCM    cl2 1030   4.574   1.109   0.992
    1TCM     h1 1031   4.762   0.965   1.019
    1TCM    cl3 1032   4.573   0.831   1.077
    1TCM     c1 1033   4.135   1.838   1.943
    1TCM    cl1 1034   4.185   1.901   1.784
    1TCM    cl2 1035   4.044   1.964   2.029
    1TCM     h1 1036   4.072   1.748   1.929
    1TCM    cl3 1037   4.280   1.795   2.037
    1TCM     c1 1038   4.134   1.741   0.167
    1TCM    cl1 1039   4.197   1.577   0.199
    1TCM    cl2 1040   3.960   1.731   0.130
    1TCM     h1 1041   4.149   1.804   0.257
    1TCM    cl3 1042   4.220   1.812   0.029
    1TCM     c1 1043   3.990   3.240   4.817
    1TCM    cl1 1044   3.939   3.395   4.748
    1TCM    cl2 1045   4.153   3.257   4.888
    1TCM     h1 1046   3.919   3.209   4.896
    1TCM    cl3 1047   3.995   3.117   4.689
    1TCM     c1 1048   1.221   0.548   3.846
    1TCM    cl1 1049   1.225   0.561   4.023
    1TCM    cl2 1050   1.280   0.700   3.775
    1TCM     h1 1051   1.286   0.465   3.813
    1TCM    cl3 1052   1.054   0.518   3.793
    1TCM     c1 1053   3.584   0.359   1.435
    1TCM    cl1 1054   3.408   0.340   1.452
    1TCM    cl2 1055   3.626   0.367   1.262
    1TCM     h1 1056   3.616   0.453   1.485
    1TCM    cl3 1057   3.666   0.221   1.510
    1TCM     c1 1058   1.288   0.318   4.099
    1TCM    cl1 1059   1.422   0.432   4.074
    1TCM    cl2 1060   1.183   0.377   4.229
    1TCM     h1 1061   1.230   0.308   4.005
    1TCM    cl3 1062   1.354   0.159   4.144
    1TCM     c1 1063   3.132   5.263   3.615
    1TCM    cl1 1064   3.229   5.286   3.468
    1TCM    cl2 1065   2.972   5.337   3.594
    1TCM     h1 1066   3.121   5.154   3.635
    1TCM    cl3 1067   3.215   5.339   3.753
    1TCM     c1 1068   2.288   1.134   4.309
    1TCM    cl1 1069   2.280   1.038   4.159
    1TCM    cl2 1070   2.426   1.245   4.301
    1TCM     h1 1071   2.194   1.192   4.320
    1TCM    cl3 1072   2.307   1.025   4.448
    1TCM     c1 1073   3.294   0.741   0.356
    1TCM    cl1 1074   3.461   0.798   0.379
    1TCM    cl2 1075   3.283   0.569   0.401
    1TCM     h1 1076   3.225   0.800   0.420
    1TCM    cl3 1077   3.247   0.761   0.186
    1TCM     c1 1078   1.682   2.112   2.724
    1TCM    cl1 1079   1.610   2.178   2.873
    1TCM    cl2 1080   1.857   2.094   2.746
    1TCM     h1 1081   1.637   2.014   2.701
    1TCM    cl3 1082   1.651   2.224   2.589
    1TCM     c1 1083   5.005   4.020   4.679
    1TCM    cl1 1084   5.076   3.890   4.581
    1TCM    cl2 1085   4.915   4.131   4.573
    1TCM     h1 1086   4.936   3.977   4.754
    1TCM    cl3 1087   5.135   4.110   4.761
    1TCM     c1 1088   0.904   0.937   2.730
    1TCM    cl1 1089   0.861   1.104   2.771
    1TCM    cl2 1090   0.848   0.900   2.565
    1TCM     h1 1091   1.014   0.924   2.735
    1TCM    cl3 1092   0.826   0.826   2.844
    1TCM     c1 1093   4.739   0.997   3.652
    1TCM    cl1 1094   4.786   0.857   3.751
    1TCM    cl2 1095   4.794   0.974   3.485
    1TCM     h1 1096   4.628   1.007   3.654
    1TCM    cl3 1097   4.812   1.144   3.720
    1TCM     c1 1098   5.107   4.813   0.644
    1TCM    cl1 1099   5.236   4.896   0.734
    1TCM    cl2 1100   5.165   4.774   0.480
    1TCM     h1 1101   5.080   4.719   0.696
    1TCM    cl3 1102   4.965   4.919   0.633
    1TCM     c1 1103   0.721   3.396   0.367
    1TCM    cl1 1104   0.800   3.477   0.504
    1TCM    cl2 1105   0.549   3.370   0.405
    1TCM     h1 1106   0.730   3.459   0.276
    1TCM    cl3 1107   0.800   3.239   0.338
    1TCM     c1 1108   1.217   2.469   4.734
    1TCM    cl1 1109   1.204   2.330   4.845
    1TCM    cl2 1110   1.363   2.450   4.634
    1TCM     h1 1111   1.128   2.473   4.669
    1TCM    cl3 1112   1.229   2.619   4.828
    1TCM     c1 1113   0.716   3.246   0.710
    1TCM    cl1 1114   0.683   3.126   0.837
    1TCM    cl2 1115   0.686   3.174   0.550
    1TCM     h1 1116   0.650   3.334   0.725
    1TCM    cl3 1117   0.886   3.298   0.721
    1TCM     c1 1118   4.249   1.630   2.604
    1TCM    cl1 1119   4.320   1.747   2.490
    1TCM    cl2 1120   4.243   1.703   2.766
    1TCM     h1 1121   4.146   1.605   2.571
    1TCM    cl3 1122   4.348   1.483   2.608
    1TCM     c1 1123   2.139   0.583   4.332
    1TCM    cl1 1124   2.182   0.474   4.198
    1TCM    cl2 1125   2.139   0.751   4.274
    1TCM     h1 1126   2.038   0.557   4.371
    1TCM    cl3 1127   2.259   0.566   4.463
    1TCM     c1 1128   0.444   0.157   2.658
    1TCM    cl1 1129   0.524   0.001   2.631
    1TCM    cl2 1130   0.527   0.245   2.789
    1TCM     h1 1131   0.447   0.217   2.565
    1TCM    cl3 1132   0.274   0.129   2.705
    1TCM     c1 1133   1.876   4.550   4.438
    1TCM    cl1 1134   1.911   4.412   4.331
    1TCM    cl2 1135   1.952   4.522   4.596
    1TCM     h1 1136   1.917   4.642   4.393
    1TCM    cl3 1137   1.701   4.566   4.458
    1TCM     c1 1138   4.294   4.632   1.528
    1TCM    cl1 1139   4.213   4.708   1.389
    1TCM    cl2 1140   4.424   4.525   1.469
    1TCM     h1 1141   4.337   4.710   1.593
    1TCM    cl3 1142   4.176   4.536   1.620
    1TCM     c1 1143   1.137   2.613   0.560
    1TCM    cl1 1144   1.308   2.636   0.605
    1TCM    cl2 1145   1.124   2.474   0.450
    1TCM     h1 1146   1.078   2.593   0.652
    1TCM    cl3 1147   1.076   2.759   0.480
    1TCM     c1 1148   1.311   0.958   4.264
    1TCM    cl1 1149   1.224   1.087   4.350
    1TCM    cl2 1150   1.331   1.005   4.093
    1TCM     h1 1151   1.411   0.943   4.310
    1TCM    cl3 1152   1.217   0.807   4.274
    1TCM     c1 1153   1.872   1.526   0.877
    1TCM    cl1 1154   1.858   1.696   0.825
    1TCM    cl2 1155   1.875   1.519   1.055
    1TCM     h1 1156   1.785   1.469   0.840
    1TCM    cl3 1157   2.022   1.456   0.813
    1TCM     c1 1158   1.228   4.574   1.451
    1TCM    cl1 1159   1.234   4.405   1.396
    1TCM    cl2 1160   1.241   4.682   1.310
    1TCM     h1 1161   1.132   4.593   1.503
    1TCM    cl3 1162   1.363   4.605   1.562
    1TCM     c1 1163   5.114   2.788   2.638
    1TCM    cl1 1164   5.039   2.672   2.750
    1TCM    cl2 1165   5.056   2.758   2.473
    1TCM     h1 1166   5.088   2.891   2.668
    1TCM    cl3 1167   5.291   2.769   2.643
    1TCM     c1 1168   0.862   2.455   0.236
    1TCM    cl1 1169   0.825   2.404   0.070
    1TCM    cl2 1170   0.710   2.474   0.327
    1TCM     h1 1171   0.925   2.378   0.285
    1TCM    cl3 1172   0.948   2.610   0.233
    1TCM     c1 1173   3.685   4.702   3.437
    1TCM    cl1 1174   3.773   4.806   3.321
    1TCM    cl2 1175   3.799   4.588   3.512
    1TCM     h1 1176   3.639   4.766   3.515
    1TCM    cl3 1177   3.559   4.612   3.351
    1TCM     c1 1178   2.168   1.023   2.406
    1TCM    cl1 1179   2.344   1.034   2.381
    1TCM    cl2 1180   2.096   1.185   2.394
    1TCM     h1 1181   2.124   0.956   2.329
    1TCM    cl3 1182   2.136   0.956   2.568
    1TCM     c1 1183   0.716   4.619   4.519
    1TCM    cl1 1184   0.621   4.605   4.668
    1TCM    cl2 1185   0.607   4.635   4.379
    1TCM     h1 1186   0.781   4.709   4.525
    1TCM    cl3 1187   0.818   4.474   4.499
    1TCM     c1 1188   2.052   4.832   3.930
    1TCM    cl1 1189   2.097   4.950   4.056
    1TCM    cl2 1190   2.180   4.826   3.807
    1TCM     h1 1191   2.040   4.732   3.976
    1TCM    cl3 1192   1.899   4.881   3.855
    1TCM     c1 1193   1.191   0.281   1.290
    1TCM    cl1 1194   1.178   0.106   1.263
    1TCM    cl2 1195   1.133   0.320   1.454
    1TCM     h1 1196   1.296   0.313   1.280
    1TCM    cl3 1197   1.091   0.367   1.170
    1TCM     c1 1198   2.493   3.074   0.976
    1TCM    cl1 1199   2.431   3.049   1.141
    1TCM    cl2 1200   2.670   3.052   0.975
    1TCM     h1 1201   2.447   3.000   0.907
    1TCM    cl3 1202   2.454   3.239   0.922
    1TCM     c1 1203   0.991   3.602   1.097
    1TCM    cl1 1204   1.066   3.699   0.968
    1TCM    cl2 1205   0.863   3.499   1.026
    1TCM     h1 1206   1.068   3.537   1.144
    1TCM    cl3 1207   0.920   3.709   1.219
    1TCM     c1 1208   3.762   2.389   2.043
    1TCM    cl1 1209   3.839   2.538   2.102
    1TCM    cl2 1210   3.796   2.256   2.157
    1TCM     h1 1211   3.652   2.404   2.036
    1TCM    cl3 1212   3.827   2.347   1.883
    1TCM     c1 1213   2.783   2.485   1.272
    1TCM    cl1 1214   2.726   2.456   1.107
    1TCM    cl2 1215   2.909   2.611   1.270
    1TCM     h1 1216   2.699   2.518   1.336
    1TCM    cl3 1217   2.851   2.335   1.339
    1TCM     c1 1218   2.753   3.505   4.297
    1TCM    cl1 1219   2.726   3.626   4.170
    1TCM    cl2 1220   2.905   3.418   4.265
    1TCM     h1 1221   2.760   3.556   4.396
    1TCM    cl3 1222   2.618   3.389   4.299
    1TCM     c1 1223   1.191   2.798   4.171
    1TCM    cl1 1224   1.193   2.808   4.349
    1TCM    cl2 1225   1.023   2.793   4.114
    1TCM     h1 1226   1.242   2.886   4.129
    1TCM    cl3 1227   1.275   2.650   4.120
    1TCM     c1 1228   1.516   2.929   3.465
    1TCM    cl1 1229   1.539   2.780   3.560
    1TCM    cl2 1230   1.466   2.887   3.300
    1TCM     h1 1231   1.438   2.991   3.513
    1TCM    cl3 1232   1.669   3.019   3.460
    1TCM     c1 1233   3.798   4.794   3.860
    1TCM    cl1 1234   3.743   4.699   3.720
    1TCM    cl2 1235   3.792   4.694   4.007
    1TCM     h1 1236   3.902   4.829   3.842
    1TCM    cl3 1237   3.691   4.936   3.880
    1TCM     c1 1238   0.160   3.224   0.516
    1TCM    cl1 1239   0.238   3.236   0.675
    1TCM    cl2 1240   0.152   3.053   0.467
    1TCM     h1 1241   0.058   3.266   0.522
    1TCM    cl3 1242   0.255   3.315   0.397
    1TCM     c1 1243   1.462   2.285   5.094
    1TCM    cl1 1244   1.490   2.117   5.146
    1TCM    cl2 1245   1.551   2.395   5.201
    1TCM     h1 1246   1.498   2.297   4.990
    1TCM    cl3 1247   1.288   2.321   5.102
    1TCM     c1 1248   0.254   1.946   3.021
    1TCM    cl1 1249   0.284   1.779   2.970
    1TCM    cl2 1250   0.386   2.050   2.962
    1TCM     h1 1251   0.158   1.981   2.979
    1TCM    cl3 1252   0.248   1.954   3.199
    1TCM     c1 1253   3.697   0.230   4.946
    1TCM    cl1 1254   3.637   0.321   4.806
    1TCM    cl2 1255   3.566   0.128   5.010
    1TCM     h1 1256   3.782   0.167   4.916
    1TCM    cl3 1257   3.750   0.344   5.072
    1TCM     c1 1258   1.826   2.780   2.163
    1TCM    cl1 1259   1.738   2.896   2.264
    1TCM    cl2 1260   1.830   2.839   1.995
    1TCM     h1 1261   1.930   2.768   2.201
    1TCM    cl3 1262   1.743   2.623   2.168
    1TCM     c1 1263   4.177   0.699   4.243
    1TCM    cl1 1264   4.215   0.571   4.125
    1TCM    cl2 1265   4.000   0.708   4.265
    1TCM     h1 1266   4.225   0.675   4.340
    1TCM    cl3 1267   4.237   0.855   4.183
    1TCM     c1 1268   0.329   3.834   1.610
    1TCM    cl1 1269   0.362   3.955   1.484
    1TCM    cl2 1270   0.170   3.868   1.683
    1TCM     h1 1271   0.328   3.733   1.564
    1TCM    cl3 1272   0.455   3.843   1.735
    1TCM     c1 1273   0.257   1.620   0.917
    1TCM    cl1 1274   0.118   1.535   0.987
    1TCM    cl2 1275   0.352   1.695   1.047
    1TCM     h1 1276   0.320   1.548   0.861
    1TCM    cl3 1277   0.199   1.746   0.805
    1TCM     c1 1278   3.730   2.547   2.848
    1TCM    cl1 1279   3.647   2.698   2.889
    1TCM    cl2 1280   3.610   2.424   2.801
    1TCM     h1 1281   3.799   2.565   2.763
    1TCM    cl3 1282   3.823   2.489   2.988
    1TCM     c1 1283   0.291   4.832   2.862
    1TCM    cl1 1284   0.373   4.676   2.833
    1TCM    cl2 1285   0.141   4.803   2.954
    1TCM     h1 1286   0.358   4.898   2.920
    1TCM    cl3 1287   0.251   4.908   2.706
    1TCM     c1 1288   0.132   4.654   2.490
    1TCM    cl1 1289   0.067   4.687   2.652
    1TCM    cl2 1290   0.208   4.802   2.427
    1TCM     h1 1291   0.208   4.573   2.496
    1TCM    cl3 1292   0.000   4.604   2.382
    1TCM     c1 1293   0.480   2.507   2.425
    1TCM    cl1 1294   0.302   2.513   2.429
    1TCM    cl2 1295   0.536   2.530   2.258
    1TCM     h1 1296   0.521   2.588   2.490
    1TCM    cl3 1297   0.535   2.349   2.485
    1TCM     c1 1298   0.643   4.030   2.890
    1TCM    cl1 1299   0.476   3.996   2.940
    1TCM    cl2 1300   0.708   3.890   2.802
    1TCM     h1 1301   0.645   4.119   2.824
    1TCM    cl3 1302   0.743   4.061   3.034
    1TCM     c1 1303   2.389   0.719   4.079
    1TCM    cl1 1304   2.371   0.696   4.254
    1TCM    cl2 1305   2.229   0.739   4.004
    1TCM     h1 1306   2.451   0.810   4.060
    1TCM    cl3 1307   2.470   0.577   4.009
    1TCM     c1 1308   1.845   1.948   2.215
    1TCM    cl1 1309   1.791   1.927   2.046
    1TCM    cl2 1310   1.826   1.794   2.302
    1TCM     h1 1311   1.952   1.978   2.216
    1TCM    cl3 1312   1.747   2.073   2.293
    1TCM     c1 1313   0.960   3.192   2.348
    1TCM    cl1 1314   1.023   3.206   2.514
    1TCM    cl2 1315   0.961   3.352   2.271
    1TCM     h1 1316   1.024   3.122   2.290
    1TCM    cl3 1317   0.793   3.130   2.353
    1TCM     c1 1318   4.766   3.759   3.069
    1TCM    cl1 1319   4.720   3.856   2.928
    1TCM    cl2 1320   4.813   3.596   3.016
    1TCM     h1 1321   4.852   3.807   3.121
    1TCM    cl3 1322   4.629   3.747   3.181
    1TCM     c1 1323   4.308   1.066   4.576
    1TCM    cl1 1324   4.397   1.102   4.725
    1TCM    cl2 1325   4.418   1.083   4.436
    1TCM     h1 1326   4.269   0.963   4.580
    1TCM    cl3 1327   4.173   1.180   4.559
    1TCM     c1 1328   0.143   3.112   4.633
    1TCM    cl1 1329   0.311   3.064   4.602
    1TCM    cl2 1330   0.130   3.176   4.799
    1TCM     h1 1331   0.112   3.191   4.561
    1TCM    cl3 1332   0.036   2.971   4.615
    1TCM     c1 1333   1.050   1.939   0.281
    1TCM    cl1 1334   0.973   1.897   0.436
    1TCM    cl2 1335   1.147   2.087   0.302
    1TCM     h1 1336   1.116   1.856   0.249
    1TCM    cl3 1337   0.925   1.967   0.158
    1TCM     c1 1338   1.919   2.161   1.792
    1TCM    cl1 1339   1.806   2.105   1.917
    1TCM    cl2 1340   1.845   2.143   1.632
    1TCM     h1 1341   1.943   2.269   1.810
    1TCM    cl3 1342   2.069   2.066   1.800
    1TCM     c1 1343   2.582   4.471   3.879
    1TCM    cl1 1344   2.421   4.540   3.909
    1TCM    cl2 1345   2.679   4.587   3.785
    1TCM     h1 1346   2.632   4.451   3.976
    1TCM    cl3 1347   2.566   4.320   3.787
    1TCM     c1 1348   3.294   0.531   1.671
    1TCM    cl1 1349   3.232   0.396   1.769
    1TCM    cl2 1350   3.225   0.522   1.507
    1TCM     h1 1351   3.264   0.627   1.718
    1TCM    cl3 1352   3.471   0.522   1.662
    1TCM     c1 1353   2.481   4.818   4.875
    1TCM    cl1 1354   2.355   4.692   4.877
    1TCM    cl2 1355   2.535   4.845   4.707
    1TCM     h1 1356   2.440   4.912   4.916
    1TCM    cl3 1357   2.619   4.765   4.974
    1TCM     c1 1358   2.660   1.883   3.413
    1TCM    cl1 1359   2.732   1.822   3.564
    1TCM    cl2 1360   2.612   1.746   3.310
    1TCM     h1 1361   2.571   1.944   3.437
    1TCM    cl3 1362   2.780   1.982   3.327
    1TCM     c1 1363   0.839   1.809   4.961
    1TCM    cl1 1364   0.854   1.722   5.116
    1TCM    cl2 1365   0.993   1.798   4.872
    1TCM     h1 1366   0.758   1.764   4.901
    1TCM    cl3 1367   0.802   1.980   4.993
    1TCM     c1 1368   3.148   1.170   3.109
    1TCM    cl1 1369   3.198   1.037   3.216
    1TCM    cl2 1370   3.280   1.207   2.995
    1TCM     h1 1371   3.058   1.140   3.052
    1TCM    cl3 1372   3.112   1.314   3.206
    1TCM     c1 1373   3.710   0.764   1.661
    1TCM    cl1 1374   3.805   0.769   1.510
    1TCM    cl2 1375   3.629   0.921   1.684
    1TCM     h1 1376   3.634   0.684   1.654
    1TCM    cl3 1377   3.818   0.733   1.798
    1TCM     c1 1378   0.549   0.462   0.573
    1TCM    cl1 1379   0.650   0.597   0.630
    1TCM    cl2 1380   0.387   0.475   0.646
    1TCM     h1 1381   0.540   0.467   0.463
    1TCM    cl3 1382   0.623   0.308   0.621
    1TCM     c1 1383   0.843   3.830   3.732
    1TCM    cl1 1384   0.890   3.974   3.824
    1TCM    cl2 1385   0.830   3.691   3.842
    1TCM     h1 1386   0.745   3.847   3.684
    1TCM    cl3 1387   0.965   3.796   3.608
    1TCM     c1 1388   5.170   4.208   4.465
    1TCM    cl1 1389   5.281   4.260   4.594
    1TCM    cl2 1390   5.250   4.227   4.307
    1TCM     h1 1391   5.143   4.101   4.479
    1TCM    cl3 1392   5.023   4.308   4.470
    1TCM     c1 1393   3.751   1.789   0.935
    1TCM    cl1 1394   3.658   1.934   0.891
    1TCM    cl2 1395   3.783   1.790   1.110
    1TCM     h1 1396   3.693   1.699   0.908
    1TCM    cl3 1397   3.905   1.789   0.847
    1TCM     c1 1398   3.410   4.545   3.825
    1TCM    cl1 1399   3.340   4.392   3.882
    1TCM    cl2 1400   3.430   4.540   3.648
    1TCM     h1 1401   3.342   4.629   3.852
    1TCM    cl3 1402   3.568   4.571   3.902
    1TCM     c1 1403   1.683   4.733   3.218
    1TCM    cl1 1404   1.714   4.560   3.194
    1TCM    cl2 1405   1.809   4.828   3.136
    1TCM     h1 1406   1.584   4.759   3.175
    1TCM    cl3 1407   1.684   4.771   3.391
    1TCM     c1 1408   2.586   0.504   2.620
    1TCM    cl1 1409   2.646   0.607   2.752
    1TCM    cl2 1410   2.450   0.585   2.540
    1TCM     h1 1411   2.668   0.487   2.547
    1TCM    cl3 1412   2.532   0.349   2.687
    1TCM     c1 1413   3.329   2.125   4.220
    1TCM    cl1 1414   3.349   2.014   4.357
    1TCM    cl2 1415   3.463   2.243   4.219
    1TCM     h1 1416   3.329   2.068   4.125
    1TCM    cl3 1417   3.175   2.212   4.237
    1TCM     c1 1418   2.965   2.445   0.630
    1TCM    cl1 1419   2.880   2.572   0.539
    1TCM    cl2 1420   3.138   2.482   0.637
    1TCM     h1 1421   2.924   2.439   0.733
    1TCM    cl3 1422   2.942   2.289   0.548
    1TCM     c1 1423   1.604   0.449   5.022
    1TCM    cl1 1424   1.602   0.525   4.862
    1TCM    cl2 1425   1.438   0.421   5.077
    1TCM     h1 1426   1.658   0.352   5.016
    1TCM    cl3 1427   1.688   0.555   5.138
    1TCM     c1 1428   0.765   1.627   1.650
    1TCM    cl1 1429   0.688   1.638   1.810
    1TCM    cl2 1430   0.803   1.457   1.614
    1TCM     h1 1431   0.696   1.666   1.573
    1TCM    cl3 1432   0.915   1.722   1.649
    1TCM     c1 1433   5.009   3.167   0.352
    1TCM    cl1 1434   4.974   3.006   0.287
    1TCM    cl2 1435   4.884   3.210   0.472
    1TCM     h1 1436   5.108   3.166   0.401
    1TCM    cl3 1437   5.008   3.286   0.221
    1TCM     c1 1438   0.676   1.727   3.995
    1TCM    cl1 1439   0.723   1.592   4.100
    1TCM    cl2 1440   0.655   1.874   4.093
    1TCM     h1 1441   0.755   1.744   3.919
    1TCM    cl3 1442   0.523   1.688   3.913
    1TCM     c1 1443   0.962   0.804   0.461
    1TCM    cl1 1444   0.805   0.770   0.384
    1TCM    cl2 1445   1.047   0.652   0.495
    1TCM     h1 1446   1.023   0.867   0.392
    1TCM    cl3 1447   0.935   0.893   0.613
    1TCM     c1 1448   3.507   4.946   4.930
    1TCM    cl1 1449   3.475   4.984   5.100
    1TCM    cl2 1450   3.495   4.770   4.905
    1TCM     h1 1451   3.431   4.997   4.866
    1TCM    cl3 1452   3.670   5.001   4.885
    1TCM     c1 1453   3.135   3.872   3.648
    1TCM    cl1 1454   2.975   3.808   3.692
    1TCM    cl2 1455   3.151   3.873   3.471
    1TCM     h1 1456   3.146   3.975   3.687
    1TCM    cl3 1457   3.261   3.768   3.719
    1TCM     c1 1458   2.819   4.331   3.322
    1TCM    cl1 1459   2.773   4.450   3.198
    1TCM    cl2 1460   2.793   4.401   3.484
    1TCM     h1 1461   2.757   4.240   3.311
    1TCM    cl3 1462   2.991   4.289   3.303
    1TCM     c1 1463   3.499   1.335   2.704
    1TCM    cl1 1464   3.353   1.433   2.675
    1TCM    cl2 1465   3.494   1.270   2.870
    1TCM     h1 1466   3.502   1.251   2.632
    1TCM    cl3 1467   3.643   1.437   2.684
    1TCM     c1 1468   4.571   2.110   5.140
    1TCM    cl1 1469   4.694   2.101   5.268
    1TCM    cl2 1470   4.471   1.962   5.144
    1TCM     h1 1471   4.506   2.198   5.157
    1TCM    cl3 1472   4.650   2.123   4.982
    1TCM     c1 1473   3.174   2.183   0.795
    1TCM    cl1 1474   3.270   2.249   0.661
    1TCM    cl2 1475   3.211   2.273   0.944
    1TCM     h1 1476   3.066   2.193   0.771
    1TCM    cl3 1477   3.215   2.012   0.818
    1TCM     c1 1478   4.610   4.820   1.566
    1TCM    cl1 1479   4.679   4.656   1.555
    1TCM    cl2 1480   4.498   4.828   1.703
    1TCM     h1 1481   4.692   4.893   1.580
    1TCM    cl3 1482   4.523   4.857   1.416
    1TCM     c1 1483   4.629   0.718   3.261
    1TCM    cl1 1484   4.653   0.546   3.299
    1TCM    cl2 1485   4.575   0.734   3.092
    1TCM     h1 1486   4.552   0.761   3.329
    1TCM    cl3 1487   4.782   0.805   3.283
    1TCM     c1 1488   3.556   2.212   0.447
    1TCM    cl1 1489   3.673   2.346   0.435
    1TCM    cl2 1490   3.638   2.068   0.510
    1TCM     h1 1491   3.474   2.241   0.514
    1TCM    cl3 1492   3.491   2.177   0.285
    1TCM     c1 1493   1.771   0.143   2.733
    1TCM    cl1 1494   1.670   0.210   2.862
    1TCM    cl2 1495   1.920   0.239   2.719
    1TCM     h1 1496   1.797   0.038   2.757
    1TCM    cl3 1497   1.683   0.149   2.579
    1TCM     c1 1498   1.217   4.689   5.047
    1TCM    cl1 1499   1.392   4.708   5.072
    1TCM    cl2 1500   1.139   4.656   5.203
    1TCM     h1 1501   1.176   4.783   5.004
    1TCM    cl3 1502   1.187   4.555   4.935
    1TCM     c1 1503   5.130   0.296   4.512
    1TCM    cl1 1504   5.184   0.215   4.364
    1TCM    cl2 1505   5.164   0.192   4.653
    1TCM     h1 1506   5.183   0.392   4.524
    1TCM    cl3 1507   4.955   0.326   4.502
    1TCM     c1 1508   4.379   4.857   0.244
    1TCM    cl1 1509   4.214   4.881   0.305
    1TCM    cl2 1510   4.491   4.839   0.381
    1TCM     h1 1511   4.383   4.766   0.182
    1TCM    cl3 1512   4.427   4.998   0.147
    1TCM     c1 1513   0.576   2.530   3.922
    1TCM    cl1 1514   0.670   2.677   3.887
    1TCM    cl2 1515   0.571   2.504   4.098
    1TCM     h1 1516   0.473   2.543   3.883
    1TCM    cl3 1517   0.653   2.391   3.843
    1TCM     c1 1518   4.071   1.350   1.712
    1TCM    cl1 1519   4.165   1.384   1.564
    1TCM    cl2 1520   4.091   1.485   1.826
    1TCM     h1 1521   3.964   1.339   1.686
    1TCM    cl3 1522   4.130   1.200   1.786
    1TCM     c1 1523   1.433   4.920   0.400
    1TCM    cl1 1524   1.562   5.040   0.378
    1TCM    cl2 1525   1.421   4.876   0.572
    1TCM     h1 1526   1.337   4.962   0.366
    1TCM    cl3 1527   1.471   4.774   0.305
    1TCM     c1 1528   3.326   1.127   4.021
    1TCM    cl1 1529   3.303   1.144   3.845
    1TCM    cl2 1530   3.453   1.006   4.053
    1TCM     h1 1531   3.357   1.224   4.064
    1TCM    cl3 1532   3.174   1.074   4.095
    1TCM     c1 1533   4.656   3.549   3.718
    1TCM    cl1 1534   4.764   3.482   3.593
    1TCM    cl2 1535   4.554   3.419   3.784
    1TCM     h1 1536   4.716   3.593   3.799
    1TCM    cl3 1537   4.552   3.674   3.645
    1TCM     c1 1538   1.396   0.830   0.617
    1TCM    cl1 1539   1.277   0.925   0.707
    1TCM    cl2 1540   1.475   0.714   0.726
    1TCM     h1 1541   1.345   0.775   0.535
    1TCM    cl3 1542   1.519   0.938   0.547
    1TCM     c1 1543   1.194   2.014   1.107
    1TCM    cl1 1544   1.286   1.901   1.210
    1TCM    cl2 1545   1.189   1.952   0.941
    1TCM     h1 1546   1.091   2.024   1.146
    1TCM    cl3 1547   1.274   2.173   1.109
    1TCM     c1 1548   3.486   3.094   2.412
    1TCM    cl1 1549   3.650   3.077   2.343
    1TCM    cl2 1550   3.477   3.244   2.508
    1TCM     h1 1551   3.412   3.099   2.329
    1TCM    cl3 1552   3.450   2.955   2.516
    1TCM     c1 1553   3.253   3.558   2.833
    1TCM    cl1 1554   3.129   3.685   2.825
    1TCM    cl2 1555   3.173   3.400   2.851
    1TCM     h1 1556   3.313   3.559   2.740
    1TCM    cl3 1557   3.359   3.587   2.973
    1TCM     c1 1558   1.308   1.198   0.310
    1TCM    cl1 1559   1.299   1.051   0.410
    1TCM    cl2 1560   1.177   1.196   0.190
    1TCM     h1 1561   1.297   1.288   0.375
    1TCM    cl3 1562   1.465   1.204   0.227
    1TCM     c1 1563   3.054   0.246   0.872
    1TCM    cl1 1564   3.125   0.292   1.028
    1TCM    cl2 1565   2.928   0.124   0.899
    1TCM     h1 1566   3.009   0.336   0.824
    1TCM    cl3 1567   3.180   0.179   0.767
    1TCM     c1 1568   1.895   3.345   1.018
    1TCM    cl1 1569   1.777   3.477   1.025
    1TCM    cl2 1570   1.985   3.338   1.171
    1TCM     h1 1571   1.842   3.249   1.003
    1TCM    cl3 1572   2.008   3.372   0.884
    1TCM     c1 1573   2.931   3.797   2.004
    1TCM    cl1 1574   3.064   3.913   2.022
    1TCM    cl2 1575   2.863   3.759   2.164
    1TCM     h1 1576   2.852   3.841   1.939
    1TCM    cl3 1577   2.993   3.648   1.929
    1TCM     c1 1578   4.562   0.507   4.115
    1TCM    cl1 1579   4.689   0.387   4.146
    1TCM    cl2 1580   4.620   0.669   4.161
    1TCM     h1 1581   4.536   0.506   4.007
    1TCM    cl3 1582   4.418   0.466   4.211
    1TCM     c1 1583   4.668   3.017   4.764
    1TCM    cl1 1584   4.819   2.974   4.680
    1TCM    cl2 1585   4.662   2.936   4.922
    1TCM     h1 1586   4.664   3.127   4.778
    1TCM    cl3 1587   4.529   2.966   4.666
    1TCM     c1 1588   1.117   4.670   2.411
    1TCM    cl1 1589   1.030   4.756   2.282
    1TCM    cl2 1590   1.167   4.786   2.536
    1TCM     h1 1591   1.051   4.593   2.455
    1TCM    cl3 1592   1.261   4.592   2.342
    1TCM     c1 1593   5.136   0.238   0.368
    1TCM    cl1 1594   4.963   0.204   0.342
    1TCM    cl2 1595   5.209   0.291   0.214
    1TCM     h1 1596   5.147   0.318   0.444
    1TCM    cl3 1597   5.217   0.091   0.425
    1TCM     c1 1598   4.579   0.468   3.655
    1TCM    cl1 1599   4.592   0.367   3.510
    1TCM    cl2 1600   4.615   0.637   3.613
    1TCM     h1 1601   4.476   0.462   3.695
    1TCM    cl3 1602   4.694   0.412   3.778
    1TCM     c1 1603   3.611   5.098   4.455
    1TCM    cl1 1604   3.568   5.221   4.575
    1TCM    cl2 1605   3.787   5.078   4.451
    1TCM     h1 1606   3.563   5.001   4.482
    1TCM    cl3 1607   3.553   5.149   4.294
    1TCM     c1 1608   1.465   1.875   1.595
    1TCM    cl1 1609   1.534   1.855   1.433
    1TCM    cl2 1610   1.288   1.870   1.586
    1TCM     h1 1611   1.501   1.793   1.661
    1TCM    cl3 1612   1.517   2.031   1.662
    1TCM     c1 1613   5.270   0.242   1.508
    1TCM    cl1 1614   5.109   0.255   1.584
    1TCM    cl2 1615   5.255   0.266   1.333
    1TCM     h1 1616   5.337   0.318   1.551
    1TCM    cl3 1617   5.336   0.080   1.540
    1TCM     c1 1618   3.319   1.766   2.804
    1TCM    cl1 1619   3.204   1.753   2.669
    1TCM    cl2 1620   3.240   1.847   2.941
    1TCM     h1 1621   3.351   1.665   2.835
    1TCM    cl3 1622   3.460   1.861   2.753
    1TCM     c1 1623   3.631   0.403   0.551
    1TCM    cl1 1624   3.702   0.563   0.519
    1TCM    cl2 1625   3.689   0.288   0.429
    1TCM     h1 1626   3.660   0.369   0.652
    1TCM    cl3 1627   3.454   0.415   0.541
    1TCM     c1 1628   0.664   1.401   2.001
    1TCM    cl1 1629   0.526   1.506   1.962
    1TCM    cl2 1630   0.604   1.241   2.050
    1TCM     h1 1631   0.729   1.390   1.912
    1TCM    cl3 1632   0.757   1.472   2.135
    1TCM     c1 1633   2.787   3.845   1.351
    1TCM    cl1 1634   2.767   3.741   1.208
    1TCM    cl2 1635   2.687   3.783   1.484
    1TCM     h1 1636   2.894   3.844   1.382
    1TCM    cl3 1637   2.738   4.011   1.311
    1TCM     c1 1638   2.415   2.573   4.424
    1TCM    cl1 1639   2.517   2.514   4.290
    1TCM    cl2 1640   2.455   2.483   4.572
    1TCM     h1 1641   2.434   2.681   4.440
    1TCM    cl3 1642   2.244   2.547   4.384
    1TCM     c1 1643   0.604   2.322   0.854
    1TCM    cl1 1644   0.734   2.430   0.799
    1TCM    cl2 1645   0.463   2.340   0.747
    1TCM     h1 1646   0.640   2.217   0.850
    1TCM    cl3 1647   0.558   2.363   1.020
    1TCM     c1 1648   2.615   0.454   1.629
    1TCM    cl1 1649   2.760   0.368   1.574
    1TCM    cl2 1650   2.581   0.412   1.798
    1TCM     h1 1651   2.631   0.564   1.620
    1TCM    cl3 1652   2.476   0.407   1.527
    1TCM     c1 1653   2.481   3.637   0.166
    1TCM    cl1 1654   2.424   3.594   0.003
    1TCM    cl2 1655   2.410   3.525   0.285
    1TCM     h1 1656   2.592   3.630   0.169
    1TCM    cl3 1657   2.431   3.803   0.203
    1TCM     c1 1658   0.151   3.441   4.970
    1TCM    cl1 1659   0.257   3.306   5.018
    1TCM    cl2 1660   0.143   3.449   4.793
    1TCM     h1 1661   0.049   3.424   5.011
    1TCM    cl3 1662   0.216   3.593   5.034
    1TCM     c1 1663   3.935   1.950   1.692
    1TCM    cl1 1664   3.795   1.874   1.769
    1TCM    cl2 1665   4.019   2.053   1.810
    1TCM     h1 1666   4.004   1.872   1.656
    1TCM    cl3 1667   3.881   2.049   1.554
    1TCM     c1 1668   2.238   2.809   2.755
    1TCM    cl1 1669   2.121   2.942   2.739
    1TCM    cl2 1670   2.280   2.747   2.594
    1TCM     h1 1671   2.329   2.846   2.805
    1TCM    cl3 1672   2.166   2.679   2.852
    1TCM     c1 1673   4.370   2.747   0.666
    1TCM    cl1 1674   4.449   2.865   0.558
    1TCM    cl2 1675   4.399   2.793   0.835
    1TCM     h1 1676   4.261   2.746   0.646
    1TCM    cl3 1677   4.437   2.585   0.635
    1TCM     c1 1678   5.127   4.286   1.796
    1TCM    cl1 1679   4.990   4.173   1.797
    1TCM    cl2 1680   5.131   4.372   1.640
    1TCM     h1 1681   5.114   4.360   1.878
    1TCM    cl3 1682   5.279   4.197   1.818
    1TCM     c1 1683   3.270   1.765   3.804
    1TCM    cl1 1684   3.224   1.593   3.803
    1TCM    cl2 1685   3.424   1.785   3.891
    1TCM     h1 1686   3.281   1.801   3.700
    1TCM    cl3 1687   3.144   1.859   3.886
    1TCM     c1 1688   0.934   3.789   2.391
    1TCM    cl1 1689   0.975   3.734   2.227
    1TCM    cl2 1690   0.984   3.665   2.509
    1TCM     h1 1691   0.988   3.884   2.413
    1TCM    cl3 1692   0.759   3.816   2.403
    1TCM     c1 1693   3.035   4.173   2.311
    1TCM    cl1 1694   3.010   4.106   2.148
    1TCM    cl2 1695   3.121   4.054   2.412
    1TCM     h1 1696   3.095   4.266   2.305
    1TCM    cl3 1697   2.877   4.209   2.385
    1TCM     c1 1698   1.321   3.068   2.334
    1TCM    cl1 1699   1.476   3.156   2.338
    1TCM    cl2 1700   1.228   3.105   2.481
    1TCM     h1 1701   1.263   3.098   2.244
    1TCM    cl3 1702   1.353   2.893   2.327
    1TCM     c1 1703   4.601   0.155   5.160
    1TCM    cl1 1704   4.696   0.272   5.066
    1TCM    cl2 1705   4.519   0.238   5.294
    1TCM     h1 1706   4.525   0.108   5.094
    1TCM    cl3 1707   4.709   0.030   5.225
    1TCM     c1 1708   4.155   4.921   2.376
    1TCM    cl1 1709   4.001   4.906   2.463
    1TCM    cl2 1710   4.124   4.971   2.208
    1TCM     h1 1711   4.219   4.998   2.426
    1TCM    cl3 1712   4.240   4.765   2.377
    1TCM     c1 1713   1.430   5.024   3.124
    1TCM    cl1 1714   1.305   5.144   3.166
    1TCM    cl2 1715   1.570   5.044   3.233
    1TCM     h1 1716   1.389   4.922   3.135
    1TCM    cl3 1717   1.482   5.049   2.956
    1TCM     c1 1718   3.399   5.016   3.750
    1TCM    cl1 1719   3.414   5.192   3.773
    1TCM    cl2 1720   3.469   4.931   3.889
    1TCM     h1 1721   3.292   4.989   3.740
    1TCM    cl3 1722   3.486   4.969   3.602
    1TCM     c1 1723   3.635   2.203   4.862
    1TCM    cl1 1724   3.798   2.167   4.801
    1TCM    cl2 1725   3.647   2.265   5.029
    1TCM     h1 1726   3.588   2.280   4.798
    1TCM    cl3 1727   3.537   2.055   4.861
    1TCM     c1 1728   4.864   4.219   2.576
    1TCM    cl1 1729   4.808   4.388   2.565
    1TCM    cl2 1730   4.785   4.122   2.450
    1TCM     h1 1731   4.974   4.216   2.561
    1TCM    cl3 1732   4.824   4.153   2.736
    1TCM     c1 1733   5.017   3.144   2.467
    1TCM    cl1 1734   5.186   3.087   2.460
    1TCM    cl2 1735   4.991   3.234   2.617
    1TCM     h1 1736   4.997   3.210   2.380
    1TCM    cl3 1737   4.907   3.004   2.462
    1TCM     c1 1738   1.442   2.378   0.930
    1TCM    cl1 1739   1.525   2.403   1.085
    1TCM    cl2 1740   1.543   2.275   0.825
    1TCM     h1 1741   1.345   2.328   0.947
    1TCM    cl3 1742   1.416   2.535   0.851
    1TCM     c1 1743   1.106   1.979   4.052
    1TCM    cl1 1744   1.204   1.834   4.087
    1TCM    cl2 1745   1.209   2.102   3.974
    1TCM     h1 1746   1.023   1.952   3.983
    1TCM    cl3 1747   1.040   2.044   4.203
    1TCM     c1 1748   4.132   3.590   1.311
    1TCM    cl1 1749   4.081   3.757   1.344
    1TCM    cl2 1750   4.035   3.524   1.177
    1TCM     h1 1751   4.239   3.589   1.283
    1TCM    cl3 1752   4.107   3.491   1.456
    1TCM     c1 1753   0.262   5.172   2.131
    1TCM    cl1 1754   0.313   5.017   2.061
    1TCM    cl2 1755   0.310   5.180   2.302
    1TCM     h1 1756   0.311   5.255   2.075
    1TCM    cl3 1757   0.085   5.188   2.118
    1TCM     c1 1758   1.321   2.547   1.754
    1TCM    cl1 1759   1.439   2.527   1.622
    1TCM    cl2 1760   1.407   2.548   1.910
    1TCM     h1 1761   1.266   2.642   1.741
    1TCM    cl3 1762   1.205   2.412   1.750
    1TCM     c1 1763   0.859   2.384   4.142
    1TCM    cl1 1764   0.880   2.537   4.055
    1TCM    cl2 1765   1.009   2.289   4.131
    1TCM     h1 1766   0.837   2.405   4.249
    1TCM    cl3 1767   0.725   2.292   4.070
    1TCM     c1 1768   1.107   0.888   5.165
    1TCM    cl1 1769   0.934   0.920   5.142
    1TCM    cl2 1770   1.147   0.896   5.338
    1TCM     h1 1771   1.132   0.787   5.125
    1TCM    cl3 1772   1.202   1.010   5.077
    1TCM     c1 1773   3.576   3.205   0.940
    1TCM    cl1 1774   3.521   3.324   1.061
    1TCM    cl2 1775   3.612   3.288   0.787
    1TCM     h1 1776   3.668   3.154   0.978
    1TCM    cl3 1777   3.448   3.084   0.913
    1TCM     c1 1778   3.684   5.010   3.027
    1TCM    cl1 1779   3.666   5.184   3.060
    1TCM    cl2 1780   3.764   4.989   2.869
    1TCM     h1 1781   3.746   4.963   3.106
    1TCM    cl3 1782   3.524   4.933   3.023
    1TCM     c1 1783   4.623   3.195   5.179
    1TCM    cl1 1784   4.512   3.298   5.085
    1TCM    cl2 1785   4.554   3.164   5.339
    1TCM     h1 1786   4.638   3.099   5.125
    1TCM    cl3 1787   4.780   3.277   5.196
    1TCM     c1 1788   4.466   2.819   2.968
    1TCM    cl1 1789   4.372   2.865   2.824
    1TCM    cl2 1790   4.357   2.757   3.093
    1TCM     h1 1791   4.540   2.741   2.940
    1TCM    cl3 1792   4.553   2.962   3.030
    1TCM     c1 1793   2.322   4.448   3.614
    1TCM    cl1 1794   2.461   4.343   3.579
    1TCM    cl2 1795   2.379   4.602   3.681
    1TCM     h1 1796   2.266   4.467   3.520
    1TCM    cl3 1797   2.216   4.368   3.732
    1TCM     c1 1798   3.520   2.243   0.927
    1TCM    cl1 1799   3.538   2.310   1.090
    1TCM    cl2 1800   3.485   2.374   0.812
    1TCM     h1 1801   3.615   2.192   0.897
    1TCM    cl3 1802   3.387   2.125   0.926
    1TCM     c1 1803   2.402   2.070   2.653
    1TCM    cl1 1804   2.510   2.166   2.756
    1TCM    cl2 1805   2.457   2.079   2.484
    1TCM     h1 1806   2.403   1.964   2.687
    1TCM    cl3 1807   2.237   2.134   2.665
    1TCM     c1 1808   2.941   2.913   3.471
    1TCM    cl1 1809   2.840   3.054   3.432
    1TCM    cl2 1810   2.847   2.764   3.443
    1TCM     h1 1811   3.031   2.913   3.405
    1TCM    cl3 1812   2.991   2.921   3.641
    1TCM     c1 1813   5.020   1.906   1.684
    1TCM    cl1 1814   4.892   1.936   1.564
    1TCM    cl2 1815   4.985   1.755   1.771
    1TCM     h1 1816   5.118   1.897   1.632
    1TCM    cl3 1817   5.026   2.041   1.799
    1TCM     c1 1818   1.654   1.365   3.584
    1TCM    cl1 1819   1.543   1.264   3.680
    1TCM    cl2 1820   1.817   1.358   3.656
    1TCM     h1 1821   1.658   1.327   3.480
    1TCM    cl3 1822   1.596   1.533   3.583
    1TCM     c1 1823   3.434   4.199   2.243
    1TCM    cl1 1824   3.409   4.131   2.405
    1TCM    cl2 1825   3.309   4.322   2.210
    1TCM     h1 1826   3.534   4.246   2.237
    1TCM    cl3 1827   3.421   4.069   2.122
    1TCM     c1 1828   2.064   3.571   0.470
    1TCM    cl1 1829   2.214   3.570   0.375
    1TCM    cl2 1830   2.034   3.736   0.532
    1TCM     h1 1831   1.979   3.540   0.406
    1TCM    cl3 1832   2.080   3.459   0.607
    1TCM     c1 1833   4.607   2.138   3.264
    1TCM    cl1 1834   4.755   2.154   3.167
    1TCM    cl2 1835   4.466   2.137   3.156
    1TCM     h1 1836   4.610   2.044   3.322
    1TCM    cl3 1837   4.594   2.276   3.376
    1TCM     c1 1838   2.425   3.916   1.427
    1TCM    cl1 1839   2.543   3.976   1.546
    1TCM    cl2 1840   2.509   3.879   1.274
    1TCM     h1 1841   2.377   3.824   1.466
    1TCM    cl3 1842   2.301   4.040   1.398
    1TCM     c1 1843   1.051   4.901   4.753
    1TCM    cl1 1844   1.213   4.966   4.786
    1TCM    cl2 1845   0.941   4.945   4.886
    1TCM     h1 1846   1.012   4.943   4.658
    1TCM    cl3 1847   1.059   4.723   4.741
    1TCM     c1 1848   3.628   3.219   3.698
    1TCM    cl1 1849   3.540   3.093   3.787
    1TCM    cl2 1850   3.557   3.239   3.536
    1TCM     h1 1851   3.622   3.315   3.753
    1TCM    cl3 1852   3.799   3.171   3.682
    1TCM     c1 1853   3.765   3.877   1.241
    1TCM    cl1 1854   3.869   3.845   1.100
    1TCM    cl2 1855   3.863   3.944   1.373
    1TCM     h1 1856   3.686   3.949   1.212
    1TCM    cl3 1857   3.690   3.725   1.295
    1TCM     c1 1858   2.512   1.284   3.873
    1TCM    cl1 1859   2.372   1.288   3.982
    1TCM    cl2 1860   2.461   1.333   3.710
    1TCM     h1 1861   2.590   1.354   3.910
    1TCM    cl3 1862   2.578   1.119   3.867
    1TCM     c1 1863   2.189   3.615   4.834
    1TCM    cl1 1864   2.070   3.506   4.908
    1TCM    cl2 1865   2.348   3.591   4.911
    1TCM     h1 1866   2.197   3.593   4.726
    1TCM    cl3 1867   2.137   3.783   4.857
    1TCM     c1 1868   4.329   3.838   3.205
    1TCM    cl1 1869   4.448   3.963   3.162
    1TCM    cl2 1870   4.223   3.899   3.335
    1TCM     h1 1871   4.267   3.813   3.116
    1TCM    cl3 1872   4.414   3.693   3.261
    1TCM     c1 1873   2.482   5.225   4.723
    1TCM    cl1 1874   2.657   5.223   4.755
    1TCM    cl2 1875   2.453   5.275   4.555
    1TCM     h1 1876   2.441   5.123   4.740
    1TCM    cl3 1877   2.403   5.339   4.834
    1TCM     c1 1878   3.076   1.578   5.020
    1TCM    cl1 1879   3.069   1.450   4.897
    1TCM    cl2 1880   2.935   1.684   5.003
    1TCM     h1 1881   3.077   1.532   5.121
    1TCM    cl3 1882   3.225   1.673   4.998
    1TCM     c1 1883   0.647   0.648   4.128
    1TCM    cl1 1884   0.555   0.565   4.256
    1TCM    cl2 1885   0.594   0.587   3.969
    1TCM     h1 1886   0.628   0.757   4.134
    1TCM    cl3 1887   0.820   0.616   4.149
    1TCM     c1 1888   3.533   0.954   2.019
    1TCM    cl1 1889   3.670   0.918   1.913
    1TCM    cl2 1890   3.583   0.936   2.189
    1TCM     h1 1891   3.498   1.058   2.002
    1TCM    cl3 1892   3.400   0.841   1.985
    1TCM     c1 1893   2.833   0.086   2.585
    1TCM    cl1 1894   3.007   0.123   2.577
    1TCM    cl2 1895   2.781   0.013   2.431
    1TCM     h1 1896   2.815   0.014   2.668
    1TCM    cl3 1897   2.741   0.235   2.615
    1TCM     c1 1898   2.694   4.551   2.487
    1TCM    cl1 1899   2.757   4.521   2.650
    1TCM    cl2 1900   2.640   4.398   2.415
    1TCM     h1 1901   2.608   4.621   2.493
    1TCM    cl3 1902   2.822   4.622   2.386
    1TCM     c1 1903   0.846   1.041   2.204
    1TCM    cl1 1904   1.023   1.054   2.197
    1TCM    cl2 1905   0.786   0.966   2.055
    1TCM     h1 1906   0.817   0.979   2.292
    1TCM    cl3 1907   0.775   1.204   2.221
    1TCM     c1 1908   2.375   4.399   3.125
    1TCM    cl1 1909   2.200   4.378   3.148
    1TCM    cl2 1910   2.404   4.484   2.971
    1TCM     h1 1911   2.417   4.459   3.209
    1TCM    cl3 1912   2.454   4.240   3.120
    1TCM     c1 1913   4.249   1.859   4.757
    1TCM    cl1 1914   4.368   1.791   4.644
    1TCM    cl2 1915   4.086   1.805   4.710
    1TCM     h1 1916   4.271   1.824   4.860
    1TCM    cl3 1917   4.256   2.036   4.752
    1TCM     c1 1918   0.294   0.505   0.294
    1TCM    cl1 1919   0.317   0.651   0.392
    1TCM    cl2 1920   0.452   0.435   0.254
    1TCM     h1 1921   0.234   0.431   0.351
    1TCM    cl3 1922   0.208   0.547   0.144
    1TCM     c1 1923   3.910   3.856   5.187
    1TCM    cl1 1924   3.975   3.764   5.049
    1TCM    cl2 1925   3.958   3.776   5.339
    1TCM     h1 1926   3.950   3.959   5.186
    1TCM    cl3 1927   3.732   3.860   5.177
    1TCM     c1 1928   1.969   2.421   2.777
    1TCM    cl1 1929   1.894   2.353   2.631
    1TCM    cl2 1930   1.947   2.598   2.778
    1TCM     h1 1931   1.921   2.377   2.867
    1TCM    cl3 1932   2.143   2.383   2.777
    1TCM     c1 1933   2.121   4.129   1.635
    1TCM    cl1 1934   2.090   4.211   1.480
    1TCM    cl2 1935   2.141   4.251   1.764
    1TCM     h1 1936   2.036   4.063   1.660
    1TCM    cl3 1937   2.270   4.032   1.622
    1TCM     c1 1938   4.092   3.628   1.887
    1TCM    cl1 1939   4.252   3.580   1.824
    1TCM    cl2 1940   4.109   3.780   1.979
    1TCM     h1 1941   4.022   3.644   1.802
    1TCM    cl3 1942   4.029   3.500   1.993
    1TCM     c1 1943   2.574   4.595   0.585
    1TCM    cl1 1944   2.511   4.561   0.748
    1TCM    cl2 1945   2.751   4.582   0.586
    1TCM     h1 1946   2.532   4.522   0.513
    1TCM    cl3 1947   2.527   4.760   0.537
    1TCM     c1 1948   2.786   2.372   4.756
    1TCM    cl1 1949   2.815   2.229   4.655
    1TCM    cl2 1950   2.797   2.519   4.655
    1TCM     h1 1951   2.685   2.366   4.801
    1TCM    cl3 1952   2.908   2.379   4.885
    1TCM     c1 1953   1.558   3.355   2.679
    1TCM    cl1 1954   1.567   3.213   2.572
    1TCM    cl2 1955   1.600   3.307   2.845
    1TCM     h1 1956   1.629   3.432   2.644
    1TCM    cl3 1957   1.393   3.421   2.676
    1TCM     c1 1958   0.677   4.228   4.942
    1TCM    cl1 1959   0.750   4.254   5.102
    1TCM    cl2 1960   0.758   4.091   4.863
    1TCM     h1 1961   0.569   4.205   4.953
    1TCM    cl3 1962   0.698   4.374   4.843
    1TCM     c1 1963   0.220   2.463   1.772
    1TCM    cl1 1964   0.104   2.530   1.889
    1TCM    cl2 1965   0.250   2.582   1.644
    1TCM     h1 1966   0.315   2.440   1.824
    1TCM    cl3 1967   0.154   2.314   1.701
    1TCM     c1 1968   4.490   0.943   4.180
    1TCM    cl1 1969   4.355   1.059   4.179
    1TCM    cl2 1970   4.437   0.792   4.259
    1TCM     h1 1971   4.521   0.921   4.075
    1TCM    cl3 1972   4.627   1.012   4.269
    1TCM     c1 1973   3.996   1.128   0.467
    1TCM    cl1 1974   3.988   0.979   0.371
    1TCM    cl2 1975   4.016   1.087   0.639
    1TCM     h1 1976   4.082   1.190   0.433
    1TCM    cl3 1977   3.845   1.221   0.446
    1TCM     c1 1978   1.952   1.729   3.963
    1TCM    cl1 1979   1.978   1.873   4.064
    1TCM    cl2 1980   2.038   1.748   3.809
    1TCM     h1 1981   1.990   1.639   4.016
    1TCM    cl3 1982   1.778   1.709   3.932
    1TCM     c1 1983   0.291   1.870   2.007
    1TCM    cl1 1984   0.124   1.873   1.946
    1TCM    cl2 1985   0.394   1.974   1.905
    1TCM     h1 1986   0.294   1.907   2.111
    1TCM    cl3 1987   0.353   1.703   2.001
    1TCM     c1 1988   1.644   0.552   3.467
    1TCM    cl1 1989   1.693   0.585   3.300
    1TCM    cl2 1990   1.589   0.703   3.543
    1TCM     h1 1991   1.561   0.479   3.468
    1TCM    cl3 1992   1.782   0.487   3.558
    1TCM     c1 1993   2.304   4.222   1.178
    1TCM    cl1 1994   2.361   4.243   1.011
    1TCM    cl2 1995   2.224   4.064   1.193
    1TCM     h1 1996   2.390   4.227   1.247
    1TCM    cl3 1997   2.188   4.351   1.218
    1TCM     c1 1998   3.479   1.777   4.386
    1TCM    cl1 1999   3.334   1.733   4.480
    1TCM    cl2 2000   3.430   1.824   4.222
    1TCM     h1 2001   3.531   1.862   4.435
    1TCM    cl3 2002   3.588   1.637   4.377
    1TCM     c1 2003   2.232   3.786   4.154
    1TCM    cl1 2004   2.236   3.609   4.148
    1TCM    cl2 2005   2.269   3.841   4.319
    1TCM     h1 2006   2.307   3.828   4.083
    1TCM    cl3 2007   2.069   3.843   4.109
    1TCM     c1 2008   3.182   0.984   4.950
    1TCM    cl1 2009   3.147   0.858   4.830
    1TCM    cl2 2010   3.131   0.928   5.111
    1TCM     h1 2011   3.290   1.005   4.951
    1TCM    cl3 2012   3.093   1.132   4.908
    1TCM     c1 2013   3.145   2.830   2.464
    1TCM    cl1 2014   3.239   2.927   2.580
    1TCM    cl2 2015   3.128   2.921   2.312
    1TCM     h1 2016   3.197   2.735   2.444
    1TCM    cl3 2017   2.984   2.797   2.532
    1TCM     c1 2018   4.711   4.222   0.881
    1TCM    cl1 2019   4.792   4.290   0.738
    1TCM    cl2 2020   4.721   4.338   1.016
    1TCM     h1 2021   4.605   4.202   0.858
    1TCM    cl3 2022   4.791   4.070   0.928
    1TCM     c1 2023   2.132   2.856   4.421
    1TCM    cl1 2024   2.057   3.005   4.359
    1TCM    cl2 2025   2.279   2.898   4.513
    1TCM     h1 2026   2.061   2.803   4.487
    1TCM    cl3 2027   2.176   2.750   4.285
    1TCM     c1 2028   2.592   4.152   4.507
    1TCM    cl1 2029   2.649   4.308   4.443
    1TCM    cl2 2030   2.619   4.147   4.683
    1TCM     h1 2031   2.484   4.141   4.486
    1TCM    cl3 2032   2.682   4.020   4.430
    1TCM     c1 2033   4.428   5.188   2.675
    1TCM    cl1 2034   4.576   5.271   2.623
    1TCM    cl2 2035   4.366   5.265   2.823
    1TCM     h1 2036   4.352   5.195   2.595
    1TCM    cl3 2037   4.465   5.017   2.707
    1TCM     c1 2038   1.873   3.698   2.072
    1TCM    cl1 2039   1.862   3.622   1.912
    1TCM    cl2 2040   2.044   3.726   2.113
    1TCM     h1 2041   1.819   3.795   2.070
    1TCM    cl3 2042   1.800   3.592   2.194
    1TCM     c1 2043   3.499   0.773   1.042
    1TCM    cl1 2044   3.491   0.761   1.219
    1TCM    cl2 2045   3.362   0.687   0.970
    1TCM     h1 2046   3.495   0.880   1.012
    1TCM    cl3 2047   3.651   0.701   0.984
    1TCM     c1 2048   0.294   3.750   2.996
    1TCM    cl1 2049   0.135   3.677   2.964
    1TCM    cl2 2050   0.394   3.634   3.088
    1TCM     h1 2051   0.345   3.773   2.900
    1TCM    cl3 2052   0.274   3.899   3.091
    1TCM     c1 2053   2.931   2.707   4.817
    1TCM    cl1 2054   2.973   2.679   4.988
    1TCM    cl2 2055   2.755   2.691   4.796
    1TCM     h1 2056   2.962   2.810   4.788
    1TCM    cl3 2057   3.014   2.588   4.715
    1TCM     c1 2058   2.281   0.657   0.695
    1TCM    cl1 2059   2.300   0.797   0.804
    1TCM    cl2 2060   2.325   0.704   0.530
    1TCM     h1 2061   2.346   0.574   0.729
    1TCM    cl3 2062   2.111   0.603   0.698
    1TCM     c1 2063   2.913   0.313   2.229
    1TCM    cl1 2064   2.992   0.247   2.083
    1TCM    cl2 2065   2.922   0.193   2.360
    1TCM     h1 2066   2.965   0.406   2.260
    1TCM    cl3 2067   2.743   0.349   2.193
    1TCM     c1 2068   1.783   3.541   4.680
    1TCM    cl1 2069   1.777   3.520   4.503
    1TCM    cl2 2070   1.664   3.432   4.756
    1TCM     h1 2071   1.884   3.516   4.717
    1TCM    cl3 2072   1.744   3.709   4.721
    1TCM     c1 2073   0.817   2.840   0.700
    1TCM    cl1 2074   0.953   2.932   0.767
    1TCM    cl2 2075   0.669   2.876   0.792
    1TCM     h1 2076   0.803   2.869   0.594
    1TCM    cl3 2077   0.852   2.666   0.710
    1TCM     c1 2078   2.924   0.200   3.314
    1TCM    cl1 2079   3.075   0.267   3.378
    1TCM    cl2 2080   2.922   0.024   3.338
    1TCM     h1 2081   2.838   0.246   3.367
    1TCM    cl3 2082   2.911   0.236   3.140
    1TCM     c1 2083   2.056   2.927   1.151
    1TCM    cl1 2084   2.191   2.947   1.038
    1TCM    cl2 2085   2.120   2.898   1.315
    1TCM     h1 2086   1.993   3.018   1.152
    1TCM    cl3 2087   1.957   2.788   1.102
    1TCM     c1 2088   3.126   5.168   4.042
    1TCM    cl1 2089   2.989   5.223   4.140
    1TCM    cl2 2090   3.085   5.014   3.964
    1TCM     h1 2091   3.148   5.244   3.964
    1TCM    cl3 2092   3.269   5.147   4.146
    1TCM     c1 2093   0.275   0.413   4.208
    1TCM    cl1 2094   0.402   0.306   4.271
    1TCM    cl2 2095   0.115   0.347   4.253
    1TCM     h1 2096   0.286   0.514   4.250
    1TCM    cl3 2097   0.287   0.421   4.030
    1TCM     c1 2098   2.446   2.655   3.959
    1TCM    cl1 2099   2.571   2.619   4.080
    1TCM    cl2 2100   2.517   2.646   3.796
    1TCM     h1 2101   2.363   2.582   3.967
    1TCM    cl3 2102   2.383   2.820   3.986
    1TCM     c1 2103   0.781   1.361   0.262
    1TCM    cl1 2104   0.709   1.377   0.100
    1TCM    cl2 2105   0.957   1.380   0.250
    1TCM     h1 2106   0.740   1.440   0.329
    1TCM    cl3 2107   0.743   1.201   0.329
    1TCM     c1 2108   4.677   2.993   1.931
    1TCM    cl1 2109   4.649   2.817   1.921
    1TCM    cl2 2110   4.718   3.037   2.099
    1TCM     h1 2111   4.761   3.021   1.865
    1TCM    cl3 2112   4.530   3.079   1.882
    1TCM     c1 2113   3.117   3.235   0.594
    1TCM    cl1 2114   3.010   3.354   0.516
    1TCM    cl2 2115   3.125   3.268   0.768
    1TCM     h1 2116   3.076   3.133   0.577
    1TCM    cl3 2117   3.280   3.247   0.524
    1TCM     c1 2118   2.595   4.878   1.562
    1TCM    cl1 2119   2.441   4.928   1.635
    1TCM    cl2 2120   2.564   4.787   1.413
    1TCM     h1 2121   2.656   4.967   1.538
    1TCM    cl3 2122   2.684   4.774   1.676
    1TCM     c1 2123   2.698   4.036   4.915
    1TCM    cl1 2124   2.638   3.898   4.819
    1TCM    cl2 2125   2.729   3.982   5.082
    1TCM     h1 2126   2.792   4.074   4.870
    1TCM    cl3 2127   2.576   4.165   4.916
    1TCM     c1 2128   3.992   3.980   2.775
    1TCM    cl1 2129   4.008   4.155   2.797
    1TCM    cl2 2130   4.092   3.895   2.896
    1TCM     h1 2131   3.886   3.950   2.787
    1TCM    cl3 2132   4.047   3.936   2.612
    1TCM     c1 2133   2.397   1.507   2.444
    1TCM    cl1 2134   2.486   1.516   2.597
    1TCM    cl2 2135   2.490   1.589   2.316
    1TCM     h1 2136   2.382   1.401   2.416
    1TCM    cl3 2137   2.239   1.586   2.462
    1TCM     c1 2138   4.908   2.378   0.642
    1TCM    cl1 2139   4.864   2.240   0.539
    1TCM    cl2 2140   4.799   2.385   0.782
    1TCM     h1 2141   5.013   2.366   0.678
    1TCM    cl3 2142   4.895   2.529   0.549
    1TCM     c1 2143   4.230   0.556   3.196
    1TCM    cl1 2144   4.196   0.663   3.333
    1TCM    cl2 2145   4.239   0.652   3.046
    1TCM     h1 2146   4.327   0.504   3.212
    1TCM    cl3 2147   4.101   0.435   3.181
    1TCM     c1 2148   4.816   2.341   0.199
    1TCM    cl1 2149   4.858   2.169   0.213
    1TCM    cl2 2150   4.663   2.357   0.108
    1TCM     h1 2151   4.803   2.384   0.300
    1TCM    cl3 2152   4.945   2.427   0.113
    1TCM     c1 2153   3.383   1.247   1.067
    1TCM    cl1 2154   3.205   1.239   1.075
    1TCM    cl2 2155   3.434   1.414   1.035
    1TCM     h1 2156   3.426   1.213   1.164
    1TCM    cl3 2157   3.441   1.141   0.936
    1TCM     c1 2158   2.796   4.538   4.692
    1TCM    cl1 2159   2.722   4.690   4.745
    1TCM    cl2 2160   2.697   4.401   4.748
    1TCM     h1 2161   2.802   4.536   4.581
    1TCM    cl3 2162   2.960   4.524   4.760
    1TCM     c1 2163   1.532   5.271   0.607
    1TCM    cl1 2164   1.704   5.289   0.648
    1TCM    cl2 2165   1.489   5.098   0.606
    1TCM     h1 2166   1.470   5.324   0.682
    1TCM    cl3 2167   1.502   5.339   0.445
    1TCM     c1 2168   1.419   3.324   4.483
    1TCM    cl1 2169   1.425   3.404   4.642
    1TCM    cl2 2170   1.270   3.228   4.471
    1TCM     h1 2171   1.420   3.401   4.403
    1TCM    cl3 2172   1.560   3.217   4.465
    1TCM     c1 2173   1.219   2.380   2.378
    1TCM    cl1 2174   1.135   2.405   2.533
    1TCM    cl2 2175   1.281   2.213   2.371
    1TCM     h1 2176   1.148   2.397   2.295
    1TCM    cl3 2177   1.355   2.494   2.365
    1TCM     c1 2178   1.406   1.405   0.624
    1TCM    cl1 2179   1.239   1.403   0.561
    1TCM    cl2 2180   1.517   1.347   0.498
    1TCM     h1 2181   1.433   1.508   0.653
    1TCM    cl3 2182   1.416   1.298   0.766
    1TCM     c1 2183   0.346   5.181   3.253
    1TCM    cl1 2184   0.439   5.231   3.396
    1TCM    cl2 2185   0.416   5.257   3.108
    1TCM     h1 2186   0.349   5.071   3.243
    1TCM    cl3 2187   0.177   5.234   3.271
    1TCM     c1 2188   2.798   3.966   0.327
    1TCM    cl1 2189   2.854   4.133   0.311
    1TCM    cl2 2190   2.887   3.862   0.213
    1TCM     h1 2191   2.816   3.930   0.431
    1TCM    cl3 2192   2.624   3.958   0.290
    1TCM     c1 2193   5.056   1.849   0.897
    1TCM    cl1 2194   5.134   1.976   0.993
    1TCM    cl2 2195   5.175   1.773   0.790
    1TCM     h1 2196   5.013   1.772   0.965
    1TCM    cl3 2197   4.925   1.920   0.800
    1TCM     c1 2198   3.287   4.754   4.124
    1TCM    cl1 2199   3.222   4.782   3.961
    1TCM    cl2 2200   3.457   4.702   4.111
    1TCM     h1 2201   3.282   4.848   4.182
    1TCM    cl3 2202   3.192   4.628   4.205
    1TCM     c1 2203   0.447   3.268   3.420
    1TCM    cl1 2204   0.337   3.196   3.299
    1TCM    cl2 2205   0.441   3.445   3.406
    1TCM     h1 2206   0.415   3.238   3.522
    1TCM    cl3 2207   0.613   3.211   3.390
    1TCM     c1 2208   2.885   0.556   1.978
    1TCM    cl1 2209   2.934   0.719   2.030
    1TCM    cl2 2210   3.022   0.475   1.898
    1TCM     h1 2211   2.854   0.497   2.067
    1TCM    cl3 2212   2.749   0.568   1.865
    1TCM     c1 2213   4.853   5.001   4.344
    1TCM    cl1 2214   4.851   5.100   4.197
    1TCM    cl2 2215   4.726   4.876   4.333
    1TCM     h1 2216   4.952   4.952   4.355
    1TCM    cl3 2217   4.822   5.104   4.486
    1TCM     c1 2218   4.071   0.999   2.046
    1TCM    cl1 2219   4.006   0.879   2.160
    1TCM    cl2 2220   3.970   1.003   1.900
    1TCM     h1 2221   4.071   1.099   2.094
    1TCM    cl3 2222   4.238   0.955   2.001
    1TCM     c1 2223   2.295   4.757   2.391
    1TCM    cl1 2224   2.299   4.882   2.517
    1TCM    cl2 2225   2.235   4.605   2.461
    1TCM     h1 2226   2.227   4.790   2.309
    1TCM    cl3 2227   2.459   4.732   2.326
    1TCM     c1 2228   2.277   2.626   0.905
    1TCM    cl1 2229   2.165   2.645   1.043
    1TCM    cl2 2230   2.188   2.558   0.767
    1TCM     h1 2231   2.318   2.725   0.878
    1TCM    cl3 2232   2.409   2.517   0.951
    1TCM     c1 2233   2.229   4.756   0.416
    1TCM    cl1 2234   2.312   4.716   0.568
    1TCM    cl2 2235   2.191   4.930   0.414
    1TCM     h1 2236   2.294   4.731   0.330
    1TCM    cl3 2237   2.078   4.663   0.405
    1TCM     c1 2238   3.663   1.215   2.305
    1TCM    cl1 2239   3.814   1.141   2.248
    1TCM    cl2 2240   3.637   1.174   2.476
    1TCM     h1 2241   3.670   1.326   2.294
    1TCM    cl3 2242   3.527   1.154   2.208
    1TCM     c1 2243   3.743   4.082   0.832
    1TCM    cl1 2244   3.687   3.950   0.728
    1TCM    cl2 2245   3.789   4.017   0.992
    1TCM     h1 2246   3.832   4.131   0.786
    1TCM    cl3 2247   3.613   4.202   0.852
    1TCM     c1 2248   1.749   4.290   2.174
    1TCM    cl1 2249   1.878   4.171   2.146
    1TCM    cl2 2250   1.700   4.362   2.019
    1TCM     h1 2251   1.662   4.240   2.221
    1TCM    cl3 2252   1.809   4.418   2.282
    1TCM     c1 2253   4.965   2.766   3.008
    1TCM    cl1 2254   5.134   2.731   2.965
    1TCM    cl2 2255   4.863   2.629   2.958
    1TCM     h1 2256   4.956   2.780   3.117
    1TCM    cl3 2257   4.911   2.913   2.924
    1TCM     c1 2258   1.618   1.262   2.220
    1TCM    cl1 2259   1.587   1.359   2.074
    1TCM    cl2 2260   1.533   1.106   2.205
    1TCM     h1 2261   1.727   1.244   2.230
    1TCM    cl3 2262   1.558   1.348   2.363
    1TCM     c1 2263   0.943   4.350   0.285
    1TCM    cl1 2264   0.984   4.490   0.184
    1TCM    cl2 2265   0.902   4.405   0.449
    1TCM     h1 2266   0.856   4.296   0.242
    1TCM    cl3 2267   1.083   4.240   0.294
    1TCM     c1 2268   3.149   2.672   0.918
    1TCM    cl1 2269   3.026   2.631   0.796
    1TCM    cl2 2270   3.167   2.537   1.032
    1TCM     h1 2271   3.246   2.691   0.868
    1TCM    cl3 2272   3.097   2.818   1.007
    1TCM     c1 2273   0.619   1.974   2.559
    1TCM    cl1 2274   0.732   2.098   2.618
    1TCM    cl2 2275   0.457   2.045   2.539
    1TCM     h1 2276   0.654   1.935   2.461
    1TCM    cl3 2277   0.610   1.841   2.677
    1TCM     c1 2278   2.629   0.788   4.992
    1TCM    cl1 2279   2.682   0.713   4.840
    1TCM    cl2 2280   2.695   0.698   5.130
    1TCM     h1 2281   2.664   0.893   4.996
    1TCM    cl3 2282   2.451   0.786   5.000
    1TCM     c1 2283   0.394   4.303   4.200
    1TCM    cl1 2284   0.474   4.404   4.323
    1TCM    cl2 2285   0.289   4.184   4.280
    1TCM     h1 2286   0.334   4.367   4.133
    1TCM    cl3 2287   0.518   4.217   4.104
    1TCM     c1 2288   5.042   4.031   1.517
    1TCM    cl1 2289   4.926   4.017   1.652
    1TCM    cl2 2290   5.194   4.101   1.577
    1TCM     h1 2291   5.061   3.930   1.475
    1TCM    cl3 2292   4.974   4.136   1.391
    1TCM     c1 2293   2.597   2.332   0.444
    1TCM    cl1 2294   2.581   2.424   0.293
    1TCM    cl2 2295   2.616   2.444   0.580
    1TCM     h1 2296   2.506   2.270   0.459
    1TCM    cl3 2297   2.740   2.226   0.433
    1TCM     c1 2298   3.382   2.460   2.181
    1TCM    cl1 2299   3.491   2.594   2.141
    1TCM    cl2 2300   3.213   2.513   2.160
    1TCM     h1 2301   3.402   2.374   2.113
    1TCM    cl3 2302   3.408   2.409   2.349
    1TCM     c1 2303   4.063   1.223   5.180
    1TCM    cl1 2304   4.103   1.354   5.293
    1TCM    cl2 2305   4.170   1.084   5.210
    1TCM     h1 2306   3.957   1.192   5.195
    1TCM    cl3 2307   4.085   1.280   5.013
    1TCM     c1 2308   1.106   2.029   4.498
    1TCM    cl1 2309   1.153   1.975   4.661
    1TCM    cl2 2310   1.016   1.899   4.417
    1TCM     h1 2311   1.042   2.119   4.506
    1TCM    cl3 2312   1.252   2.068   4.404
    1TCM     c1 2313   0.451   0.332   2.144
    1TCM    cl1 2314   0.513   0.242   2.003
    1TCM    cl2 2315   0.542   0.284   2.289
    1TCM     h1 2316   0.464   0.441   2.126
    1TCM    cl3 2317   0.279   0.295   2.167
    1TCM     c1 2318   3.821   0.431   1.084
    1TCM    cl1 2319   3.934   0.556   1.143
    1TCM    cl2 2320   3.655   0.497   1.084
    1TCM     h1 2321   3.849   0.402   0.981
    1TCM    cl3 2322   3.828   0.289   1.191
    1TCM     c1 2323   3.177   2.262   3.634
    1TCM    cl1 2324   3.301   2.353   3.545
    1TCM    cl2 2325   3.179   2.312   3.805
    1TCM     h1 2326   3.077   2.283   3.590
    1TCM    cl3 2327   3.211   2.088   3.623
    1TCM     c1 2328   3.738   2.889   3.588
    1TCM    cl1 2329   3.865   2.878   3.711
    1TCM    cl2 2330   3.707   2.727   3.520
    1TCM     h1 2331   3.645   2.928   3.634
    1TCM    cl3 2332   3.791   2.999   3.458
    1TCM     c1 2333   3.258   4.439   1.765
    1TCM    cl1 2334   3.257   4.616   1.777
    1TCM    cl2 2335   3.249   4.391   1.594
    1TCM     h1 2336   3.352   4.399   1.810
    1TCM    cl3 2337   3.118   4.373   1.853
    1TCM     c1 2338   0.528   1.308   4.235
    1TCM    cl1 2339   0.437   1.156   4.254
    1TCM    cl2 2340   0.522   1.359   4.064
    1TCM     h1 2341   0.483   1.386   4.299
    1TCM    cl3 2342   0.697   1.282   4.283
    1TCM     c1 2343   0.361   1.883   1.621
    1TCM    cl1 2344   0.530   1.863   1.673
    1TCM    cl2 2345   0.320   1.757   1.502
    1TCM     h1 2346   0.294   1.874   1.709
    1TCM    cl3 2347   0.341   2.043   1.547
    1TCM     c1 2348   0.101   2.917   1.353
    1TCM    cl1 2349   0.214   2.802   1.280
    1TCM    cl2 2350   0.093   3.064   1.253
    1TCM     h1 2351   0.000   2.872   1.360
    1TCM    cl3 2352   0.157   2.960   1.516
    1TCM     c1 2353   0.936   3.678   0.103
    1TCM    cl1 2354   0.773   3.666   0.174
    1TCM    cl2 2355   0.947   3.825   0.005
    1TCM     h1 2356   1.011   3.682   0.185
    1TCM    cl3 2357   0.966   3.536   0.001
    1TCM     c1 2358   3.611   1.302   1.482
    1TCM    cl1 2359   3.434   1.319   1.487
    1TCM    cl2 2360   3.655   1.134   1.518
    1TCM     h1 2361   3.647   1.329   1.380
    1TCM    cl3 2362   3.684   1.410   1.602
    1TCM     c1 2363   3.507   1.721   4.715
    1TCM    cl1 2364   3.359   1.629   4.750
    1TCM    cl2 2365   3.620   1.706   4.852
    1TCM     h1 2366   3.555   1.680   4.624
    1TCM    cl3 2367   3.467   1.892   4.690
    1TCM     c1 2368   0.697   3.996   4.309
    1TCM    cl1 2369   0.571   4.119   4.332
    1TCM    cl2 2370   0.844   4.072   4.244
    1TCM     h1 2371   0.721   3.948   4.407
    1TCM    cl3 2372   0.639   3.872   4.196
    1TCM     c1 2373   3.626   3.216   5.182
    1TCM    cl1 2374   3.589   3.128   5.032
    1TCM    cl2 2375   3.515   3.164   5.311
    1TCM     h1 2376   3.731   3.195   5.213
    1TCM    cl3 2377   3.607   3.391   5.155
    1TCM     c1 2378   0.955   2.726   1.510
    1TCM    cl1 2379   0.902   2.573   1.585
    1TCM    cl2 2380   1.128   2.714   1.468
    1TCM     h1 2381   0.896   2.744   1.418
    1TCM    cl3 2382   0.931   2.860   1.624
    1TCM     c1 2383   4.403   5.071   5.200
    1TCM    cl1 2384   4.282   5.092   5.329
    1TCM    cl2 2385   4.563   5.116   5.262
    1TCM     h1 2386   4.403   4.966   5.167
    1TCM    cl3 2387   4.361   5.177   5.063
    1TCM     c1 2388   4.403   1.120   0.287
    1TCM    cl1 2389   4.263   1.154   0.182
    1TCM    cl2 2390   4.346   1.093   0.454
    1TCM     h1 2391   4.455   1.029   0.251
    1TCM    cl3 2392   4.514   1.258   0.284
    1TCM     c1 2393   3.074   0.827   3.489
    1TCM    cl1 2394   3.016   0.828   3.320
    1TCM    cl2 2395   3.183   0.966   3.514
    1TCM     h1 2396   2.988   0.835   3.557
    1TCM    cl3 2397   3.163   0.677   3.520
    1TCM     c1 2398   4.349   1.433   4.916
    1TCM    cl1 2399   4.496   1.533   4.907
    1TCM    cl2 2400   4.347   1.318   4.781
    1TCM     h1 2401   4.349   1.377   5.012
    1TCM    cl3 2402   4.206   1.538   4.907
    1TCM     c1 2403   4.771   2.153   3.824
    1TCM    cl1 2404   4.675   2.003   3.823
    1TCM    cl2 2405   4.688   2.277   3.728
    1TCM     h1 2406   4.782   2.189   3.928
    1TCM    cl3 2407   4.931   2.122   3.754
    1TCM     c1 2408   0.113   4.966   3.724
    1TCM    cl1 2409   0.029   4.919   3.575
    1TCM    cl2 2410   0.266   4.877   3.737
    1TCM     h1 2411   0.134   5.075   3.722
    1TCM    cl3 2412   0.010   4.929   3.864
    1TCM     c1 2413   3.391   0.740   3.841
    1TCM    cl1 2414   3.216   0.741   3.808
    1TCM    cl2 2415   3.479   0.689   3.695
    1TCM     h1 2416   3.423   0.842   3.870
    1TCM    cl3 2417   3.425   0.628   3.974
    1TCM     c1 2418   3.833   3.718   1.630
    1TCM    cl1 2419   3.959   3.810   1.544
    1TCM    cl2 2420   3.833   3.764   1.802
    1TCM     h1 2421   3.734   3.740   1.586
    1TCM    cl3 2422   3.866   3.544   1.615
    1TCM     c1 2423   0.539   0.175   1.379
    1TCM    cl1 2424   0.636   0.045   1.452
    1TCM    cl2 2425   0.396   0.105   1.301
    1TCM     h1 2426   0.508   0.246   1.458
    1TCM    cl3 2427   0.637   0.260   1.257
    1TCM     c1 2428   2.164   3.965   3.691
    1TCM    cl1 2429   2.294   3.938   3.809
    1TCM    cl2 2430   2.210   3.895   3.534
    1TCM     h1 2431   2.071   3.916   3.727
    1TCM    cl3 2432   2.136   4.140   3.672
    1TCM     c1 2433   4.520   3.943   1.336
    1TCM    cl1 2434   4.550   3.917   1.510
    1TCM    cl2 2435   4.653   4.039   1.267
    1TCM     h1 2436   4.514   3.845   1.285
    1TCM    cl3 2437   4.367   4.031   1.315
    1TCM     c1 2438   3.132   4.340   4.590
    1TCM    cl1 2439   2.963   4.336   4.646
    1TCM    cl2 2440   3.217   4.195   4.648
    1TCM     h1 2441   3.134   4.342   4.479
    1TCM    cl3 2442   3.212   4.486   4.653
    1TCM     c1 2443   2.076   1.869   4.792
    1TCM    cl1 2444   1.938   1.975   4.828
    1TCM    cl2 2445   2.048   1.786   4.637
    1TCM     h1 2446   2.169   1.929   4.785
    1TCM    cl3 2447   2.093   1.748   4.921
    1TCM     c1 2448   1.565   3.455   2.043
    1TCM    cl1 2449   1.582   3.595   1.934
    1TCM    cl2 2450   1.527   3.512   2.207
    1TCM     h1 2451   1.484   3.389   2.006
    1TCM    cl3 2452   1.718   3.364   2.046
    1TCM     c1 2453   1.811   0.119   1.508
    1TCM    cl1 2454   1.899   0.091   1.660
    1TCM    cl2 2455   1.928   0.151   1.377
    1TCM     h1 2456   1.752   0.029   1.483
    1TCM    cl3 2457   1.704   0.258   1.526
    1TCM     c1 2458   4.210   4.351   3.795
    1TCM    cl1 2459   4.097   4.423   3.678
    1TCM    cl2 2460   4.140   4.358   3.958
    1TCM     h1 2461   4.229   4.245   3.767
    1TCM    cl3 2462   4.363   4.442   3.792
    1TCM     c1 2463   0.708   1.026   3.776
    1TCM    cl1 2464   0.632   1.001   3.617
    1TCM    cl2 2465   0.650   0.903   3.890
    1TCM     h1 2466   0.818   1.018   3.766
    1TCM    cl3 2467   0.666   1.188   3.837
    1TCM     c1 2468   1.688   4.456   0.702
    1TCM    cl1 2469   1.815   4.578   0.679
    1TCM    cl2 2470   1.577   4.509   0.829
    1TCM     h1 2471   1.632   4.442   0.607
    1TCM    cl3 2472   1.763   4.301   0.749
    1TCM     c1 2473   3.293   0.445   0.172
    1TCM    cl1 2474   3.140   0.431   0.261
    1TCM    cl2 2475   3.263   0.424  -0.002
    1TCM     h1 2476   3.338   0.545   0.189
    1TCM    cl3 2477   3.406   0.319   0.228
    1TCM     c1 2478   3.797   0.931   3.288
    1TCM    cl1 2479   3.841   0.924   3.116
    1TCM    cl2 2480   3.944   0.951   3.386
    1TCM     h1 2481   3.729   1.017   3.305
    1TCM    cl3 2482   3.714   0.780   3.334
    1TCM     c1 2483   0.153   4.599   4.003
    1TCM    cl1 2484   0.284   4.503   3.931
    1TCM    cl2 2485   0.219   4.701   4.133
    1TCM     h1 2486   0.107   4.663   3.925
    1TCM    cl3 2487   0.029   4.490   4.070
    1TCM     c1 2488   4.439   1.669   5.262
    1TCM    cl1 2489   4.511   1.820   5.321
    1TCM    cl2 2490   4.420   1.678   5.085
    1TCM     h1 2491   4.505   1.584   5.288
    1TCM    cl3 2492   4.280   1.646   5.338
    1TCM     c1 2493   0.544   0.624   2.753
    1TCM    cl1 2494   0.589   0.621   2.580
    1TCM    cl2 2495   0.430   0.492   2.787
    1TCM     h1 2496   0.636   0.611   2.814
    1TCM    cl3 2497   0.468   0.780   2.791
    1TCM     c1 2498   0.436   2.106   2.210
    1TCM    cl1 2499   0.514   1.954   2.160
    1TCM    cl2 2500   0.428   2.217   2.072
    1TCM     h1 2501   0.334   2.084   2.247
    1TCM    cl3 2502   0.531   2.181   2.341
    1TCM     c1 2503   3.661   2.203   1.684
    1TCM    cl1 2504   3.676   2.169   1.510
    1TCM    cl2 2505   3.803   2.136   1.769
    1TCM     h1 2506   3.657   2.313   1.700
    1TCM    cl3 2507   3.513   2.128   1.747
    1TCM     c1 2508   2.635   0.931   4.337
    1TCM    cl1 2509   2.518   0.984   4.214
    1TCM    cl2 2510   2.559   0.810   4.443
    1TCM     h1 2511   2.723   0.886   4.288
    1TCM    cl3 2512   2.685   1.071   4.435
    1TCM     c1 2513   4.638   2.542   4.917
    1TCM    cl1 2514   4.617   2.673   5.036
    1TCM    cl2 2515   4.530   2.407   4.959
    1TCM     h1 2516   4.612   2.580   4.816
    1TCM    cl3 2517   4.807   2.487   4.919
    1TCM     c1 2518   3.822   0.777   2.864
    1TCM    cl1 2519   3.703   0.766   2.733
    1TCM    cl2 2520   3.910   0.931   2.851
    1TCM     h1 2521   3.770   0.772   2.962
    1TCM    cl3 2522   3.937   0.642   2.852
    1TCM     c1 2523   3.311   2.190   3.299
    1TCM    cl1 2524   3.316   2.031   3.220
    1TCM    cl2 2525   3.306   2.318   3.175
    1TCM     h1 2526   3.220   2.197   3.362
    1TCM    cl3 2527   3.455   2.211   3.401
    1TCM     c1 2528   3.827   1.622   1.489
    1TCM    cl1 2529   3.877   1.774   1.412
    1TCM    cl2 2530   3.736   1.658   1.638
    1TCM     h1 2531   3.762   1.565   1.419
    1TCM    cl3 2532   3.971   1.525   1.529
    1TCM     c1 2533   0.424   3.418   1.584
    1TCM    cl1 2534   0.250   3.417   1.615
    1TCM    cl2 2535   0.464   3.291   1.466
    1TCM     h1 2536   0.454   3.517   1.542
    1TCM    cl3 2537   0.512   3.389   1.735
    1TCM     c1 2538   2.513   3.737   4.564
    1TCM    cl1 2539   2.381   3.767   4.679
    1TCM    cl2 2540   2.470   3.804   4.405
    1TCM     h1 2541   2.606   3.786   4.601
    1TCM    cl3 2542   2.540   3.562   4.549
    1TCM     c1 2543   1.929   1.621   1.964
    1TCM    cl1 2544   2.058   1.699   2.058
    1TCM    cl2 2545   1.979   1.607   1.794
    1TCM     h1 2546   1.909   1.520   2.005
    1TCM    cl3 2547   1.781   1.719   1.975
    1TCM     c1 2548   4.582   2.603   0.351
    1TCM    cl1 2549   4.729   2.622   0.254
    1TCM    cl2 2550   4.626   2.591   0.523
    1TCM     h1 2551   4.516   2.691   0.336
    1TCM    cl3 2552   4.496   2.456   0.301
    1TCM     c1 2553   3.123   4.606   3.562
    1TCM    cl1 2554   2.962   4.592   3.489
    1TCM    cl2 2555   3.214   4.455   3.536
    1TCM     h1 2556   3.178   4.691   3.516
    1TCM    cl3 2557   3.106   4.636   3.737
    1TCM     c1 2558   5.012   3.879   5.225
    1TCM    cl1 2559   4.875   3.787   5.291
    1TCM    cl2 2560   4.994   4.051   5.266
    1TCM     h1 2561   5.107   3.841   5.267
    1TCM    cl3 2562   5.015   3.862   5.048
    1TCM     c1 2563   1.193   2.685   3.338
    1TCM    cl1 2564   1.124   2.553   3.436
    1TCM    cl2 2565   1.172   2.648   3.165
    1TCM     h1 2566   1.142   2.780   3.362
    1TCM    cl3 2567   1.367   2.701   3.375
    1TCM     c1 2568   2.578   2.752   1.264
    1TCM    cl1 2569   2.584   2.895   1.159
    1TCM    cl2 2570   2.421   2.746   1.347
    1TCM     h1 2571   2.591   2.660   1.203
    1TCM    cl3 2572   2.709   2.761   1.384
    1TCM     c1 2573   0.131   3.562   3.584
    1TCM    cl1 2574   0.248   3.570   3.450
    1TCM    cl2 2575   0.001   3.449   3.543
    1TCM     h1 2576   0.183   3.528   3.676
    1TCM    cl3 2577   0.062   3.724   3.612
    1TCM     c1 2578   2.473   4.845   3.299
    1TCM    cl1 2579   2.624   4.790   3.374
    1TCM    cl2 2580   2.339   4.829   3.416
    1TCM     h1 2581   2.483   4.952   3.269
    1TCM    cl3 2582   2.438   4.746   3.156
    1TCM     c1 2583   5.001   2.729   4.195
    1TCM    cl1 2584   5.172   2.778   4.202
    1TCM    cl2 2585   4.898   2.874   4.191
    1TCM     h1 2586   4.984   2.669   4.104
    1TCM    cl3 2587   4.962   2.632   4.339
    1TCM     c1 2588   2.579   2.257   3.579
    1TCM    cl1 2589   2.446   2.140   3.598
    1TCM    cl2 2590   2.598   2.296   3.406
    1TCM     h1 2591   2.556   2.349   3.635
    1TCM    cl3 2592   2.730   2.185   3.640
    1TCM     c1 2593   1.970   0.912   3.893
    1TCM    cl1 2594   2.000   0.784   4.012
    1TCM    cl2 2595   1.924   1.062   3.977
    1TCM     h1 2596   2.063   0.930   3.834
    1TCM    cl3 2597   1.839   0.863   3.784
    1TCM     c1 2598   0.934   0.359   0.887
    1TCM    cl1 2599   0.959   0.516   0.967
    1TCM    cl2 2600   0.966   0.375   0.713
    1TCM     h1 2601   1.002   0.284   0.931
    1TCM    cl3 2602   0.765   0.306   0.911
    1TCM     c1 2603   4.152   1.432   3.646
    1TCM    cl1 2604   4.049   1.576   3.662
    1TCM    cl2 2605   4.186   1.365   3.807
    1TCM     h1 2606   4.100   1.356   3.585
    1TCM    cl3 2607   4.305   1.477   3.567
    1TCM     c1 2608   3.223   4.918   3.405
    1TCM    cl1 2609   3.263   4.779   3.302
    1TCM    cl2 2610   3.056   4.903   3.463
    1TCM     h1 2611   3.293   4.921   3.491
    1TCM    cl3 2612   3.240   5.068   3.311
    1TCM     c1 2613   2.228   2.558   3.107
    1TCM    cl1 2614   2.136   2.433   3.022
    1TCM    cl2 2615   2.117   2.685   3.163
    1TCM     h1 2616   2.280   2.513   3.195
    1TCM    cl3 2617   2.349   2.629   2.997
    1TCM     c1 2618   1.543   0.754   5.238
    1TCM    cl1 2619   1.455   0.870   5.339
    1TCM    cl2 2620   1.488   0.769   5.069
    1TCM     h1 2621   1.652   0.775   5.243
    1TCM    cl3 2622   1.511   0.589   5.295
    1TCM     c1 2623   2.209   4.392   4.403
    1TCM    cl1 2624   2.146   4.411   4.238
    1TCM    cl2 2625   2.172   4.537   4.498
    1TCM     h1 2626   2.161   4.304   4.451
    1TCM    cl3 2627   2.385   4.368   4.398
    1TCM     c1 2628   0.783   3.746   5.056
    1TCM    cl1 2629   0.768   3.873   4.932
    1TCM    cl2 2630   0.621   3.690   5.103
    1TCM     h1 2631   0.841   3.661   5.015
    1TCM    cl3 2632   0.867   3.812   5.199
    1TCM     c1 2633   5.094   3.052   1.872
    1TCM    cl1 2634   5.077   3.195   1.767
    1TCM    cl2 2635   5.087   3.102   2.042
    1TCM     h1 2636   5.011   2.981   1.851
    1TCM    cl3 2637   5.249   2.972   1.839
    1TCM     c1 2638   3.306   1.183   3.595
    1TCM    cl1 2639   3.391   1.304   3.694
    1TCM    cl2 2640   3.362   1.194   3.427
    1TCM     h1 2641   3.326   1.081   3.635
    1TCM    cl3 2642   3.131   1.214   3.601
    1TCM     c1 2643   0.083   1.323   1.830
    1TCM    cl1 2644   0.252   1.269   1.850
    1TCM    cl2 2645   0.001   1.319   1.987
    1TCM     h1 2646   0.082   1.426   1.790
    1TCM    cl3 2647   0.000   1.214   1.716
    1TCM     c1 2648   1.559   0.128   1.258
    1TCM    cl1 2649   1.421   0.073   1.160
    1TCM    cl2 2650   1.684   0.001   1.260
    1TCM     h1 2651   1.602   0.221   1.214
    1TCM    cl3 2652   1.505   0.160   1.424
    1TCM     c1 2653   2.759   2.931   3.887
    1TCM    cl1 2654   2.834   2.814   3.997
    1TCM    cl2 2655   2.885   3.030   3.809
    1TCM     h1 2656   2.701   2.877   3.809
    1TCM    cl3 2657   2.649   3.036   3.979
    1TCM     c1 2658   5.134   3.308   1.241
    1TCM    cl1 2659   5.222   3.435   1.153
    1TCM    cl2 2660   5.042   3.382   1.375
    1TCM     h1 2661   5.063   3.257   1.172
    1TCM    cl3 2662   5.249   3.190   1.307
    1TCM     c1 2663   1.888   0.289   0.187
    1TCM    cl1 2664   1.757   0.170   0.197
    1TCM    cl2 2665   2.014   0.229   0.076
    1TCM     h1 2666   1.849   0.385   0.150
    1TCM    cl3 2667   1.959   0.312   0.349
    1TCM     c1 2668   1.120   1.903   2.983
    1TCM    cl1 2669   1.094   1.730   2.953
    1TCM    cl2 2670   1.283   1.927   3.051
    1TCM     h1 2671   1.111   1.959   2.888
    1TCM    cl3 2672   0.998   1.963   3.098
    1TCM     c1 2673   2.691   3.844   2.449
    1TCM    cl1 2674   2.834   3.761   2.382
    1TCM    cl2 2675   2.744   3.984   2.544
    1TCM     h1 2676   2.626   3.878   2.366
    1TCM    cl3 2677   2.601   3.732   2.553
    1TCM     c1 2678   1.532   0.632   2.913
    1TCM    cl1 2679   1.562   0.755   2.788
    1TCM    cl2 2680   1.469   0.711   3.059
    1TCM     h1 2681   1.458   0.558   2.876
    1TCM    cl3 2682   1.685   0.549   2.952
    1TCM     c1 2683   5.139   5.032   2.831
    1TCM    cl1 2684   5.112   4.902   2.712
    1TCM    cl2 2685   5.167   4.960   2.991
    1TCM     h1 2686   5.227   5.091   2.800
    1TCM    cl3 2687   4.995   5.137   2.837
    1TCM     c1 2688   2.628   3.892   3.230
    1TCM    cl1 2689   2.489   3.934   3.332
    1TCM    cl2 2690   2.647   4.014   3.102
    1TCM     h1 2691   2.720   3.889   3.292
    1TCM    cl3 2692   2.601   3.733   3.155
    1TCM     c1 2693   5.026   5.003   0.270
    1TCM    cl1 2694   4.920   5.036   0.131
    1TCM    cl2 2695   5.067   4.830   0.274
    1TCM     h1 2696   5.119   5.063   0.260
    1TCM    cl3 2697   4.943   5.048   0.420
    1TCM     c1 2698   1.541   4.064   5.169
    1TCM    cl1 2699   1.391   4.050   5.075
    1TCM    cl2 2700   1.631   3.910   5.161
    1TCM     h1 2701   1.604   4.145   5.128
    1TCM    cl3 2702   1.501   4.100   5.339
    1TCM     c1 2703   0.480   1.918   3.519
    1TCM    cl1 2704   0.324   1.852   3.466
    1TCM    cl2 2705   0.484   1.925   3.696
    1TCM     h1 2706   0.562   1.852   3.483
    1TCM    cl3 2707   0.502   2.081   3.452
    1TCM     c1 2708   4.639   0.365   4.809
    1TCM    cl1 2709   4.587   0.504   4.907
    1TCM    cl2 2710   4.665   0.417   4.641
    1TCM     h1 2711   4.733   0.324   4.850
    1TCM    cl3 2712   4.513   0.239   4.813
    1TCM     c1 2713   4.346   2.427   2.474
    1TCM    cl1 2714   4.264   2.302   2.570
    1TCM    cl2 2715   4.488   2.486   2.564
    1TCM     h1 2716   4.378   2.384   2.378
    1TCM    cl3 2717   4.234   2.562   2.445
    1TCM     c1 2718   3.476   4.749   1.717
    1TCM    cl1 2719   3.554   4.615   1.630
    1TCM    cl2 2720   3.586   4.889   1.719
    1TCM     h1 2721   3.382   4.777   1.667
    1TCM    cl3 2722   3.442   4.699   1.885
    1TCM     c1 2723   5.207   5.170   0.749
    1TCM    cl1 2724   5.215   5.340   0.699
    1TCM    cl2 2725   5.036   5.123   0.770
    1TCM     h1 2726   5.254   5.106   0.672
    1TCM    cl3 2727   5.293   5.149   0.903
    1TCM     c1 2728   3.975   5.144   0.254
    1TCM    cl1 2729   4.019   5.084   0.416
    1TCM    cl2 2730   4.123   5.183   0.163
    1TCM     h1 2731   3.918   5.066   0.200
    1TCM    cl3 2732   3.875   5.291   0.270
    1TCM     c1 2733   0.705   5.218   2.437
    1TCM    cl1 2734   0.618   5.335   2.539
    1TCM    cl2 2735   0.696   5.270   2.267
    1TCM     h1 2736   0.811   5.213   2.469
    1TCM    cl3 2737   0.630   5.058   2.454
    1TCM     c1 2738   2.875   5.152   4.385
    1TCM    cl1 2739   2.799   5.273   4.280
    1TCM    cl2 2740   2.953   5.027   4.284
    1TCM     h1 2741   2.951   5.201   4.449
    1TCM    cl3 2742   2.751   5.076   4.488
    1TCM     c1 2743   4.412   4.190   1.834
    1TCM    cl1 2744   4.274   4.196   1.723
    1TCM    cl2 2745   4.354   4.205   2.002
    1TCM     h1 2746   4.466   4.094   1.822
    1TCM    cl3 2747   4.523   4.325   1.798
    1TCM     c1 2748   3.275   3.671   4.888
    1TCM    cl1 2749   3.347   3.576   5.021
    1TCM    cl2 2750   3.298   3.583   4.735
    1TCM     h1 2751   3.167   3.684   4.907
    1TCM    cl3 2752   3.355   3.829   4.879
    1TCM     c1 2753   2.769   0.534   4.351
    1TCM    cl1 2754   2.684   0.514   4.506
    1TCM    cl2 2755   2.729   0.396   4.244
    1TCM     h1 2756   2.736   0.628   4.302
    1TCM    cl3 2757   2.944   0.539   4.378
    1TCM     c1 2758   3.346   3.350   1.813
    1TCM    cl1 2759   3.489   3.434   1.749
    1TCM    cl2 2760   3.329   3.385   1.986
    1TCM     h1 2761   3.255   3.385   1.759
    1TCM    cl3 2762   3.365   3.175   1.789
    1TCM     c1 2763   0.181   3.079   3.549
    1TCM    cl1 2764   0.316   2.984   3.483
    1TCM    cl2 2765   0.208   3.108   3.722
    1TCM     h1 2766   0.175   3.176   3.496
    1TCM    cl3 2767   0.029   2.990   3.527
    1TCM     c1 2768   1.511   3.838   3.102
    1TCM    cl1 2769   1.601   3.866   3.252
    1TCM    cl2 2770   1.515   3.985   3.001
    1TCM     h1 2771   1.557   3.754   3.046
    1TCM    cl3 2772   1.342   3.798   3.141
    1TCM     c1 2773   2.847   4.219   1.743
    1TCM    cl1 2774   2.713   4.103   1.753
    1TCM    cl2 2775   2.919   4.241   1.904
    1TCM     h1 2776   2.924   4.180   1.673
    1TCM    cl3 2777   2.786   4.375   1.684
    1TCM     c1 2778   5.141   1.676   2.961
    1TCM    cl1 2779   5.079   1.635   2.799
    1TCM    cl2 2780   5.319   1.658   2.961
    1TCM     h1 2781   5.114   1.780   2.986
    1TCM    cl3 2782   5.071   1.566   3.081
    1TCM     c1 2783   4.440   3.474   3.034
    1TCM    cl1 2784   4.567   3.350   3.045
    1TCM    cl2 2785   4.295   3.417   3.119
    1TCM     h1 2786   4.476   3.568   3.080
    1TCM    cl3 2787   4.400   3.503   2.863
    1TCM     c1 2788   2.732   4.932   2.625
    1TCM    cl1 2789   2.868   4.817   2.620
    1TCM    cl2 2790   2.736   5.022   2.778
    1TCM     h1 2791   2.740   5.002   2.540
    1TCM    cl3 2792   2.578   4.842   2.614
    1TCM     c1 2793   2.994   3.187   2.424
    1TCM    cl1 2794   2.918   3.052   2.335
    1TCM    cl2 2795   3.160   3.210   2.365
    1TCM     h1 2796   2.935   3.279   2.407
    1TCM    cl3 2797   2.997   3.148   2.597
    1TCM     c1 2798   1.917   3.507   4.154
    1TCM    cl1 2799   1.903   3.652   4.052
    1TCM    cl2 2800   1.943   3.556   4.323
    1TCM     h1 2801   1.824   3.447   4.147
    1TCM    cl3 2802   2.056   3.409   4.100
    1TCM     c1 2803   4.991   1.871   0.511
    1TCM    cl1 2804   5.012   1.843   0.337
    1TCM    cl2 2805   4.951   1.718   0.591
    1TCM     h1 2806   5.086   1.912   0.553
    1TCM    cl3 2807   4.860   1.988   0.537
    1TCM     c1 2808   2.045   3.086   2.141
    1TCM    cl1 2809   2.186   3.113   2.245
    1TCM    cl2 2810   2.099   3.045   1.977
    1TCM     h1 2811   1.984   3.003   2.182
    1TCM    cl3 2812   1.946   3.234   2.135
    1TCM     c1 2813   1.993   0.949   4.969
    1TCM    cl1 2814   2.041   1.117   4.935
    1TCM    cl2 2815   2.112   0.837   4.899
    1TCM     h1 2816   1.987   0.934   5.078
    1TCM    cl3 2817   1.833   0.918   4.896
    1TCM     c1 2818   0.296   5.090   3.998
    1TCM    cl1 2819   0.362   5.210   4.111
    1TCM    cl2 2820   0.328   5.143   3.831
    1TCM     h1 2821   0.343   4.992   4.015
    1TCM    cl3 2822   0.120   5.076   4.022
    1TCM     c1 2823   1.660   4.492   1.725
    1TCM    cl1 2824   1.651   4.627   1.609
    1TCM    cl2 2825   1.827   4.475   1.784
    1TCM     h1 2826   1.593   4.512   1.810
    1TCM    cl3 2827   1.611   4.341   1.645
    1TCM     c1 2828   4.943   0.990   4.262
    1TCM    cl1 2829   4.847   0.902   4.383
    1TCM    cl2 2830   4.868   0.972   4.102
    1TCM     h1 2831   4.946   1.098   4.289
    1TCM    cl3 2832   5.108   0.925   4.258
    1TCM     c1 2833   2.339   3.225   0.253
    1TCM    cl1 2834   2.303   3.340   0.122
    1TCM    cl2 2835   2.262   3.282   0.404
    1TCM     h1 2836   2.299   3.125   0.227
    1TCM    cl3 2837   2.515   3.215   0.277
    1TCM     c1 2838   2.677   4.258   1.396
    1TCM    cl1 2839   2.722   4.426   1.431
    1TCM    cl2 2840   2.699   4.226   1.223
    1TCM     h1 2841   2.742   4.190   1.455
    1TCM    cl3 2842   2.507   4.232   1.440
    1TCM     c1 2843   1.677   0.949   4.110
    1TCM    cl1 2844   1.779   0.816   4.170
    1TCM    cl2 2845   1.710   0.976   3.937
    1TCM     h1 2846   1.570   0.923   4.123
    1TCM    cl3 2847   1.714   1.098   4.201
    1TCM     c1 2848   1.586   1.127   2.871
    1TCM    cl1 2849   1.607   1.146   2.696
    1TCM    cl2 2850   1.531   0.961   2.907
    1TCM     h1 2851   1.683   1.146   2.922
    1TCM    cl3 2852   1.465   1.243   2.929
    1TCM     c1 2853   1.991   3.192   3.478
    1TCM    cl1 2854   1.962   3.170   3.304
    1TCM    cl2 2855   2.034   3.361   3.510
    1TCM     h1 2856   1.899   3.165   3.534
    1TCM    cl3 2857   2.125   3.086   3.530
    1TCM     c1 2858   3.862   4.284   3.039
    1TCM    cl1 2859   3.808   4.427   3.130
    1TCM    cl2 2860   3.881   4.328   2.867
    1TCM     h1 2861   3.959   4.249   3.079
    1TCM    cl3 2862   3.741   4.155   3.054
    1TCM     c1 2863   2.704   5.133   0.532
    1TCM    cl1 2864   2.881   5.128   0.511
    1TCM    cl2 2865   2.651   5.302   0.548
    1TCM     h1 2866   2.655   5.087   0.443
    1TCM    cl3 2867   2.659   5.043   0.678
    1TCM     c1 2868   1.651   3.805   4.112
    1TCM    cl1 2869   1.773   3.934   4.103
    1TCM    cl2 2870   1.699   3.686   4.235
    1TCM     h1 2871   1.553   3.849   4.138
    1TCM    cl3 2872   1.640   3.724   3.954
    1TCM     c1 2873   2.369   2.236   1.326
    1TCM    cl1 2874   2.509   2.341   1.359
    1TCM    cl2 2875   2.233   2.335   1.268
    1TCM     h1 2876   2.396   2.161   1.249
    1TCM    cl3 2877   2.322   2.152   1.476
    1TCM     c1 2878   3.141   0.139   3.826
    1TCM    cl1 2879   3.187   0.077   3.986
    1TCM    cl2 2880   3.127   0.316   3.832
    1TCM     h1 2881   3.219   0.111   3.752
    1TCM    cl3 2882   2.985   0.069   3.779
    1TCM     c1 2883   2.052   1.217   2.101
    1TCM    cl1 2884   2.040   1.345   1.977
    1TCM    cl2 2885   1.946   1.258   2.238
    1TCM     h1 2886   2.020   1.121   2.057
    1TCM    cl3 2887   2.220   1.205   2.157
    1TCM     c1 2888   2.328   2.797   0.411
    1TCM    cl1 2889   2.201   2.855   0.521
    1TCM    cl2 2890   2.281   2.830   0.243
    1TCM     h1 2891   2.423   2.849   0.434
    1TCM    cl3 2892   2.350   2.622   0.433
    1TCM     c1 2893   3.607   2.510   4.371
    1TCM    cl1 2894   3.692   2.661   4.410
    1TCM    cl2 2895   3.723   2.391   4.308
    1TCM     h1 2896   3.559   2.470   4.463
    1TCM    cl3 2897   3.483   2.542   4.248
    1TCM     c1 2898   0.769   0.431   1.995
    1TCM    cl1 2899   0.629   0.393   1.893
    1TCM    cl2 2900   0.732   0.388   2.164
    1TCM     h1 2901   0.857   0.373   1.961
    1TCM    cl3 2902   0.804   0.605   1.985
    1TCM     c1 2903   0.076   2.891   3.875
    1TCM    cl1 2904   0.105   3.062   3.911
    1TCM    cl2 2905   0.007   2.811   4.018
    1TCM     h1 2906   0.004   2.882   3.790
    1TCM    cl3 2907   0.229   2.812   3.831
    1TCM     c1 2908   4.295   4.858   0.793
    1TCM    cl1 2909   4.326   4.857   0.968
    1TCM    cl2 2910   4.332   5.018   0.727
    1TCM     h1 2911   4.360   4.782   0.744
    1TCM    cl3 2912   4.124   4.819   0.763
    1TCM     c1 2913   0.298   4.307   1.099
    1TCM    cl1 2914   0.262   4.133   1.094
    1TCM    cl2 2915   0.160   4.398   1.032
    1TCM     h1 2916   0.315   4.338   1.204
    1TCM    cl3 2917   0.443   4.340   1.002
    1TCM     c1 2918   2.194   2.352   3.821
    1TCM    cl1 2919   2.263   2.386   3.660
    1TCM    cl2 2920   2.326   2.330   3.938
    1TCM     h1 2921   2.131   2.438   3.852
    1TCM    cl3 2922   2.096   2.205   3.813
    1TCM     c1 2923   0.578   4.087   1.295
    1TCM    cl1 2924   0.472   4.120   1.155
    1TCM    cl2 2925   0.519   4.177   1.436
    1TCM     h1 2926   0.577   3.978   1.317
    1TCM    cl3 2927   0.744   4.138   1.257
    1TCM     c1 2928   1.471   3.889   0.403
    1TCM    cl1 2929   1.324   3.871   0.501
    1TCM    cl2 2930   1.591   3.768   0.454
    1TCM     h1 2931   1.447   3.874   0.296
    1TCM    cl3 2932   1.538   4.052   0.426
    1TCM     c1 2933   3.181   2.127   2.547
    1TCM    cl1 2934   3.323   2.022   2.526
    1TCM    cl2 2935   3.176   2.247   2.416
    1TCM     h1 2936   3.089   2.066   2.545
    1TCM    cl3 2937   3.193   2.211   2.703
    1TCM     c1 2938   1.915   2.760   2.486
    1TCM    cl1 2939   2.049   2.768   2.603
    1TCM    cl2 2940   1.760   2.762   2.574
    1TCM     h1 2941   1.920   2.848   2.418
    1TCM    cl3 2942   1.928   2.611   2.391
    1TCM     c1 2943   3.415   5.124   2.095
    1TCM    cl1 2944   3.349   5.242   1.979
    1TCM    cl2 2945   3.280   5.039   2.174
    1TCM     h1 2946   3.478   5.051   2.041
    1TCM    cl3 2947   3.512   5.209   2.217
    1TCM     c1 2948   1.045   2.539   4.402
    1TCM    cl1 2949   1.154   2.627   4.512
    1TCM    cl2 2950   1.076   2.590   4.235
    1TCM     h1 2951   1.064   2.430   4.411
    1TCM    cl3 2952   0.876   2.574   4.445
    1TCM     c1 2953   4.627   3.898   4.931
    1TCM    cl1 2954   4.688   3.757   5.021
    1TCM    cl2 2955   4.721   3.919   4.782
    1TCM     h1 2956   4.520   3.882   4.906
    1TCM    cl3 2957   4.643   4.044   5.032
    1TCM     c1 2958   4.921   1.879   4.163
    1TCM    cl1 2959   5.087   1.821   4.184
    1TCM    cl2 2960   4.871   1.854   3.994
    1TCM     h1 2961   4.853   1.824   4.230
    1TCM    cl3 2962   4.914   2.053   4.201
    1TCM     c1 2963   4.128   2.240   2.863
    1TCM    cl1 2964   4.034   2.388   2.839
    1TCM    cl2 2965   4.155   2.160   2.707
    1TCM     h1 2966   4.226   2.265   2.908
    1TCM    cl3 2967   4.040   2.130   2.971
    1TCM     c1 2968   1.468   2.828   5.168
    1TCM    cl1 2969   1.451   2.997   5.221
    1TCM    cl2 2970   1.311   2.745   5.184
    1TCM     h1 2971   1.501   2.825   5.062
    1TCM    cl3 2972   1.589   2.746   5.270
    1TCM     c1 2973   3.666   2.145   3.132
    1TCM    cl1 2974   3.512   2.230   3.106
    1TCM    cl2 2975   3.724   2.178   3.296
    1TCM     h1 2976   3.651   2.036   3.118
    1TCM    cl3 2977   3.786   2.203   3.013
    1TCM     c1 2978   2.754   4.871   1.041
    1TCM    cl1 2979   2.707   5.028   1.111
    1TCM    cl2 2980   2.669   4.847   0.887
    1TCM     h1 2981   2.864   4.870   1.023
    1TCM    cl3 2982   2.711   4.740   1.153
    1TCM     c1 2983   1.700   3.828   0.852
    1TCM    cl1 2984   1.865   3.883   0.886
    1TCM    cl2 2985   1.689   3.775   0.683
    1TCM     h1 2986   1.674   3.743   0.919
    1TCM    cl3 2987   1.586   3.961   0.880
    1TCM     c1 2988   5.073   3.219   5.124
    1TCM    cl1 2989   5.005   3.341   5.234
    1TCM    cl2 2990   4.957   3.084   5.107
    1TCM     h1 2991   5.091   3.264   5.025
    1TCM    cl3 2992   5.226   3.157   5.191
    1TCM     c1 2993   2.952   5.035   3.099
    1TCM    cl1 2994   3.036   5.190   3.079
    1TCM    cl2 2995   2.882   4.985   2.944
    1TCM     h1 2996   3.024   4.958   3.134
    1TCM    cl3 2997   2.822   5.053   3.220
    1TCM     c1 2998   4.805   3.871   3.670
    1TCM    cl1 2999   4.772   3.844   3.843
    1TCM    cl2 3000   4.652   3.906   3.585
    1TCM     h1 3001   4.874   3.957   3.659
    1TCM    cl3 3002   4.879   3.726   3.601
    1TCM     c1 3003   1.686   0.904   3.145
    1TCM    cl1 3004   1.810   1.027   3.111
    1TCM    cl2 3005   1.530   0.984   3.177
    1TCM     h1 3006   1.675   0.837   3.057
    1TCM    cl3 3007   1.734   0.809   3.287
    1TCM     c1 3008   3.317   2.736   4.577
    1TCM    cl1 3009   3.464   2.831   4.546
    1TCM    cl2 3010   3.270   2.649   4.429
    1TCM     h1 3011   3.337   2.663   4.658
    1TCM    cl3 3012   3.185   2.845   4.626
    1TCM     c1 3013   2.352   4.264   0.615
    1TCM    cl1 3014   2.477   4.204   0.504
    1TCM    cl2 3015   2.423   4.288   0.777
    1TCM     h1 3016   2.312   4.361   0.578
    1TCM    cl3 3017   2.220   4.146   0.626
    1TCM     c1 3018   3.241   1.592   0.296
    1TCM    cl1 3019   3.356   1.686   0.199
    1TCM    cl2 3020   3.158   1.474   0.192
    1TCM     h1 3021   3.296   1.538   0.377
    1TCM    cl3 3022   3.121   1.701   0.369
    1TCM     c1 3023   2.385   1.752   4.034
    1TCM    cl1 3024   2.409   1.804   4.202
    1TCM    cl2 3025   2.223   1.801   3.979
    1TCM     h1 3026   2.461   1.799   3.969
    1TCM    cl3 3027   2.399   1.575   4.024
    1TCM     c1 3028   1.266   0.938   2.713
    1TCM    cl1 3029   1.437   0.986   2.700
    1TCM    cl2 3030   1.185   0.965   2.557
    1TCM     h1 3031   1.260   0.830   2.739
    1TCM    cl3 3032   1.186   1.034   2.839
    1TCM     c1 3033   2.825   4.329   5.120
    1TCM    cl1 3034   2.775   4.268   5.279
    1TCM    cl2 3035   2.681   4.365   5.022
    1TCM     h1 3036   2.885   4.421   5.133
    1TCM    cl3 3037   2.924   4.206   5.037
    1TCM     c1 3038   2.315   4.477   1.618
    1TCM    cl1 3039   2.145   4.521   1.647
    1TCM    cl2 3040   2.373   4.559   1.471
    1TCM     h1 3041   2.376   4.508   1.704
    1TCM    cl3 3042   2.327   4.301   1.596
    1TCM     c1 3043   0.969   2.566   5.141
    1TCM    cl1 3044   0.819   2.531   5.230
    1TCM    cl2 3045   0.969   2.477   4.987
    1TCM     h1 3046   0.975   2.675   5.121
    1TCM    cl3 3047   1.109   2.516   5.239
    1TCM     c1 3048   1.707   1.196   1.842
    1TCM    cl1 3049   1.638   1.307   1.721
    1TCM    cl2 3050   1.578   1.097   1.913
    1TCM     h1 3051   1.782   1.130   1.793
    1TCM    cl3 3052   1.787   1.290   1.970
    1TCM     c1 3053   0.520   3.623   3.641
    1TCM    cl1 3054   0.395   3.750   3.638
    1TCM    cl2 3055   0.587   3.602   3.478
    1TCM     h1 3056   0.601   3.653   3.711
    1TCM    cl3 3057   0.448   3.470   3.696
    1TCM     c1 3058   0.266   0.161   3.806
    1TCM    cl1 3059   0.319   0.329   3.784
    1TCM    cl2 3060   0.387   0.050   3.739
    1TCM     h1 3061   0.253   0.140   3.915
    1TCM    cl3 3062   0.110   0.137   3.723
    1TCM     c1 3063   4.263   5.195   3.310
    1TCM    cl1 3064   4.408   5.220   3.409
    1TCM    cl2 3065   4.289   5.055   3.203
    1TCM     h1 3066   4.176   5.175   3.376
    1TCM    cl3 3067   4.232   5.340   3.212
    1TCM     c1 3068   3.249   4.021   1.529
    1TCM    cl1 3069   3.383   4.118   1.594
    1TCM    cl2 3070   3.280   3.849   1.561
    1TCM     h1 3071   3.154   4.051   1.579
    1TCM    cl3 3072   3.235   4.048   1.354
    1TCM     c1 3073   4.643   4.323   3.840
    1TCM    cl1 3074   4.567   4.470   3.904
    1TCM    cl2 3075   4.742   4.247   3.967
    1TCM     h1 3076   4.565   4.252   3.807
    1TCM    cl3 3077   4.747   4.365   3.701
    1TCM     c1 3078   0.952   3.728   0.401
    1TCM    cl1 3079   0.938   3.557   0.353
    1TCM    cl2 3080   0.877   3.831   0.277
    1TCM     h1 3081   0.900   3.743   0.498
    1TCM    cl3 3082   1.124   3.771   0.419
    1TCM     c1 3083   5.127   2.332   5.095
    1TCM    cl1 3084   5.064   2.265   5.248
    1TCM    cl2 3085   5.303   2.354   5.109
    1TCM     h1 3086   5.105   2.261   5.012
    1TCM    cl3 3087   5.049   2.488   5.062
    1TCM     c1 3088   0.994   5.026   2.475
    1TCM    cl1 3089   0.935   5.102   2.625
    1TCM    cl2 3090   0.987   5.145   2.343
    1TCM     h1 3091   1.098   4.992   2.490
    1TCM    cl3 3092   0.891   4.887   2.434
    1TCM     c1 3093   1.013   1.250   4.196
    1TCM    cl1 3094   0.925   1.339   4.322
    1TCM    cl2 3095   0.945   1.290   4.037
    1TCM     h1 3096   1.120   1.280   4.198
    1TCM    cl3 3097   0.999   1.075   4.225
    1TCM     c1 3098   3.913   2.698   4.212
    1TCM    cl1 3099   3.791   2.627   4.105
    1TCM    cl2 3100   3.907   2.618   4.371
    1TCM     h1 3101   4.014   2.684   4.168
    1TCM    cl3 3102   3.881   2.872   4.232
    1TCM     c1 3103   2.294   3.523   5.215
    1TCM    cl1 3104   2.441   3.547   5.119
    1TCM    cl2 3105   2.183   3.414   5.128
    1TCM     h1 3106   2.320   3.478   5.313
    1TCM    cl3 3107   2.214   3.680   5.242
    1TCM     c1 3108   1.281   0.595   0.975
    1TCM    cl1 3109   1.276   0.611   0.798
    1TCM    cl2 3110   1.253   0.754   1.050
    1TCM     h1 3111   1.202   0.524   1.008
    1TCM    cl3 3112   1.440   0.533   1.025
    1TCM     c1 3113   0.413   3.659   0.561
    1TCM    cl1 3114   0.473   3.630   0.396
    1TCM    cl2 3115   0.406   3.505   0.650
    1TCM     h1 3116   0.481   3.729   0.614
    1TCM    cl3 3117   0.250   3.731   0.553
    1TCM     c1 3118   3.219   1.679   3.452
    1TCM    cl1 3119   3.213   1.823   3.347
    1TCM    cl2 3120   3.217   1.533   3.351
    1TCM     h1 3121   3.312   1.681   3.512
    1TCM    cl3 3122   3.078   1.679   3.559
    1TCM     c1 3123   2.852   4.761   0.316
    1TCM    cl1 3124   2.927   4.866   0.193
    1TCM    cl2 3125   2.829   4.598   0.248
    1TCM     h1 3126   2.919   4.755   0.404
    1TCM    cl3 3127   2.695   4.828   0.365
    1TCM     c1 3128   3.743   3.531   3.394
    1TCM    cl1 3129   3.919   3.530   3.418
    1TCM    cl2 3130   3.701   3.645   3.264
    1TCM     h1 3131   3.708   3.429   3.367
    1TCM    cl3 3132   3.663   3.582   3.545
    1TCM     c1 3133   3.018   3.970   1.104
    1TCM    cl1 3134   3.025   4.147   1.120
    1TCM    cl2 3135   2.848   3.918   1.092
    1TCM     h1 3136   3.072   3.938   1.013
    1TCM    cl3 3137   3.093   3.895   1.247
    1TCM     c1 3138   4.481   4.352   1.190
    1TCM    cl1 3139   4.490   4.445   1.039
    1TCM    cl2 3140   4.642   4.287   1.229
    1TCM     h1 3141   4.447   4.418   1.272
    1TCM    cl3 3142   4.366   4.217   1.170
    1TCM     c1 3143   4.571   3.078   0.256
    1TCM    cl1 3144   4.512   3.226   0.335
    1TCM    cl2 3145   4.730   3.034   0.323
    1TCM     h1 3146   4.499   2.995   0.274
    1TCM    cl3 3147   4.586   3.106   0.081
    1TCM     c1 3148   2.928   1.033   2.242
    1TCM    cl1 3149   2.832   0.897   2.306
    1TCM    cl2 3150   2.835   1.117   2.116
    1TCM     h1 3151   2.951   1.104   2.324
    1TCM    cl3 3152   3.080   0.971   2.173
    1TCM     c1 3153   3.444   4.581   2.994
    1TCM    cl1 3154   3.466   4.723   2.888
    1TCM    cl2 3155   3.356   4.630   3.141
    1TCM     h1 3156   3.386   4.504   2.940
    1TCM    cl3 3157   3.603   4.516   3.039
    1TCM     c1 3158   3.725   3.479   3.938
    1TCM    cl1 3159   3.819   3.576   4.054
    1TCM    cl2 3160   3.738   3.307   3.982
    1TCM     h1 3161   3.619   3.510   3.941
    1TCM    cl3 3162   3.790   3.503   3.774
    1TCM     c1 3163   4.171   0.315   0.213
    1TCM    cl1 3164   4.319   0.303   0.310
    1TCM    cl2 3165   4.201   0.248   0.050
    1TCM     h1 3166   4.090   0.257   0.262
    1TCM    cl3 3167   4.122   0.485   0.199
    1TCM     c1 3168   3.263   3.173   3.466
    1TCM    cl1 3169   3.369   3.099   3.588
    1TCM    cl2 3170   3.336   3.154   3.305
    1TCM     h1 3171   3.164   3.124   3.468
    1TCM    cl3 3172   3.244   3.346   3.502
    1TCM     c1 3173   0.662   2.617   1.916
    1TCM    cl1 3174   0.788   2.690   1.815
    1TCM    cl2 3175   0.635   2.449   1.864
    1TCM     h1 3176   0.695   2.618   2.022
    1TCM    cl3 3177   0.511   2.709   1.900
    1TCM     c1 3178   5.193   4.294   3.021
    1TCM    cl1 3179   5.203   4.453   2.942
    1TCM    cl2 3180   5.245   4.309   3.191
    1TCM     h1 3181   5.089   4.257   3.017
    1TCM    cl3 3182   5.300   4.180   2.936
    1TCM     c1 3183   2.348   3.545   1.670
    1TCM    cl1 3184   2.472   3.484   1.559
    1TCM    cl2 3185   2.414   3.553   1.835
    1TCM     h1 3186   2.316   3.647   1.638
    1TCM    cl3 3187   2.207   3.436   1.668
    1TCM     c1 3188   5.088   1.371   2.445
    1TCM    cl1 3189   5.129   1.502   2.332
    1TCM    cl2 3190   5.237   1.296   2.506
    1TCM     h1 3191   5.030   1.412   2.530
    1TCM    cl3 3192   4.991   1.248   2.361
    1TCM     c1 3193   4.193   3.119   3.998
    1TCM    cl1 3194   4.036   3.060   4.058
    1TCM    cl2 3195   4.315   2.992   4.019
    1TCM     h1 3196   4.184   3.145   3.891
    1TCM    cl3 3197   4.241   3.263   4.090
    1TCM     c1 3198   1.609   3.548   3.477
    1TCM    cl1 3199   1.661   3.655   3.345
    1TCM    cl2 3200   1.628   3.378   3.428
    1TCM     h1 3201   1.671   3.568   3.567
    1TCM    cl3 3202   1.438   3.581   3.515
    1TCM     c1 3203   2.554   3.265   2.631
    1TCM    cl1 3204   2.456   3.180   2.752
    1TCM    cl2 3205   2.725   3.262   2.680
    1TCM     h1 3206   2.542   3.216   2.532
    1TCM    cl3 3207   2.499   3.434   2.618
    1TCM     c1 3208   1.894   2.892   0.172
    1TCM    cl1 3209   1.796   2.781   0.270
    1TCM    cl2 3210   1.872   2.854  -0.000
    1TCM     h1 3211   1.862   2.996   0.192
    1TCM    cl3 3212   2.066   2.874   0.216
    1TCM     c1 3213   4.822   0.836   2.890
    1TCM    cl1 3214   4.776   0.671   2.937
    1TCM    cl2 3215   4.723   0.888   2.752
    1TCM     h1 3216   4.806   0.905   2.975
    1TCM    cl3 3217   4.994   0.838   2.843
    1TCM     c1 3218   4.888   2.047   1.275
    1TCM    cl1 3219   4.762   2.017   1.154
    1TCM    cl2 3220   4.844   2.189   1.373
    1TCM     h1 3221   4.898   1.959   1.341
    1TCM    cl3 3222   5.043   2.078   1.193
    1TCM     c1 3223   3.184   4.067   0.356
    1TCM    cl1 3224   3.278   3.959   0.461
    1TCM    cl2 3225   3.175   3.997   0.192
    1TCM     h1 3226   3.081   4.078   0.396
    1TCM    cl3 3227   3.262   4.226   0.347
    1TCM     c1 3228   2.737   4.023   3.596
    1TCM    cl1 3229   2.823   3.994   3.749
    1TCM    cl2 3230   2.839   3.969   3.460
    1TCM     h1 3231   2.642   3.965   3.596
    1TCM    cl3 3232   2.702   4.196   3.578
    1TCM     c1 3233   2.044   4.557   2.220
    1TCM    cl1 3234   2.072   4.390   2.167
    1TCM    cl2 3235   2.007   4.558   2.394
    1TCM     h1 3236   2.134   4.618   2.201
    1TCM    cl3 3237   1.906   4.626   2.131
    1TCM     c1 3238   1.605   1.705   0.689
    1TCM    cl1 3239   1.452   1.694   0.780
    1TCM    cl2 3240   1.690   1.854   0.734
    1TCM     h1 3241   1.668   1.617   0.712
    1TCM    cl3 3242   1.569   1.707   0.515
    1TCM     c1 3243   0.278   2.832   4.380
    1TCM    cl1 3244   0.312   2.997   4.325
    1TCM    cl2 3245   0.315   2.717   4.248
    1TCM     h1 3246   0.341   2.808   4.468
    1TCM    cl3 3247   0.106   2.817   4.424
    1TCM     c1 3248   0.502   1.614   4.677
    1TCM    cl1 3249   0.549   1.765   4.759
    1TCM    cl2 3250   0.586   1.477   4.752
    1TCM     h1 3251   0.392   1.600   4.685
    1TCM    cl3 3252   0.547   1.624   4.505
    1TCM     c1 3253   5.034   2.934   0.650
    1TCM    cl1 3254   5.060   2.922   0.825
    1TCM    cl2 3255   5.053   2.772   0.577
    1TCM     h1 3256   4.932   2.971   0.630
    1TCM    cl3 3257   5.154   3.045   0.579
    1TCM     c1 3258   2.220   4.219   4.834
    1TCM    cl1 3259   2.274   4.066   4.909
    1TCM    cl2 3260   2.222   4.348   4.957
    1TCM     h1 3261   2.288   4.246   4.751
    1TCM    cl3 3262   2.055   4.199   4.772
    1TCM     c1 3263   3.079   3.456   3.253
    1TCM    cl1 3264   2.914   3.465   3.188
    1TCM    cl2 3265   3.161   3.612   3.227
    1TCM     h1 3266   3.075   3.434   3.361
    1TCM    cl3 3267   3.168   3.327   3.169
    1TCM     c1 3268   2.955   4.382   0.390
    1TCM    cl1 3269   2.957   4.255   0.515
    1TCM    cl2 3270   3.102   4.370   0.291
    1TCM     h1 3271   2.866   4.370   0.326
    1TCM    cl3 3272   2.950   4.542   0.468
    1TCM     c1 3273   3.470   4.510   0.465
    1TCM    cl1 3274   3.469   4.355   0.377
    1TCM    cl2 3275   3.508   4.480   0.636
    1TCM     h1 3276   3.547   4.577   0.421
    1TCM    cl3 3277   3.311   4.587   0.452
    1TCM     c1 3278   2.299   3.822   1.066
    1TCM    cl1 3279   2.466   3.881   1.059
    1TCM    cl2 3280   2.265   3.760   1.229
    1TCM     h1 3281   2.229   3.905   1.043
    1TCM    cl3 3282   2.276   3.691   0.947
    1TCM     c1 3283   4.096   3.935   3.741
    1TCM    cl1 3284   4.167   3.881   3.587
    1TCM    cl2 3285   4.227   3.972   3.857
    1TCM     h1 3286   4.036   4.027   3.724
    1TCM    cl3 3287   3.993   3.807   3.808
    1TCM     c1 3288   5.218   4.780   4.201
    1TCM    cl1 3289   5.064   4.742   4.121
    1TCM    cl2 3290   5.186   4.839   4.366
    1TCM     h1 3291   5.281   4.689   4.206
    1TCM    cl3 3292   5.303   4.906   4.109
    1TCM     c1 3293   4.210   0.352   3.543
    1TCM    cl1 3294   4.239   0.212   3.648
    1TCM    cl2 3295   4.056   0.430   3.588
    1TCM     h1 3296   4.293   0.425   3.554
    1TCM    cl3 3297   4.201   0.298   3.373
    1TCM     c1 3298   2.443   2.663   3.449
    1TCM    cl1 3299   2.389   2.798   3.346
    1TCM    cl2 3300   2.387   2.690   3.616
    1TCM     h1 3301   2.400   2.568   3.411
    1TCM    cl3 3302   2.621   2.654   3.447
    1TCM     c1 3303   5.017   4.582   2.605
    1TCM    cl1 3304   4.984   4.701   2.734
    1TCM    cl2 3305   5.001   4.418   2.671
    1TCM     h1 3306   4.945   4.597   2.523
    1TCM    cl3 3307   5.182   4.606   2.544
    1TCM     c1 3308   2.385   0.840   2.065
    1TCM    cl1 3309   2.292   0.726   1.965
    1TCM    cl2 3310   2.390   0.781   2.233
    1TCM     h1 3311   2.489   0.848   2.025
    1TCM    cl3 3312   2.308   1.000   2.060
    1TCM     c1 3313   0.277   2.364   3.077
    1TCM    cl1 3314   0.160   2.347   2.945
    1TCM    cl2 3315   0.319   2.203   3.140
    1TCM     h1 3316   0.368   2.414   3.040
    1TCM    cl3 3317   0.205   2.461   3.208
    1TCM     c1 3318   1.077   4.064   1.099
    1TCM    cl1 3319   1.067   4.074   0.922
    1TCM    cl2 3320   1.204   3.947   1.144
    1TCM     h1 3321   1.103   4.164   1.140
    1TCM    cl3 3322   0.921   4.011   1.165
    1TCM     c1 3323   2.678   3.008   0.703
    1TCM    cl1 3324   2.734   3.065   0.544
    1TCM    cl2 3325   2.593   3.140   0.786
    1TCM     h1 3326   2.609   2.922   0.689
    1TCM    cl3 3327   2.818   2.956   0.800
    1TCM     c1 3328   0.644   0.655   0.944
    1TCM    cl1 3329   0.750   0.545   0.853
    1TCM    cl2 3330   0.538   0.560   1.051
    1TCM     h1 3331   0.706   0.724   1.005
    1TCM    cl3 3332   0.544   0.749   0.831
    1TCM     c1 3333   5.077   2.180   3.241
    1TCM    cl1 3334   4.997   2.303   3.341
    1TCM    cl2 3335   5.091   2.239   3.074
    1TCM     h1 3336   5.179   2.159   3.282
    1TCM    cl3 3337   4.982   2.030   3.243
    1TCM     c1 3338   2.500   1.013   3.492
    1TCM    cl1 3339   2.628   1.016   3.368
    1TCM    cl2 3340   2.564   1.077   3.645
    1TCM     h1 3341   2.415   1.075   3.458
    1TCM    cl3 3342   2.446   0.846   3.516
    1TCM     c1 3343   5.073   1.019   2.251
    1TCM    cl1 3344   5.193   1.144   2.212
    1TCM    cl2 3345   5.130   0.861   2.193
    1TCM     h1 3346   5.059   1.015   2.361
    1TCM    cl3 3347   4.918   1.058   2.173
    1TCM     c1 3348   3.974   0.491   4.529
    1TCM    cl1 3349   3.831   0.443   4.624
    1TCM    cl2 3350   4.002   0.665   4.548
    1TCM     h1 3351   4.062   0.435   4.565
    1TCM    cl3 3352   3.946   0.454   4.357
    1TCM     c1 3353   5.109   0.884   5.066
    1TCM    cl1 3354   5.204   0.802   4.940
    1TCM    cl2 3355   5.187   0.861   5.224
    1TCM     h1 3356   5.104   0.993   5.043
    1TCM    cl3 3357   4.945   0.817   5.070
    1TCM     c1 3358   2.910   0.622   1.541
    1TCM    cl1 3359   3.053   0.726   1.523
    1TCM    cl2 3360   2.812   0.679   1.678
    1TCM     h1 3361   2.850   0.626   1.448
    1TCM    cl3 3362   2.962   0.455   1.571
    1TCM     c1 3363   2.123   1.388   3.822
    1TCM    cl1 3364   2.135   1.400   4.000
    1TCM    cl2 3365   2.138   1.217   3.774
    1TCM     h1 3366   2.025   1.427   3.789
    1TCM    cl3 3367   2.254   1.482   3.748
   5.54000   5.54000   5.54000
