;
;   File pop_tetramer_system_bespoke_hmr.top  was generated
;   By user: tlf3 (1000)
;   On host:647TRCJM3 
;   At date:Fri. September  5 22:39:22 2025 
;
;   This is a standalone topology file
;
;   Created by:
;   ParmEd:       hmr_topology, VERSION4.3.0 
;   Executable:   hmr_topology
;   Library dir:  /home/tlf3/miniforge3/envs/terphenyl/share/gromacs/top
;   Command line:
;     hmr_topology -t pop_tetramer_system_bespoke.top -o pop_tetramer_system_bespoke_hmr.top --hmr_ratio 3
;

[ defaults ]
; nbfunc        comb-rule       gen-pairs       fudgeLJ fudgeQQ
1               2               yes             0.5          0.833333    

[ atomtypes ]
; name    at.num    mass    charge ptype  sigma      epsilon
em_pop_tetramer_0        6  12.010780  0.00000000  A     0.34806469     0.36350306
em_pop_tetramer_1        8  15.999430  0.00000000  A     0.30398122     0.87950233
em_pop_tetramer_2        6  12.010780  0.00000000  A     0.34806469     0.36350306
em_pop_tetramer_3        6  12.010780  0.00000000  A     0.34806469     0.36350306
em_pop_tetramer_4        6  12.010780  0.00000000  A     0.34806469     0.36350306
em_pop_tetramer_5        6  12.010780  0.00000000  A     0.34806469     0.36350306
em_pop_tetramer_6        6  12.010780  0.00000000  A     0.34806469     0.36350306
em_pop_tetramer_7        6  12.010780  0.00000000  A     0.34806469     0.36350306
em_pop_tetramer_8        6  12.010780  0.00000000  A     0.34806469     0.36350306
em_pop_tetramer_9        6  12.010780  0.00000000  A     0.34806469     0.36350306
em_pop_tetramer_10        8  15.999430  0.00000000  A     0.30251065     0.70485815
em_pop_tetramer_11        6  12.010780  0.00000000  A     0.33996695      0.4577296
em_pop_tetramer_12        6  12.010780  0.00000000  A     0.34806469     0.36350306
em_pop_tetramer_13        6  12.010780  0.00000000  A     0.34806469     0.36350306
em_pop_tetramer_14        6  12.010780  0.00000000  A     0.34806469     0.36350306
em_pop_tetramer_15        6  12.010780  0.00000000  A     0.34806469     0.36350306
em_pop_tetramer_16        6  12.010780  0.00000000  A     0.34806469     0.36350306
em_pop_tetramer_17        6  12.010780  0.00000000  A     0.34806469     0.36350306
em_pop_tetramer_18        6  12.010780  0.00000000  A     0.34806469     0.36350306
em_pop_tetramer_19        6  12.010780  0.00000000  A     0.34806469     0.36350306
em_pop_tetramer_20        6  12.010780  0.00000000  A     0.33996695      0.4577296
em_pop_tetramer_21        7  14.006720  0.00000000  A      0.3206876      0.7016213
em_pop_tetramer_22        6  12.010780  0.00000000  A     0.33996695      0.4577296
em_pop_tetramer_23        6  12.010780  0.00000000  A     0.34806469     0.36350306
em_pop_tetramer_24        6  12.010780  0.00000000  A     0.34806469     0.36350306
em_pop_tetramer_25        1   1.007947  0.00000000  A     0.25725815     0.06531786
em_pop_tetramer_26        1   1.007947  0.00000000  A     0.25725815     0.06531786
em_pop_tetramer_27        1   1.007947  0.00000000  A     0.25725815     0.06531786
em_pop_tetramer_28        1   1.007947  0.00000000  A     0.25832257    0.068656285
em_pop_tetramer_29        1   1.007947  0.00000000  A     0.25832257    0.068656285
em_pop_tetramer_30        1   1.007947  0.00000000  A     0.25832257    0.068656285
em_pop_tetramer_31        1   1.007947  0.00000000  A     0.25725815     0.06531786
em_pop_tetramer_32        1   1.007947  0.00000000  A     0.25725815     0.06531786
em_pop_tetramer_33        1   1.007947  0.00000000  A     0.25725815     0.06531786
em_pop_tetramer_34        1   1.007947  0.00000000  A     0.25725815     0.06531786
em_pop_tetramer_35        1   1.007947  0.00000000  A     0.25725815     0.06531786
em_pop_tetramer_36        1   1.007947  0.00000000  A     0.25725815     0.06531786
em_pop_tetramer_37        1   1.007947  0.00000000  A     0.25832257    0.068656285
em_pop_tetramer_38        1   1.007947  0.00000000  A     0.11034277    0.058955969
em_pop_tetramer_39        1   1.007947  0.00000000  A     0.26445434    0.066021356
em_pop_tetramer_40        1   1.007947  0.00000000  A     0.26445434    0.066021356
em_pop_tetramer_41        1   1.007947  0.00000000  A     0.26445434    0.066021356
em_pop_tetramer_42        1   1.007947  0.00000000  A     0.25725815     0.06531786
em_pop_tetramer_43        1   1.007947  0.00000000  A     0.25725815     0.06531786
em_pop_tetramer_44        6  12.010780  0.00000000  A     0.34806469     0.36350306
em_pop_tetramer_45        8  15.999430  0.00000000  A     0.30398122     0.87950233
em_pop_tetramer_46        6  12.010780  0.00000000  A     0.34806469     0.36350306
em_pop_tetramer_47        6  12.010780  0.00000000  A     0.34806469     0.36350306
em_pop_tetramer_48        6  12.010780  0.00000000  A     0.34806469     0.36350306
em_pop_tetramer_49        6  12.010780  0.00000000  A     0.34806469     0.36350306
em_pop_tetramer_50        6  12.010780  0.00000000  A     0.34806469     0.36350306
em_pop_tetramer_51        6  12.010780  0.00000000  A     0.34806469     0.36350306
em_pop_tetramer_52        6  12.010780  0.00000000  A     0.34806469     0.36350306
em_pop_tetramer_53        6  12.010780  0.00000000  A     0.34806469     0.36350306
em_pop_tetramer_54        8  15.999430  0.00000000  A     0.30251065     0.70485815
em_pop_tetramer_55        6  12.010780  0.00000000  A     0.33996695      0.4577296
em_pop_tetramer_56        6  12.010780  0.00000000  A     0.34806469     0.36350306
em_pop_tetramer_57        6  12.010780  0.00000000  A     0.34806469     0.36350306
em_pop_tetramer_58        6  12.010780  0.00000000  A     0.34806469     0.36350306
em_pop_tetramer_59        6  12.010780  0.00000000  A     0.34806469     0.36350306
em_pop_tetramer_60        6  12.010780  0.00000000  A     0.34806469     0.36350306
em_pop_tetramer_61        6  12.010780  0.00000000  A     0.34806469     0.36350306
em_pop_tetramer_62        6  12.010780  0.00000000  A     0.34806469     0.36350306
em_pop_tetramer_63        6  12.010780  0.00000000  A     0.34806469     0.36350306
em_pop_tetramer_64        6  12.010780  0.00000000  A     0.33996695      0.4577296
em_pop_tetramer_65        7  14.006720  0.00000000  A      0.3206876      0.7016213
em_pop_tetramer_66        6  12.010780  0.00000000  A     0.33996695      0.4577296
em_pop_tetramer_67        6  12.010780  0.00000000  A     0.34806469     0.36350306
em_pop_tetramer_68        6  12.010780  0.00000000  A     0.34806469     0.36350306
em_pop_tetramer_69        1   1.007947  0.00000000  A     0.25725815     0.06531786
em_pop_tetramer_70        1   1.007947  0.00000000  A     0.25725815     0.06531786
em_pop_tetramer_71        1   1.007947  0.00000000  A     0.25725815     0.06531786
em_pop_tetramer_72        1   1.007947  0.00000000  A     0.25832257    0.068656285
em_pop_tetramer_73        1   1.007947  0.00000000  A     0.25832257    0.068656285
em_pop_tetramer_74        1   1.007947  0.00000000  A     0.25832257    0.068656285
em_pop_tetramer_75        1   1.007947  0.00000000  A     0.25725815     0.06531786
em_pop_tetramer_76        1   1.007947  0.00000000  A     0.25725815     0.06531786
em_pop_tetramer_77        1   1.007947  0.00000000  A     0.25725815     0.06531786
em_pop_tetramer_78        1   1.007947  0.00000000  A     0.25725815     0.06531786
em_pop_tetramer_79        1   1.007947  0.00000000  A     0.25725815     0.06531786
em_pop_tetramer_80        1   1.007947  0.00000000  A     0.25725815     0.06531786
em_pop_tetramer_81        1   1.007947  0.00000000  A     0.25832257    0.068656285
em_pop_tetramer_82        1   1.007947  0.00000000  A     0.11034277    0.058955969
em_pop_tetramer_83        1   1.007947  0.00000000  A     0.26445434    0.066021356
em_pop_tetramer_84        1   1.007947  0.00000000  A     0.26445434    0.066021356
em_pop_tetramer_85        1   1.007947  0.00000000  A     0.26445434    0.066021356
em_pop_tetramer_86        1   1.007947  0.00000000  A     0.25725815     0.06531786
em_pop_tetramer_87        1   1.007947  0.00000000  A     0.25725815     0.06531786
em_pop_tetramer_88        6  12.010780  0.00000000  A     0.34806469     0.36350306
em_pop_tetramer_89        8  15.999430  0.00000000  A     0.30398122     0.87950233
em_pop_tetramer_90        6  12.010780  0.00000000  A     0.34806469     0.36350306
em_pop_tetramer_91        6  12.010780  0.00000000  A     0.34806469     0.36350306
em_pop_tetramer_92        6  12.010780  0.00000000  A     0.34806469     0.36350306
em_pop_tetramer_93        6  12.010780  0.00000000  A     0.34806469     0.36350306
em_pop_tetramer_94        6  12.010780  0.00000000  A     0.34806469     0.36350306
em_pop_tetramer_95        6  12.010780  0.00000000  A     0.34806469     0.36350306
em_pop_tetramer_96        6  12.010780  0.00000000  A     0.34806469     0.36350306
em_pop_tetramer_97        6  12.010780  0.00000000  A     0.34806469     0.36350306
em_pop_tetramer_98        8  15.999430  0.00000000  A     0.30251065     0.70485815
em_pop_tetramer_99        6  12.010780  0.00000000  A     0.33996695      0.4577296
em_pop_tetramer_100        6  12.010780  0.00000000  A     0.34806469     0.36350306
em_pop_tetramer_101        6  12.010780  0.00000000  A     0.34806469     0.36350306
em_pop_tetramer_102        6  12.010780  0.00000000  A     0.34806469     0.36350306
em_pop_tetramer_103        6  12.010780  0.00000000  A     0.34806469     0.36350306
em_pop_tetramer_104        6  12.010780  0.00000000  A     0.34806469     0.36350306
em_pop_tetramer_105        6  12.010780  0.00000000  A     0.34806469     0.36350306
em_pop_tetramer_106        6  12.010780  0.00000000  A     0.34806469     0.36350306
em_pop_tetramer_107        6  12.010780  0.00000000  A     0.34806469     0.36350306
em_pop_tetramer_108        6  12.010780  0.00000000  A     0.33996695      0.4577296
em_pop_tetramer_109        7  14.006720  0.00000000  A      0.3206876      0.7016213
em_pop_tetramer_110        6  12.010780  0.00000000  A     0.33996695      0.4577296
em_pop_tetramer_111        6  12.010780  0.00000000  A     0.34806469     0.36350306
em_pop_tetramer_112        6  12.010780  0.00000000  A     0.34806469     0.36350306
em_pop_tetramer_113        1   1.007947  0.00000000  A     0.25725815     0.06531786
em_pop_tetramer_114        1   1.007947  0.00000000  A     0.25725815     0.06531786
em_pop_tetramer_115        1   1.007947  0.00000000  A     0.25725815     0.06531786
em_pop_tetramer_116        1   1.007947  0.00000000  A     0.25832257    0.068656285
em_pop_tetramer_117        1   1.007947  0.00000000  A     0.25832257    0.068656285
em_pop_tetramer_118        1   1.007947  0.00000000  A     0.25832257    0.068656285
em_pop_tetramer_119        1   1.007947  0.00000000  A     0.25725815     0.06531786
em_pop_tetramer_120        1   1.007947  0.00000000  A     0.25725815     0.06531786
em_pop_tetramer_121        1   1.007947  0.00000000  A     0.25725815     0.06531786
em_pop_tetramer_122        1   1.007947  0.00000000  A     0.25725815     0.06531786
em_pop_tetramer_123        1   1.007947  0.00000000  A     0.25725815     0.06531786
em_pop_tetramer_124        1   1.007947  0.00000000  A     0.25725815     0.06531786
em_pop_tetramer_125        1   1.007947  0.00000000  A     0.25832257    0.068656285
em_pop_tetramer_126        1   1.007947  0.00000000  A     0.11034277    0.058955969
em_pop_tetramer_127        1   1.007947  0.00000000  A     0.26445434    0.066021356
em_pop_tetramer_128        1   1.007947  0.00000000  A     0.26445434    0.066021356
em_pop_tetramer_129        1   1.007947  0.00000000  A     0.26445434    0.066021356
em_pop_tetramer_130        1   1.007947  0.00000000  A     0.25725815     0.06531786
em_pop_tetramer_131        1   1.007947  0.00000000  A     0.25725815     0.06531786
em_pop_tetramer_132        6  12.010780  0.00000000  A     0.34806469     0.36350306
em_pop_tetramer_133        8  15.999430  0.00000000  A     0.30398122     0.87950233
em_pop_tetramer_134        6  12.010780  0.00000000  A     0.34806469     0.36350306
em_pop_tetramer_135        6  12.010780  0.00000000  A     0.34806469     0.36350306
em_pop_tetramer_136        6  12.010780  0.00000000  A     0.34806469     0.36350306
em_pop_tetramer_137        6  12.010780  0.00000000  A     0.34806469     0.36350306
em_pop_tetramer_138        6  12.010780  0.00000000  A     0.34806469     0.36350306
em_pop_tetramer_139        6  12.010780  0.00000000  A     0.34806469     0.36350306
em_pop_tetramer_140        6  12.010780  0.00000000  A     0.34806469     0.36350306
em_pop_tetramer_141        6  12.010780  0.00000000  A     0.34806469     0.36350306
em_pop_tetramer_142        8  15.999430  0.00000000  A     0.30251065     0.70485815
em_pop_tetramer_143        6  12.010780  0.00000000  A     0.33996695      0.4577296
em_pop_tetramer_144        6  12.010780  0.00000000  A     0.34806469     0.36350306
em_pop_tetramer_145        6  12.010780  0.00000000  A     0.34806469     0.36350306
em_pop_tetramer_146        6  12.010780  0.00000000  A     0.34806469     0.36350306
em_pop_tetramer_147        6  12.010780  0.00000000  A     0.34806469     0.36350306
em_pop_tetramer_148        6  12.010780  0.00000000  A     0.34806469     0.36350306
em_pop_tetramer_149        6  12.010780  0.00000000  A     0.34806469     0.36350306
em_pop_tetramer_150        6  12.010780  0.00000000  A     0.34806469     0.36350306
em_pop_tetramer_151        6  12.010780  0.00000000  A     0.34806469     0.36350306
em_pop_tetramer_152        6  12.010780  0.00000000  A     0.33996695      0.4577296
em_pop_tetramer_153        7  14.006720  0.00000000  A      0.3206876      0.7016213
em_pop_tetramer_154        6  12.010780  0.00000000  A     0.33996695      0.4577296
em_pop_tetramer_155        6  12.010780  0.00000000  A     0.34806469     0.36350306
em_pop_tetramer_156        6  12.010780  0.00000000  A     0.34806469     0.36350306
em_pop_tetramer_157        1   1.007947  0.00000000  A     0.25725815     0.06531786
em_pop_tetramer_158        1   1.007947  0.00000000  A     0.25725815     0.06531786
em_pop_tetramer_159        1   1.007947  0.00000000  A     0.25725815     0.06531786
em_pop_tetramer_160        1   1.007947  0.00000000  A     0.25832257    0.068656285
em_pop_tetramer_161        1   1.007947  0.00000000  A     0.25832257    0.068656285
em_pop_tetramer_162        1   1.007947  0.00000000  A     0.25832257    0.068656285
em_pop_tetramer_163        1   1.007947  0.00000000  A     0.25725815     0.06531786
em_pop_tetramer_164        1   1.007947  0.00000000  A     0.25725815     0.06531786
em_pop_tetramer_165        1   1.007947  0.00000000  A     0.25725815     0.06531786
em_pop_tetramer_166        1   1.007947  0.00000000  A     0.25725815     0.06531786
em_pop_tetramer_167        1   1.007947  0.00000000  A     0.25725815     0.06531786
em_pop_tetramer_168        1   1.007947  0.00000000  A     0.25725815     0.06531786
em_pop_tetramer_169        1   1.007947  0.00000000  A     0.25832257    0.068656285
em_pop_tetramer_170        1   1.007947  0.00000000  A     0.11034277    0.058955969
em_pop_tetramer_171        1   1.007947  0.00000000  A     0.26445434    0.066021356
em_pop_tetramer_172        1   1.007947  0.00000000  A     0.26445434    0.066021356
em_pop_tetramer_173        1   1.007947  0.00000000  A     0.26445434    0.066021356
em_pop_tetramer_174        1   1.007947  0.00000000  A     0.25725815     0.06531786
em_pop_tetramer_175        1   1.007947  0.00000000  A     0.25725815     0.06531786
em_pop_tetramer_176        6  12.010780  0.00000000  A     0.33996695      0.4577296
em_pop_tetramer_177        8  15.999430  0.00000000  A     0.30251065     0.70485815
em_pop_tetramer_178        1   1.007947  0.00000000  A     0.25832257    0.068656285
em_pop_tetramer_179        1   1.007947  0.00000000  A     0.25832257    0.068656285
em_pop_tetramer_180        1   1.007947  0.00000000  A     0.25832257    0.068656285
em_pop_tetramer_181        6  12.010780  0.00000000  A     0.33996695      0.4577296
em_pop_tetramer_182        6  12.010780  0.00000000  A     0.33996695      0.4577296
em_pop_tetramer_183        6  12.010780  0.00000000  A     0.33996695      0.4577296
em_pop_tetramer_184        6  12.010780  0.00000000  A     0.33996695      0.4577296
em_pop_tetramer_185        8  15.999430  0.00000000  A     0.30251065     0.70485815
em_pop_tetramer_186        6  12.010780  0.00000000  A     0.34806469     0.36350306
em_pop_tetramer_187        8  15.999430  0.00000000  A     0.30398122     0.87950233
em_pop_tetramer_188        1   1.007947  0.00000000  A     0.26445434    0.066021356
em_pop_tetramer_189        1   1.007947  0.00000000  A     0.26445434    0.066021356
em_pop_tetramer_190        1   1.007947  0.00000000  A     0.26445434    0.066021356
em_pop_tetramer_191        1   1.007947  0.00000000  A     0.26445434    0.066021356
em_pop_tetramer_192        1   1.007947  0.00000000  A     0.26445434    0.066021356
em_pop_tetramer_193        1   1.007947  0.00000000  A     0.26445434    0.066021356
em_pop_tetramer_194        1   1.007947  0.00000000  A     0.26445434    0.066021356
em_pop_tetramer_195        1   1.007947  0.00000000  A     0.26445434    0.066021356
em_pop_tetramer_196        1   1.007947  0.00000000  A     0.26445434    0.066021356
TCM_0          6  12.010780  0.00000000  A     0.33996695      0.4577296
TCM_1         17  35.453200  0.00000000  A     0.34709414        1.10876
TCM_2         17  35.453200  0.00000000  A     0.34709414        1.10876
TCM_3          1   1.007947  0.00000000  A     0.21149936      0.0656888
TCM_4         17  35.453200  0.00000000  A     0.34709414        1.10876


[ moleculetype ]
; Name            nrexcl
system1          3

[ atoms ]
;   nr       type  resnr residue  atom   cgnr    charge       mass  typeB    chargeB      massB
; residue    1 POP rtp POP q 0.1
    1 em_pop_tetramer_0      1    POP     C1      1 0.64674002  12.010780   ; qtot 0.646740
    2 em_pop_tetramer_1      1    POP     O2      2 -0.53737003  15.999430   ; qtot 0.109370
    3 em_pop_tetramer_2      1    POP     C3      3 -0.13742000  12.010780   ; qtot -0.028050
    4 em_pop_tetramer_3      1    POP     C4      4 -0.07713000   9.994886   ; qtot -0.105180
    5 em_pop_tetramer_4      1    POP     C5      5 -0.13028000   9.994886   ; qtot -0.235460
    6 em_pop_tetramer_5      1    POP     C6      6 -0.00050000  12.010780   ; qtot -0.235960
    7 em_pop_tetramer_6      1    POP     C7      7 -0.07994000  12.010780   ; qtot -0.315900
    8 em_pop_tetramer_7      1    POP     C8      8 0.00764000  12.010780   ; qtot -0.308260
    9 em_pop_tetramer_8      1    POP     C9      9 -0.14429000   9.994886   ; qtot -0.452550
   10 em_pop_tetramer_9      1    POP    C10     10 0.12933999  12.010780   ; qtot -0.323210
   11 em_pop_tetramer_10      1    POP    O11     11 -0.32339001  15.999430   ; qtot -0.646600
   12 em_pop_tetramer_11      1    POP    C12     12 0.11186000   5.963098   ; qtot -0.534740
   13 em_pop_tetramer_12      1    POP    C13     13 -0.20465000   9.994886   ; qtot -0.739390
   14 em_pop_tetramer_13      1    POP    C14     14 -0.08169000   9.994886   ; qtot -0.821080
   15 em_pop_tetramer_14      1    POP    C15     15 -0.03978000  12.010780   ; qtot -0.860860
   16 em_pop_tetramer_15      1    POP    C16     16 -0.11024000   9.994886   ; qtot -0.971100
   17 em_pop_tetramer_16      1    POP    C17     17 -0.12192000   9.994886   ; qtot -1.093020
   18 em_pop_tetramer_17      1    POP    C18     18 -0.09503000  12.010780   ; qtot -1.188050
   19 em_pop_tetramer_18      1    POP    C19     19 -0.12192000   9.994886   ; qtot -1.309970
   20 em_pop_tetramer_19      1    POP    C20     20 -0.11024000   9.994886   ; qtot -1.420210
   21 em_pop_tetramer_20      1    POP    C21     21 0.15181001   9.994886   ; qtot -1.268400
   22 em_pop_tetramer_21      1    POP    N22     22 -0.57160997  11.990826   ; qtot -1.840010
   23 em_pop_tetramer_22      1    POP    C23     23 -0.11022000   5.963098   ; qtot -1.950230
   24 em_pop_tetramer_23      1    POP    C24     24 -0.13028000   9.994886   ; qtot -2.080510
   25 em_pop_tetramer_24      1    POP    C25     25 -0.07713000   9.994886   ; qtot -2.157640
   26 em_pop_tetramer_25      1    POP    H26     26 0.15246999   3.023841   ; qtot -2.005170
   27 em_pop_tetramer_26      1    POP    H27     27 0.14350000   3.023841   ; qtot -1.861670
   28 em_pop_tetramer_27      1    POP    H28     28 0.15870000   3.023841   ; qtot -1.702970
   29 em_pop_tetramer_28      1    POP    H29     29 0.04632000   3.023841   ; qtot -1.656650
   30 em_pop_tetramer_29      1    POP    H30     30 0.04632000   3.023841   ; qtot -1.610330
   31 em_pop_tetramer_30      1    POP    H31     31 0.04632000   3.023841   ; qtot -1.564010
   32 em_pop_tetramer_31      1    POP    H32     32 0.14196000   3.023841   ; qtot -1.422050
   33 em_pop_tetramer_32      1    POP    H33     33 0.14052001   3.023841   ; qtot -1.281530
   34 em_pop_tetramer_33      1    POP    H34     34 0.13944000   3.023841   ; qtot -1.142090
   35 em_pop_tetramer_34      1    POP    H35     35 0.13555001   3.023841   ; qtot -1.006540
   36 em_pop_tetramer_35      1    POP    H36     36 0.13555001   3.023841   ; qtot -0.870990
   37 em_pop_tetramer_36      1    POP    H37     37 0.13944000   3.023841   ; qtot -0.731550
   38 em_pop_tetramer_37      1    POP    H38     38 0.08244000   3.023841   ; qtot -0.649110
   39 em_pop_tetramer_38      1    POP    H39     39 0.31253001   3.023841   ; qtot -0.336580
   40 em_pop_tetramer_39      1    POP    H40     40 0.04608000   3.023841   ; qtot -0.290500
   41 em_pop_tetramer_40      1    POP    H41     41 0.04608000   3.023841   ; qtot -0.244420
   42 em_pop_tetramer_41      1    POP    H42     42 0.04608000   3.023841   ; qtot -0.198340
   43 em_pop_tetramer_42      1    POP    H43     43 0.14350000   3.023841   ; qtot -0.054840
   44 em_pop_tetramer_43      1    POP    H44     44 0.15246999   3.023841   ; qtot 0.097630
; residue    2 POP rtp POP q -0.0
   45 em_pop_tetramer_44      2    POP    C45     45 0.67613000  12.010780   ; qtot 0.773760
   46 em_pop_tetramer_45      2    POP    O46     46 -0.61407000  15.999430   ; qtot 0.159690
   47 em_pop_tetramer_46      2    POP    C47     47 -0.14354999  12.010780   ; qtot 0.016140
   48 em_pop_tetramer_47      2    POP    C48     48 -0.09353000   9.994886   ; qtot -0.077390
   49 em_pop_tetramer_48      2    POP    C49     49 -0.12520000   9.994886   ; qtot -0.202590
   50 em_pop_tetramer_49      2    POP    C50     50 -0.00819000  12.010780   ; qtot -0.210780
   51 em_pop_tetramer_50      2    POP    C51     51 -0.07609000  12.010780   ; qtot -0.286870
   52 em_pop_tetramer_51      2    POP    C52     52 0.00795000  12.010780   ; qtot -0.278920
   53 em_pop_tetramer_52      2    POP    C53     53 -0.14532000   9.994886   ; qtot -0.424240
   54 em_pop_tetramer_53      2    POP    C54     54 0.12895000  12.010780   ; qtot -0.295290
   55 em_pop_tetramer_54      2    POP    O55     55 -0.32479000  15.999430   ; qtot -0.620080
   56 em_pop_tetramer_55      2    POP    C56     56 0.11298000   5.963098   ; qtot -0.507100
   57 em_pop_tetramer_56      2    POP    C57     57 -0.20176999   9.994886   ; qtot -0.708870
   58 em_pop_tetramer_57      2    POP    C58     58 -0.08345000   9.994886   ; qtot -0.792320
   59 em_pop_tetramer_58      2    POP    C59     59 -0.03844000  12.010780   ; qtot -0.830760
   60 em_pop_tetramer_59      2    POP    C60     60 -0.10963000   9.994886   ; qtot -0.940390
   61 em_pop_tetramer_60      2    POP    C61     61 -0.12237000   9.994886   ; qtot -1.062760
   62 em_pop_tetramer_61      2    POP    C62     62 -0.09467000  12.010780   ; qtot -1.157430
   63 em_pop_tetramer_62      2    POP    C63     63 -0.12237000   9.994886   ; qtot -1.279800
   64 em_pop_tetramer_63      2    POP    C64     64 -0.10963000   9.994886   ; qtot -1.389430
   65 em_pop_tetramer_64      2    POP    C65     65 0.15256999   9.994886   ; qtot -1.236860
   66 em_pop_tetramer_65      2    POP    N66     66 -0.57330000  11.990826   ; qtot -1.810160
   67 em_pop_tetramer_66      2    POP    C67     67 -0.10861000   5.963098   ; qtot -1.918770
   68 em_pop_tetramer_67      2    POP    C68     68 -0.12520000   9.994886   ; qtot -2.043970
   69 em_pop_tetramer_68      2    POP    C69     69 -0.09353000   9.994886   ; qtot -2.137500
   70 em_pop_tetramer_69      2    POP    H70     70 0.14751001   3.023841   ; qtot -1.989990
   71 em_pop_tetramer_70      2    POP    H71     71 0.14241999   3.023841   ; qtot -1.847570
   72 em_pop_tetramer_71      2    POP    H72     72 0.15764000   3.023841   ; qtot -1.689930
   73 em_pop_tetramer_72      2    POP    H73     73 0.04578000   3.023841   ; qtot -1.644150
   74 em_pop_tetramer_73      2    POP    H74     74 0.04578000   3.023841   ; qtot -1.598370
   75 em_pop_tetramer_74      2    POP    H75     75 0.04578000   3.023841   ; qtot -1.552590
   76 em_pop_tetramer_75      2    POP    H76     76 0.14149000   3.023841   ; qtot -1.411100
   77 em_pop_tetramer_76      2    POP    H77     77 0.13829000   3.023841   ; qtot -1.272810
   78 em_pop_tetramer_77      2    POP    H78     78 0.13959999   3.023841   ; qtot -1.133210
   79 em_pop_tetramer_78      2    POP    H79     79 0.13349999   3.023841   ; qtot -0.999710
   80 em_pop_tetramer_79      2    POP    H80     80 0.13349999   3.023841   ; qtot -0.866210
   81 em_pop_tetramer_80      2    POP    H81     81 0.13959999   3.023841   ; qtot -0.726610
   82 em_pop_tetramer_81      2    POP    H82     82 0.08503000   3.023841   ; qtot -0.641580
   83 em_pop_tetramer_82      2    POP    H83     83 0.31033000   3.023841   ; qtot -0.331250
   84 em_pop_tetramer_83      2    POP    H84     84 0.04452000   3.023841   ; qtot -0.286730
   85 em_pop_tetramer_84      2    POP    H85     85 0.04452000   3.023841   ; qtot -0.242210
   86 em_pop_tetramer_85      2    POP    H86     86 0.04452000   3.023841   ; qtot -0.197690
   87 em_pop_tetramer_86      2    POP    H87     87 0.14241999   3.023841   ; qtot -0.055270
   88 em_pop_tetramer_87      2    POP    H88     88 0.14751001   3.023841   ; qtot 0.092240
; residue    3 POP rtp POP q 0.0
   89 em_pop_tetramer_88      3    POP    C89     89 0.67561001  12.010780   ; qtot 0.767850
   90 em_pop_tetramer_89      3    POP    O90     90 -0.60821998  15.999430   ; qtot 0.159630
   91 em_pop_tetramer_90      3    POP    C91     91 -0.14271000  12.010780   ; qtot 0.016920
   92 em_pop_tetramer_91      3    POP    C92     92 -0.09207000   9.994886   ; qtot -0.075150
   93 em_pop_tetramer_92      3    POP    C93     93 -0.12377000   9.994886   ; qtot -0.198920
   94 em_pop_tetramer_93      3    POP    C94     94 -0.01030000  12.010780   ; qtot -0.209220
   95 em_pop_tetramer_94      3    POP    C95     95 -0.07539000  12.010780   ; qtot -0.284610
   96 em_pop_tetramer_95      3    POP    C96     96 0.01124000  12.010780   ; qtot -0.273370
   97 em_pop_tetramer_96      3    POP    C97     97 -0.14542000   9.994886   ; qtot -0.418790
   98 em_pop_tetramer_97      3    POP    C98     98 0.12597001  12.010780   ; qtot -0.292820
   99 em_pop_tetramer_98      3    POP    O99     99 -0.32477000  15.999430   ; qtot -0.617590
  100 em_pop_tetramer_99      3    POP   C100    100 0.11252000   5.963098   ; qtot -0.505070
  101 em_pop_tetramer_100      3    POP   C101    101 -0.20656000   9.994886   ; qtot -0.711630
  102 em_pop_tetramer_101      3    POP   C102    102 -0.08495000   9.994886   ; qtot -0.796580
  103 em_pop_tetramer_102      3    POP   C103    103 -0.04467000  12.010780   ; qtot -0.841250
  104 em_pop_tetramer_103      3    POP   C104    104 -0.11155000   9.994886   ; qtot -0.952800
  105 em_pop_tetramer_104      3    POP   C105    105 -0.11933000   9.994886   ; qtot -1.072130
  106 em_pop_tetramer_105      3    POP   C106    106 -0.08957000  12.010780   ; qtot -1.161700
  107 em_pop_tetramer_106      3    POP   C107    107 -0.11933000   9.994886   ; qtot -1.281030
  108 em_pop_tetramer_107      3    POP   C108    108 -0.11155000   9.994886   ; qtot -1.392580
  109 em_pop_tetramer_108      3    POP   C109    109 0.15084000   9.994886   ; qtot -1.241740
  110 em_pop_tetramer_109      3    POP   N110    110 -0.57050002  11.990826   ; qtot -1.812240
  111 em_pop_tetramer_110      3    POP   C111    111 -0.11197000   5.963098   ; qtot -1.924210
  112 em_pop_tetramer_111      3    POP   C112    112 -0.12377000   9.994886   ; qtot -2.047980
  113 em_pop_tetramer_112      3    POP   C113    113 -0.09207000   9.994886   ; qtot -2.140050
  114 em_pop_tetramer_113      3    POP   H114    114 0.14715999   3.023841   ; qtot -1.992890
  115 em_pop_tetramer_114      3    POP   H115    115 0.14196999   3.023841   ; qtot -1.850920
  116 em_pop_tetramer_115      3    POP   H116    116 0.15791000   3.023841   ; qtot -1.693010
  117 em_pop_tetramer_116      3    POP   H117    117 0.04528000   3.023841   ; qtot -1.647730
  118 em_pop_tetramer_117      3    POP   H118    118 0.04528000   3.023841   ; qtot -1.602450
  119 em_pop_tetramer_118      3    POP   H119    119 0.04528000   3.023841   ; qtot -1.557170
  120 em_pop_tetramer_119      3    POP   H120    120 0.13978000   3.023841   ; qtot -1.417390
  121 em_pop_tetramer_120      3    POP   H121    121 0.13853000   3.023841   ; qtot -1.278860
  122 em_pop_tetramer_121      3    POP   H122    122 0.13429999   3.023841   ; qtot -1.144560
  123 em_pop_tetramer_122      3    POP   H123    123 0.13891999   3.023841   ; qtot -1.005640
  124 em_pop_tetramer_123      3    POP   H124    124 0.13891999   3.023841   ; qtot -0.866720
  125 em_pop_tetramer_124      3    POP   H125    125 0.13429999   3.023841   ; qtot -0.732420
  126 em_pop_tetramer_125      3    POP   H126    126 0.08703000   3.023841   ; qtot -0.645390
  127 em_pop_tetramer_126      3    POP   H127    127 0.31490999   3.023841   ; qtot -0.330480
  128 em_pop_tetramer_127      3    POP   H128    128 0.04454000   3.023841   ; qtot -0.285940
  129 em_pop_tetramer_128      3    POP   H129    129 0.04454000   3.023841   ; qtot -0.241400
  130 em_pop_tetramer_129      3    POP   H130    130 0.04454000   3.023841   ; qtot -0.196860
  131 em_pop_tetramer_130      3    POP   H131    131 0.14196999   3.023841   ; qtot -0.054890
  132 em_pop_tetramer_131      3    POP   H132    132 0.14715999   3.023841   ; qtot 0.092270
; residue    4 POP rtp POP q 0.0
  133 em_pop_tetramer_132      4    POP   C133    133 0.67690998  12.010780   ; qtot 0.769180
  134 em_pop_tetramer_133      4    POP   O134    134 -0.60966998  15.999430   ; qtot 0.159510
  135 em_pop_tetramer_134      4    POP   C135    135 -0.13886000  12.010780   ; qtot 0.020650
  136 em_pop_tetramer_135      4    POP   C136    136 -0.08697000   9.994886   ; qtot -0.066320
  137 em_pop_tetramer_136      4    POP   C137    137 -0.12444000   9.994886   ; qtot -0.190760
  138 em_pop_tetramer_137      4    POP   C138    138 -0.01599000  12.010780   ; qtot -0.206750
  139 em_pop_tetramer_138      4    POP   C139    139 -0.06834000  12.010780   ; qtot -0.275090
  140 em_pop_tetramer_139      4    POP   C140    140 0.00929000  12.010780   ; qtot -0.265800
  141 em_pop_tetramer_140      4    POP   C141    141 -0.14786001   9.994886   ; qtot -0.413660
  142 em_pop_tetramer_141      4    POP   C142    142 0.12269000  12.010780   ; qtot -0.290970
  143 em_pop_tetramer_142      4    POP   O143    143 -0.32719001  15.999430   ; qtot -0.618160
  144 em_pop_tetramer_143      4    POP   C144    144 0.11373000   5.963098   ; qtot -0.504430
  145 em_pop_tetramer_144      4    POP   C145    145 -0.20559999   9.994886   ; qtot -0.710030
  146 em_pop_tetramer_145      4    POP   C146    146 -0.08479000   9.994886   ; qtot -0.794820
  147 em_pop_tetramer_146      4    POP   C147    147 -0.04375000  12.010780   ; qtot -0.838570
  148 em_pop_tetramer_147      4    POP   C148    148 -0.10913000   9.994886   ; qtot -0.947700
  149 em_pop_tetramer_148      4    POP   C149    149 -0.11953000   9.994886   ; qtot -1.067230
  150 em_pop_tetramer_149      4    POP   C150    150 -0.10123000  12.010780   ; qtot -1.168460
  151 em_pop_tetramer_150      4    POP   C151    151 -0.11953000   9.994886   ; qtot -1.287990
  152 em_pop_tetramer_151      4    POP   C152    152 -0.10913000   9.994886   ; qtot -1.397120
  153 em_pop_tetramer_152      4    POP   C153    153 0.14816999   9.994886   ; qtot -1.248950
  154 em_pop_tetramer_153      4    POP   N154    154 -0.53952003  11.990826   ; qtot -1.788470
  155 em_pop_tetramer_154      4    POP   C155    155 -0.09782000   5.963098   ; qtot -1.886290
  156 em_pop_tetramer_155      4    POP   C156    156 -0.12444000   9.994886   ; qtot -2.010730
  157 em_pop_tetramer_156      4    POP   C157    157 -0.08697000   9.994886   ; qtot -2.097700
  158 em_pop_tetramer_157      4    POP   H158    158 0.14929000   3.023841   ; qtot -1.948410
  159 em_pop_tetramer_158      4    POP   H159    159 0.13955000   3.023841   ; qtot -1.808860
  160 em_pop_tetramer_159      4    POP   H160    160 0.15581000   3.023841   ; qtot -1.653050
  161 em_pop_tetramer_160      4    POP   H161    161 0.04423000   3.023841   ; qtot -1.608820
  162 em_pop_tetramer_161      4    POP   H162    162 0.04423000   3.023841   ; qtot -1.564590
  163 em_pop_tetramer_162      4    POP   H163    163 0.04423000   3.023841   ; qtot -1.520360
  164 em_pop_tetramer_163      4    POP   H164    164 0.13795000   3.023841   ; qtot -1.382410
  165 em_pop_tetramer_164      4    POP   H165    165 0.14113000   3.023841   ; qtot -1.241280
  166 em_pop_tetramer_165      4    POP   H166    166 0.13370000   3.023841   ; qtot -1.107580
  167 em_pop_tetramer_166      4    POP   H167    167 0.13477001   3.023841   ; qtot -0.972810
  168 em_pop_tetramer_167      4    POP   H168    168 0.13477001   3.023841   ; qtot -0.838040
  169 em_pop_tetramer_168      4    POP   H169    169 0.13370000   3.023841   ; qtot -0.704340
  170 em_pop_tetramer_169      4    POP   H170    170 0.09138000   3.023841   ; qtot -0.612960
  171 em_pop_tetramer_170      4    POP   H171    171 0.31917000   3.023841   ; qtot -0.293790
  172 em_pop_tetramer_171      4    POP   H172    172 0.04489000   3.023841   ; qtot -0.248900
  173 em_pop_tetramer_172      4    POP   H173    173 0.04489000   3.023841   ; qtot -0.204010
  174 em_pop_tetramer_173      4    POP   H174    174 0.04489000   3.023841   ; qtot -0.159120
  175 em_pop_tetramer_174      4    POP   H175    175 0.13955000   3.023841   ; qtot -0.019570
  176 em_pop_tetramer_175      4    POP   H176    176 0.14929000   3.023841   ; qtot 0.129720
; residue    5 CAP rtp CAP q -0.2
  177 em_pop_tetramer_176      5    CAP   C177    177 0.12508000   5.963098   ; qtot 0.254800
  178 em_pop_tetramer_177      5    CAP   O178    178 -0.43046001  15.999430   ; qtot -0.175660
  179 em_pop_tetramer_178      5    CAP   H179    179 0.05068000   3.023841   ; qtot -0.124980
  180 em_pop_tetramer_179      5    CAP   H180    180 0.05068000   3.023841   ; qtot -0.074300
  181 em_pop_tetramer_180      5    CAP   H181    181 0.05068000   3.023841   ; qtot -0.023620
; residue    6 CAP rtp CAP q 0.0
  182 em_pop_tetramer_181      6    CAP   C182    182 -0.11586000   5.963098   ; qtot -0.139480
  183 em_pop_tetramer_182      6    CAP   C183    183 0.18923999  12.010780   ; qtot 0.049760
  184 em_pop_tetramer_183      6    CAP   C184    184 -0.11586000   5.963098   ; qtot -0.066100
  185 em_pop_tetramer_184      6    CAP   C185    185 -0.11586000   5.963098   ; qtot -0.181960
  186 em_pop_tetramer_185      6    CAP   O186    186 -0.44620001  15.999430   ; qtot -0.628160
  187 em_pop_tetramer_186      6    CAP   C187    187 0.74826998  12.010780   ; qtot 0.120110
  188 em_pop_tetramer_187      6    CAP   O188    188 -0.58657998  15.999430   ; qtot -0.466470
  189 em_pop_tetramer_188      6    CAP   H189    189 0.05183000   3.023841   ; qtot -0.414640
  190 em_pop_tetramer_189      6    CAP   H190    190 0.05183000   3.023841   ; qtot -0.362810
  191 em_pop_tetramer_190      6    CAP   H191    191 0.05183000   3.023841   ; qtot -0.310980
  192 em_pop_tetramer_191      6    CAP   H192    192 0.05183000   3.023841   ; qtot -0.259150
  193 em_pop_tetramer_192      6    CAP   H193    193 0.05183000   3.023841   ; qtot -0.207320
  194 em_pop_tetramer_193      6    CAP   H194    194 0.05183000   3.023841   ; qtot -0.155490
  195 em_pop_tetramer_194      6    CAP   H195    195 0.05183000   3.023841   ; qtot -0.103660
  196 em_pop_tetramer_195      6    CAP   H196    196 0.05183000   3.023841   ; qtot -0.051830
  197 em_pop_tetramer_196      6    CAP   H197    197 0.05183000   3.023841   ; qtot -0.000000

[ bonds ]
;    ai     aj funct         c0         c1         c2         c3
      1      2     1   0.12250 637673.816836
      1      3     1   0.14679 223784.907186
      1    178     1   0.13561 243795.038367
      3      4     1   0.14007 315369.603109
      3     25     1   0.14007 315369.603109
      4      5     1   0.14007 315369.603109
      4     26     1   0.10860 323372.939139
      5      6     1   0.14007 315369.603109
      5     27     1   0.10860 323372.939139
      6      7     1   0.14679 223784.907186
      6     24     1   0.14007 315369.603109
      7      8     1   0.14007 315369.603109
      7     14     1   0.14007 315369.603109
      8      9     1   0.14007 315369.603109
      8     15     1   0.14679 223784.907186
      9     10     1   0.14007 315369.603109
      9     28     1   0.10860 323372.939139
     10     11     1   0.13720 266731.066407
     10     13     1   0.14007 315369.603109
     11     12     1   0.14363 189984.684332
     12     29     1   0.10929 317186.185379
     12     30     1   0.10929 317186.185379
     12     31     1   0.10929 317186.185379
     13     14     1   0.14007 315369.603109
     13     32     1   0.10860 323372.939139
     14     33     1   0.10860 323372.939139
     15     16     1   0.14007 315369.603109
     15     20     1   0.14007 315369.603109
     16     17     1   0.14007 315369.603109
     16     34     1   0.10860 323372.939139
     17     18     1   0.14007 315369.603109
     17     35     1   0.10860 323372.939139
     18     19     1   0.14007 315369.603109
     18     21     1   0.15096 200304.454301
     19     20     1   0.14007 315369.603109
     19     36     1   0.10860 323372.939139
     20     37     1   0.10860 323372.939139
     21     22     1   0.14621 202028.005745
     21     23     1   0.15336 180164.203624
     21     38     1   0.10929 317186.185379
     22     39     1   0.10186 402492.840308
     22     45     1   0.13838 273614.770188
     23     40     1   0.10929 317186.185379
     23     41     1   0.10929 317186.185379
     23     42     1   0.10929 317186.185379
     24     25     1   0.14007 315369.603109
     24     43     1   0.10860 323372.939139
     25     44     1   0.10860 323372.939139
     45     46     1   0.12250 637673.816836
     45     47     1   0.14679 223784.907186
     47     48     1   0.14007 315369.603109
     47     69     1   0.14007 315369.603109
     48     49     1   0.14007 315369.603109
     48     70     1   0.10860 323372.939139
     49     50     1   0.14007 315369.603109
     49     71     1   0.10860 323372.939139
     50     51     1   0.14679 223784.907186
     50     68     1   0.14007 315369.603109
     51     52     1   0.14007 315369.603109
     51     58     1   0.14007 315369.603109
     52     53     1   0.14007 315369.603109
     52     59     1   0.14679 223784.907186
     53     54     1   0.14007 315369.603109
     53     72     1   0.10860 323372.939139
     54     55     1   0.13720 266731.066407
     54     57     1   0.14007 315369.603109
     55     56     1   0.14363 189984.684332
     56     73     1   0.10929 317186.185379
     56     74     1   0.10929 317186.185379
     56     75     1   0.10929 317186.185379
     57     58     1   0.14007 315369.603109
     57     76     1   0.10860 323372.939139
     58     77     1   0.10860 323372.939139
     59     60     1   0.14007 315369.603109
     59     64     1   0.14007 315369.603109
     60     61     1   0.14007 315369.603109
     60     78     1   0.10860 323372.939139
     61     62     1   0.14007 315369.603109
     61     79     1   0.10860 323372.939139
     62     63     1   0.14007 315369.603109
     62     65     1   0.15096 200304.454301
     63     64     1   0.14007 315369.603109
     63     80     1   0.10860 323372.939139
     64     81     1   0.10860 323372.939139
     65     66     1   0.14621 202028.005745
     65     67     1   0.15336 180164.203624
     65     82     1   0.10929 317186.185379
     66     83     1   0.10186 402492.840308
     66     89     1   0.13838 273614.770188
     67     84     1   0.10929 317186.185379
     67     85     1   0.10929 317186.185379
     67     86     1   0.10929 317186.185379
     68     69     1   0.14007 315369.603109
     68     87     1   0.10860 323372.939139
     69     88     1   0.10860 323372.939139
     89     90     1   0.12250 637673.816836
     89     91     1   0.14679 223784.907186
     91     92     1   0.14007 315369.603109
     91    113     1   0.14007 315369.603109
     92     93     1   0.14007 315369.603109
     92    114     1   0.10860 323372.939139
     93     94     1   0.14007 315369.603109
     93    115     1   0.10860 323372.939139
     94     95     1   0.14679 223784.907186
     94    112     1   0.14007 315369.603109
     95     96     1   0.14007 315369.603109
     95    102     1   0.14007 315369.603109
     96     97     1   0.14007 315369.603109
     96    103     1   0.14679 223784.907186
     97     98     1   0.14007 315369.603109
     97    116     1   0.10860 323372.939139
     98     99     1   0.13720 266731.066407
     98    101     1   0.14007 315369.603109
     99    100     1   0.14363 189984.684332
    100    117     1   0.10929 317186.185379
    100    118     1   0.10929 317186.185379
    100    119     1   0.10929 317186.185379
    101    102     1   0.14007 315369.603109
    101    120     1   0.10860 323372.939139
    102    121     1   0.10860 323372.939139
    103    104     1   0.14007 315369.603109
    103    108     1   0.14007 315369.603109
    104    105     1   0.14007 315369.603109
    104    122     1   0.10860 323372.939139
    105    106     1   0.14007 315369.603109
    105    123     1   0.10860 323372.939139
    106    107     1   0.14007 315369.603109
    106    109     1   0.15096 200304.454301
    107    108     1   0.14007 315369.603109
    107    124     1   0.10860 323372.939139
    108    125     1   0.10860 323372.939139
    109    110     1   0.14621 202028.005745
    109    111     1   0.15336 180164.203624
    109    126     1   0.10929 317186.185379
    110    127     1   0.10186 402492.840308
    110    133     1   0.13838 273614.770188
    111    128     1   0.10929 317186.185379
    111    129     1   0.10929 317186.185379
    111    130     1   0.10929 317186.185379
    112    113     1   0.14007 315369.603109
    112    131     1   0.10860 323372.939139
    113    132     1   0.10860 323372.939139
    133    134     1   0.12250 637673.816836
    133    135     1   0.14679 223784.907186
    135    136     1   0.14007 315369.603109
    135    157     1   0.14007 315369.603109
    136    137     1   0.14007 315369.603109
    136    158     1   0.10860 323372.939139
    137    138     1   0.14007 315369.603109
    137    159     1   0.10860 323372.939139
    138    139     1   0.14679 223784.907186
    138    156     1   0.14007 315369.603109
    139    140     1   0.14007 315369.603109
    139    146     1   0.14007 315369.603109
    140    141     1   0.14007 315369.603109
    140    147     1   0.14679 223784.907186
    141    142     1   0.14007 315369.603109
    141    160     1   0.10860 323372.939139
    142    143     1   0.13720 266731.066407
    142    145     1   0.14007 315369.603109
    143    144     1   0.14363 189984.684332
    144    161     1   0.10929 317186.185379
    144    162     1   0.10929 317186.185379
    144    163     1   0.10929 317186.185379
    145    146     1   0.14007 315369.603109
    145    164     1   0.10860 323372.939139
    146    165     1   0.10860 323372.939139
    147    148     1   0.14007 315369.603109
    147    152     1   0.14007 315369.603109
    148    149     1   0.14007 315369.603109
    148    166     1   0.10860 323372.939139
    149    150     1   0.14007 315369.603109
    149    167     1   0.10860 323372.939139
    150    151     1   0.14007 315369.603109
    150    153     1   0.15096 200304.454301
    151    152     1   0.14007 315369.603109
    151    168     1   0.10860 323372.939139
    152    169     1   0.10860 323372.939139
    153    154     1   0.14621 202028.005745
    153    155     1   0.15336 180164.203624
    153    170     1   0.10929 317186.185379
    154    171     1   0.10186 402492.840308
    154    187     1   0.13838 273614.770188
    155    172     1   0.10929 317186.185379
    155    173     1   0.10929 317186.185379
    155    174     1   0.10929 317186.185379
    156    157     1   0.14007 315369.603109
    156    175     1   0.10860 323372.939139
    157    176     1   0.10860 323372.939139
    177    178     1   0.14363 189984.684332
    177    179     1   0.10929 317186.185379
    177    180     1   0.10929 317186.185379
    177    181     1   0.10929 317186.185379
    182    183     1   0.15336 180164.203624
    182    189     1   0.10929 317186.185379
    182    190     1   0.10929 317186.185379
    182    191     1   0.10929 317186.185379
    183    184     1   0.15336 180164.203624
    183    185     1   0.15336 180164.203624
    183    186     1   0.14363 189984.684332
    184    192     1   0.10929 317186.185379
    184    193     1   0.10929 317186.185379
    184    194     1   0.10929 317186.185379
    185    195     1   0.10929 317186.185379
    185    196     1   0.10929 317186.185379
    185    197     1   0.10929 317186.185379
    186    187     1   0.13561 243795.038367
    187    188     1   0.12250 637673.816836

[ pairs ]
;    ai     aj funct         c0         c1         c2         c3
    133    158     1
    134    157     1
     99    116     1
      7     20     1
      9     20     1
    101    116     1
      7     28     1
    185    191     1
    138    141     1
      1     24     1
     22     41     1
    156    159     1
    182    194     1
    143    164     1
     97    120     1
     16     19     1
     53     56     1
     16     21     1
      8     24     1
     45     49     1
     52     61     1
    153    188     1
     92    132     1
      1    180     1
    136    176     1
    107    123     1
     34     35     1
    110    128     1
     10     31     1
    186    196     1
     48     51     1
    138    158     1
    126    130     1
      7     16     1
    126    128     1
     25    178     1
    143    160     1
      9     16     1
    148    151     1
      9     12     1
     38     39     1
     90     92     1
     97    108     1
      6     44     1
    108    109     1
     90    113     1
     49     69     1
    170    173     1
      8     11     1
    153    186     1
    127    134     1
    141    148     1
      7     43     1
    120    121     1
    186    194     1
    100    101     1
     62     86     1
     52     63     1
     96    112     1
     21     47     1
     59     80     1
      6     26     1
    137    146     1
     95    104     1
     62     78     1
     18     45     1
     98    103     1
     53     58     1
     14     15     1
     22     42     1
    106    122     1
    103    124     1
    184    187     1
     19     23     1
     65     91     1
     53     60     1
     98    117     1
    175    176     1
     51     71     1
    146    147     1
     97    100     1
    141    164     1
     69     70     1
    139    159     1
     38     41     1
     95     98     1
     55     72     1
    114    115     1
     95    131     1
     25     26     1
      8     37     1
    110    136     1
     53     76     1
    126    133     1
     20     21     1
    185    193     1
    105    111     1
    122    123     1
     63     79     1
     47     50     1
      7     25     1
    139    152     1
      3    177     1
      8     17     1
    170    171     1
     48     68     1
    152    153     1
     78     79     1
    185    187     1
    140    166     1
     61     82     1
     82     86     1
      6      9     1
     21     46     1
     46     48     1
    150    173     1
      4      7     1
    133    156     1
    154    174     1
    103    123     1
    106    130     1
     96    107     1
     17     22     1
    106    128     1
     54     74     1
    149    168     1
     89    132     1
     63     66     1
    141    144     1
     47     71     1
    142    163     1
    184    190     1
    168    169     1
     22     48     1
    186    191     1
     62     83     1
     23     39     1
     94    121     1
    149    152     1
     50     53     1
    106    127     1
     82     85     1
     51     64     1
     96    121     1
     83     91     1
     62     89     1
    170    187     1
     51     60     1
    185    189     1
    184    197     1
     24     27     1
     38     42     1
     95    120     1
     62     84     1
     83     90     1
    151    167     1
     63     67     1
     18     37     1
    150    169     1
     26     27     1
     49     58     1
    154    172     1
    106    129     1
    133    137     1
      5     14     1
     51     69     1
     96    122     1
     87     88     1
     92    112     1
     95    116     1
    139    142     1
      4     24     1
     12     13     1
    145    160     1
     48     88     1
    155    187     1
    149    155     1
     51     76     1
    140    149     1
    110    157     1
    144    145     1
    105    110     1
      2     25     1
    102    103     1
    185    190     1
      6     15     1
     16     37     1
    164    165     1
    104    109     1
      3     43     1
    182    193     1
    109    124     1
     18     40     1
     50     57     1
    140    156     1
     54     75     1
     94    114     1
     98    119     1
    150    171     1
     95    113     1
    151    155     1
     65     79     1
    106    133     1
     96    125     1
    147    168     1
    139    175     1
    151    170     1
     93    131     1
    108    122     1
    113    114     1
    147    167     1
     15     18     1
     17     38     1
    182    187     1
     82     83     1
    134    136     1
     97    104     1
    142    147     1
    142    161     1
    147    150     1
    135    159     1
     14     24     1
     45     70     1
     64     65     1
     52     81     1
      7     10     1
    107    126     1
    138    176     1
     82     89     1
    142    162     1
     19     22     1
     10     15     1
     66    113     1
    157    158     1
     82     84     1
    105    108     1
      5      8     1
      7     27     1
      3     27     1
     59     62     1
     39     47     1
    150    187     1
    186    193     1
    105    124     1
     60     63     1
    143    146     1
    152    166     1
     45     88     1
    109    123     1
     66     86     1
    184    189     1
     11     32     1
    140    151     1
    170    174     1
     93    102     1
     58     68     1
    154    183     1
    139    148     1
     18     39     1
     64     78     1
    136    156     1
    127    135     1
    148    169     1
     91     94     1
    153    168     1
     51     54     1
    184    195     1
     55     58     1
    155    171     1
     94    103     1
     66     85     1
    138    165     1
     52     77     1
      6     13     1
    153    167     1
    147    160     1
     11     14     1
    137    140     1
    184    196     1
     96    105     1
      5     25     1
    131    132     1
     11     28     1
     89     93     1
    170    172     1
     89    112     1
      1     44     1
     58     59     1
     15     36     1
    149    154     1
    185    192     1
    139    164     1
     18     34     1
     97    102     1
    182    197     1
    186    189     1
      9     14     1
     50     77     1
     51     87     1
     39     46     1
     55     76     1
    135    138     1
     94     97     1
     19     38     1
     91    115     1
    140    143     1
      6     33     1
     49     52     1
     93    113     1
    140    165     1
     52     57     1
     95    115     1
    151    154     1
      1     26     1
    109    135     1
     94    101     1
     49     87     1
    137    175     1
    139    160     1
     18     41     1
      1      5     1
    111    127     1
     52     78     1
    186    195     1
     50     70     1
      4     44     1
     17     36     1
    104    107     1
     96    101     1
    141    146     1
    146    156     1
    186    190     1
     50     59     1
    110    130     1
     60     65     1
     22     40     1
     46     69     1
    149    170     1
    135    175     1
     45     68     1
     95    108     1
    133    176     1
     63     82     1
      1    179     1
    150    174     1
     94    132     1
     22     69     1
     54     77     1
    140    169     1
     21     35     1
     56     57     1
    107    110     1
    186    197     1
     59     72     1
    141    152     1
      2    177     1
    183    188     1
     76     77     1
     10     33     1
    126    127     1
    103    116     1
     65     80     1
     50     88     1
     10     30     1
    148    153     1
     59     79     1
     66     84     1
    185    194     1
     61     80     1
    103    106     1
    166    167     1
     47     87     1
    171    188     1
    138    145     1
    105    126     1
    110    129     1
    137    157     1
      5     43     1
     68     71     1
    138    147     1
    154    173     1
     66     92     1
      8     19     1
     54     59     1
    126    129     1
    111    133     1
     15     28     1
     61     66     1
      8     34     1
    150    172     1
    158    159     1
     57     72     1
     53     64     1
    136    139     1
      3      6     1
     98    118     1
     98    121     1
     21     36     1
     67     83     1
     61     64     1
     54     73     1
     18     42     1
     19     35     1
     32     33     1
    124    125     1
     65     90     1
     96     99     1
    150    166     1
    182    192     1
     62     85     1
    171    186     1
    139    157     1
     36     37     1
     67     89     1
    104    125     1
     23     45     1
     91    131     1
     17     20     1
    140    145     1
     80     81     1
     15     35     1
     61     67     1
    184    191     1
      1    181     1
      8     13     1
    102    112     1
    109    134     1
      2      4     1
     60     81     1
     20     34     1
    107    111     1
     52     68     1
    106    125     1
     62     81     1
     93     96     1
     10     29     1
    112    115     1
     99    102     1
      7     32     1
    182    195     1
      9     32     1
     52     55     1
     38     40     1
     51     72     1
     43     44     1
      4    178     1
     13     28     1
     70     71     1
    182    196     1
     92     95     1
     17     23     1
     38     45     1
     99    120     1
      8     33     1
     89    114     1
    186    192     1
    142    165     1

[ angles ]
;    ai     aj     ak funct         c0         c1         c2         c3
      1      3      4     1   120.1049996 707.494800
      1      3     25     1   120.1049996 707.494800
      1    178    177     1   112.8736161 1003.288804
      2      1      3     1   120.1049996 707.494800
      2      1    178     1   123.6058900 529.778360
      3      1    178     1   120.1049996 707.494800
      3      4      5     1   120.1049996 707.494800
      3      4     26     1   119.8544860 275.494454
      3     25     24     1   120.1049996 707.494800
      3     25     44     1   119.8544860 275.494454
      4      3     25     1   120.1049996 707.494800
      4      5      6     1   120.1049996 707.494800
      4      5     27     1   119.8544860 275.494454
      5      4     26     1   119.8544860 275.494454
      5      6      7     1   120.1049996 707.494800
      5      6     24     1   120.1049996 707.494800
      6      5     27     1   119.8544860 275.494454
      6      7      8     1   120.1049996 707.494800
      6      7     14     1   120.1049996 707.494800
      6     24     25     1   120.1049996 707.494800
      6     24     43     1   119.8544860 275.494454
      7      6     24     1   120.1049996 707.494800
      7      8      9     1   120.1049996 707.494800
      7      8     15     1   120.1049996 707.494800
      7     14     13     1   120.1049996 707.494800
      7     14     33     1   119.8544860 275.494454
      8      7     14     1   120.1049996 707.494800
      8      9     10     1   120.1049996 707.494800
      8      9     28     1   119.8544860 275.494454
      8     15     16     1   120.1049996 707.494800
      8     15     20     1   120.1049996 707.494800
      9      8     15     1   120.1049996 707.494800
      9     10     11     1   120.1049996 707.494800
      9     10     13     1   120.1049996 707.494800
     10      9     28     1   119.8544860 275.494454
     10     11     12     1   112.8736161 1003.288804
     10     13     14     1   120.1049996 707.494800
     10     13     32     1   119.8544860 275.494454
     11     10     13     1   120.1049996 707.494800
     11     12     29     1   107.6607822 425.669015
     11     12     30     1   107.6607822 425.669015
     11     12     31     1   107.6607822 425.669015
     13     14     33     1   119.8544860 275.494454
     14     13     32     1   119.8544860 275.494454
     15     16     17     1   120.1049996 707.494800
     15     16     34     1   119.8544860 275.494454
     15     20     19     1   120.1049996 707.494800
     15     20     37     1   119.8544860 275.494454
     16     15     20     1   120.1049996 707.494800
     16     17     18     1   120.1049996 707.494800
     16     17     35     1   119.8544860 275.494454
     17     16     34     1   119.8544860 275.494454
     17     18     19     1   120.1049996 707.494800
     17     18     21     1   120.1049996 707.494800
     18     17     35     1   119.8544860 275.494454
     18     19     20     1   120.1049996 707.494800
     18     19     36     1   119.8544860 275.494454
     18     21     22     1   107.6607822 425.669015
     18     21     23     1   107.6607822 425.669015
     18     21     38     1   107.6607822 425.669015
     19     18     21     1   120.1049996 707.494800
     19     20     37     1   119.8544860 275.494454
     20     19     36     1   119.8544860 275.494454
     21     22     39     1   118.0636611 310.493310
     21     22     45     1   121.7705344 665.074568
     21     23     40     1   107.6607822 425.669015
     21     23     41     1   107.6607822 425.669015
     21     23     42     1   107.6607822 425.669015
     22     21     23     1   107.6607822 425.669015
     22     21     38     1   107.6607822 425.669015
     22     45     46     1   120.1049996 707.494800
     22     45     47     1   120.1049996 707.494800
     23     21     38     1   107.6607822 425.669015
     24     25     44     1   119.8544860 275.494454
     25     24     43     1   119.8544860 275.494454
     29     12     30     1   108.3543135 307.746906
     29     12     31     1   108.3543135 307.746906
     30     12     31     1   108.3543135 307.746906
     39     22     45     1   118.0636611 310.493310
     40     23     41     1   108.3543135 307.746906
     40     23     42     1   108.3543135 307.746906
     41     23     42     1   108.3543135 307.746906
     45     47     48     1   120.1049996 707.494800
     45     47     69     1   120.1049996 707.494800
     46     45     47     1   120.1049996 707.494800
     47     48     49     1   120.1049996 707.494800
     47     48     70     1   119.8544860 275.494454
     47     69     68     1   120.1049996 707.494800
     47     69     88     1   119.8544860 275.494454
     48     47     69     1   120.1049996 707.494800
     48     49     50     1   120.1049996 707.494800
     48     49     71     1   119.8544860 275.494454
     49     48     70     1   119.8544860 275.494454
     49     50     51     1   120.1049996 707.494800
     49     50     68     1   120.1049996 707.494800
     50     49     71     1   119.8544860 275.494454
     50     51     52     1   120.1049996 707.494800
     50     51     58     1   120.1049996 707.494800
     50     68     69     1   120.1049996 707.494800
     50     68     87     1   119.8544860 275.494454
     51     50     68     1   120.1049996 707.494800
     51     52     53     1   120.1049996 707.494800
     51     52     59     1   120.1049996 707.494800
     51     58     57     1   120.1049996 707.494800
     51     58     77     1   119.8544860 275.494454
     52     51     58     1   120.1049996 707.494800
     52     53     54     1   120.1049996 707.494800
     52     53     72     1   119.8544860 275.494454
     52     59     60     1   120.1049996 707.494800
     52     59     64     1   120.1049996 707.494800
     53     52     59     1   120.1049996 707.494800
     53     54     55     1   120.1049996 707.494800
     53     54     57     1   120.1049996 707.494800
     54     53     72     1   119.8544860 275.494454
     54     55     56     1   112.8736161 1003.288804
     54     57     58     1   120.1049996 707.494800
     54     57     76     1   119.8544860 275.494454
     55     54     57     1   120.1049996 707.494800
     55     56     73     1   107.6607822 425.669015
     55     56     74     1   107.6607822 425.669015
     55     56     75     1   107.6607822 425.669015
     57     58     77     1   119.8544860 275.494454
     58     57     76     1   119.8544860 275.494454
     59     60     61     1   120.1049996 707.494800
     59     60     78     1   119.8544860 275.494454
     59     64     63     1   120.1049996 707.494800
     59     64     81     1   119.8544860 275.494454
     60     59     64     1   120.1049996 707.494800
     60     61     62     1   120.1049996 707.494800
     60     61     79     1   119.8544860 275.494454
     61     60     78     1   119.8544860 275.494454
     61     62     63     1   120.1049996 707.494800
     61     62     65     1   120.1049996 707.494800
     62     61     79     1   119.8544860 275.494454
     62     63     64     1   120.1049996 707.494800
     62     63     80     1   119.8544860 275.494454
     62     65     66     1   107.6607822 425.669015
     62     65     67     1   107.6607822 425.669015
     62     65     82     1   107.6607822 425.669015
     63     62     65     1   120.1049996 707.494800
     63     64     81     1   119.8544860 275.494454
     64     63     80     1   119.8544860 275.494454
     65     66     83     1   118.0636611 310.493310
     65     66     89     1   121.7705344 665.074568
     65     67     84     1   107.6607822 425.669015
     65     67     85     1   107.6607822 425.669015
     65     67     86     1   107.6607822 425.669015
     66     65     67     1   107.6607822 425.669015
     66     65     82     1   107.6607822 425.669015
     66     89     90     1   120.1049996 707.494800
     66     89     91     1   120.1049996 707.494800
     67     65     82     1   107.6607822 425.669015
     68     69     88     1   119.8544860 275.494454
     69     68     87     1   119.8544860 275.494454
     73     56     74     1   108.3543135 307.746906
     73     56     75     1   108.3543135 307.746906
     74     56     75     1   108.3543135 307.746906
     83     66     89     1   118.0636611 310.493310
     84     67     85     1   108.3543135 307.746906
     84     67     86     1   108.3543135 307.746906
     85     67     86     1   108.3543135 307.746906
     89     91     92     1   120.1049996 707.494800
     89     91    113     1   120.1049996 707.494800
     90     89     91     1   120.1049996 707.494800
     91     92     93     1   120.1049996 707.494800
     91     92    114     1   119.8544860 275.494454
     91    113    112     1   120.1049996 707.494800
     91    113    132     1   119.8544860 275.494454
     92     91    113     1   120.1049996 707.494800
     92     93     94     1   120.1049996 707.494800
     92     93    115     1   119.8544860 275.494454
     93     92    114     1   119.8544860 275.494454
     93     94     95     1   120.1049996 707.494800
     93     94    112     1   120.1049996 707.494800
     94     93    115     1   119.8544860 275.494454
     94     95     96     1   120.1049996 707.494800
     94     95    102     1   120.1049996 707.494800
     94    112    113     1   120.1049996 707.494800
     94    112    131     1   119.8544860 275.494454
     95     94    112     1   120.1049996 707.494800
     95     96     97     1   120.1049996 707.494800
     95     96    103     1   120.1049996 707.494800
     95    102    101     1   120.1049996 707.494800
     95    102    121     1   119.8544860 275.494454
     96     95    102     1   120.1049996 707.494800
     96     97     98     1   120.1049996 707.494800
     96     97    116     1   119.8544860 275.494454
     96    103    104     1   120.1049996 707.494800
     96    103    108     1   120.1049996 707.494800
     97     96    103     1   120.1049996 707.494800
     97     98     99     1   120.1049996 707.494800
     97     98    101     1   120.1049996 707.494800
     98     97    116     1   119.8544860 275.494454
     98     99    100     1   112.8736161 1003.288804
     98    101    102     1   120.1049996 707.494800
     98    101    120     1   119.8544860 275.494454
     99     98    101     1   120.1049996 707.494800
     99    100    117     1   107.6607822 425.669015
     99    100    118     1   107.6607822 425.669015
     99    100    119     1   107.6607822 425.669015
    101    102    121     1   119.8544860 275.494454
    102    101    120     1   119.8544860 275.494454
    103    104    105     1   120.1049996 707.494800
    103    104    122     1   119.8544860 275.494454
    103    108    107     1   120.1049996 707.494800
    103    108    125     1   119.8544860 275.494454
    104    103    108     1   120.1049996 707.494800
    104    105    106     1   120.1049996 707.494800
    104    105    123     1   119.8544860 275.494454
    105    104    122     1   119.8544860 275.494454
    105    106    107     1   120.1049996 707.494800
    105    106    109     1   120.1049996 707.494800
    106    105    123     1   119.8544860 275.494454
    106    107    108     1   120.1049996 707.494800
    106    107    124     1   119.8544860 275.494454
    106    109    110     1   107.6607822 425.669015
    106    109    111     1   107.6607822 425.669015
    106    109    126     1   107.6607822 425.669015
    107    106    109     1   120.1049996 707.494800
    107    108    125     1   119.8544860 275.494454
    108    107    124     1   119.8544860 275.494454
    109    110    127     1   118.0636611 310.493310
    109    110    133     1   121.7705344 665.074568
    109    111    128     1   107.6607822 425.669015
    109    111    129     1   107.6607822 425.669015
    109    111    130     1   107.6607822 425.669015
    110    109    111     1   107.6607822 425.669015
    110    109    126     1   107.6607822 425.669015
    110    133    134     1   120.1049996 707.494800
    110    133    135     1   120.1049996 707.494800
    111    109    126     1   107.6607822 425.669015
    112    113    132     1   119.8544860 275.494454
    113    112    131     1   119.8544860 275.494454
    117    100    118     1   108.3543135 307.746906
    117    100    119     1   108.3543135 307.746906
    118    100    119     1   108.3543135 307.746906
    127    110    133     1   118.0636611 310.493310
    128    111    129     1   108.3543135 307.746906
    128    111    130     1   108.3543135 307.746906
    129    111    130     1   108.3543135 307.746906
    133    135    136     1   120.1049996 707.494800
    133    135    157     1   120.1049996 707.494800
    134    133    135     1   120.1049996 707.494800
    135    136    137     1   120.1049996 707.494800
    135    136    158     1   119.8544860 275.494454
    135    157    156     1   120.1049996 707.494800
    135    157    176     1   119.8544860 275.494454
    136    135    157     1   120.1049996 707.494800
    136    137    138     1   120.1049996 707.494800
    136    137    159     1   119.8544860 275.494454
    137    136    158     1   119.8544860 275.494454
    137    138    139     1   120.1049996 707.494800
    137    138    156     1   120.1049996 707.494800
    138    137    159     1   119.8544860 275.494454
    138    139    140     1   120.1049996 707.494800
    138    139    146     1   120.1049996 707.494800
    138    156    157     1   120.1049996 707.494800
    138    156    175     1   119.8544860 275.494454
    139    138    156     1   120.1049996 707.494800
    139    140    141     1   120.1049996 707.494800
    139    140    147     1   120.1049996 707.494800
    139    146    145     1   120.1049996 707.494800
    139    146    165     1   119.8544860 275.494454
    140    139    146     1   120.1049996 707.494800
    140    141    142     1   120.1049996 707.494800
    140    141    160     1   119.8544860 275.494454
    140    147    148     1   120.1049996 707.494800
    140    147    152     1   120.1049996 707.494800
    141    140    147     1   120.1049996 707.494800
    141    142    143     1   120.1049996 707.494800
    141    142    145     1   120.1049996 707.494800
    142    141    160     1   119.8544860 275.494454
    142    143    144     1   112.8736161 1003.288804
    142    145    146     1   120.1049996 707.494800
    142    145    164     1   119.8544860 275.494454
    143    142    145     1   120.1049996 707.494800
    143    144    161     1   107.6607822 425.669015
    143    144    162     1   107.6607822 425.669015
    143    144    163     1   107.6607822 425.669015
    145    146    165     1   119.8544860 275.494454
    146    145    164     1   119.8544860 275.494454
    147    148    149     1   120.1049996 707.494800
    147    148    166     1   119.8544860 275.494454
    147    152    151     1   120.1049996 707.494800
    147    152    169     1   119.8544860 275.494454
    148    147    152     1   120.1049996 707.494800
    148    149    150     1   120.1049996 707.494800
    148    149    167     1   119.8544860 275.494454
    149    148    166     1   119.8544860 275.494454
    149    150    151     1   120.1049996 707.494800
    149    150    153     1   120.1049996 707.494800
    150    149    167     1   119.8544860 275.494454
    150    151    152     1   120.1049996 707.494800
    150    151    168     1   119.8544860 275.494454
    150    153    154     1   107.6607822 425.669015
    150    153    155     1   107.6607822 425.669015
    150    153    170     1   107.6607822 425.669015
    151    150    153     1   120.1049996 707.494800
    151    152    169     1   119.8544860 275.494454
    152    151    168     1   119.8544860 275.494454
    153    154    171     1   118.0636611 310.493310
    153    154    187     1   121.7705344 665.074568
    153    155    172     1   107.6607822 425.669015
    153    155    173     1   107.6607822 425.669015
    153    155    174     1   107.6607822 425.669015
    154    153    155     1   107.6607822 425.669015
    154    153    170     1   107.6607822 425.669015
    154    187    186     1   120.1049996 707.494800
    154    187    188     1   120.1049996 707.494800
    155    153    170     1   107.6607822 425.669015
    156    157    176     1   119.8544860 275.494454
    157    156    175     1   119.8544860 275.494454
    161    144    162     1   108.3543135 307.746906
    161    144    163     1   108.3543135 307.746906
    162    144    163     1   108.3543135 307.746906
    171    154    187     1   118.0636611 310.493310
    172    155    173     1   108.3543135 307.746906
    172    155    174     1   108.3543135 307.746906
    173    155    174     1   108.3543135 307.746906
    178    177    179     1   107.6607822 425.669015
    178    177    180     1   107.6607822 425.669015
    178    177    181     1   107.6607822 425.669015
    179    177    180     1   108.3543135 307.746906
    179    177    181     1   108.3543135 307.746906
    180    177    181     1   108.3543135 307.746906
    182    183    184     1   107.6607822 425.669015
    182    183    185     1   107.6607822 425.669015
    182    183    186     1   107.6607822 425.669015
    183    182    189     1   107.6607822 425.669015
    183    182    190     1   107.6607822 425.669015
    183    182    191     1   107.6607822 425.669015
    183    184    192     1   107.6607822 425.669015
    183    184    193     1   107.6607822 425.669015
    183    184    194     1   107.6607822 425.669015
    183    185    195     1   107.6607822 425.669015
    183    185    196     1   107.6607822 425.669015
    183    185    197     1   107.6607822 425.669015
    183    186    187     1   112.8736161 1003.288804
    184    183    185     1   107.6607822 425.669015
    184    183    186     1   107.6607822 425.669015
    185    183    186     1   107.6607822 425.669015
    186    187    188     1   123.6058900 529.778360
    189    182    190     1   108.3543135 307.746906
    189    182    191     1   108.3543135 307.746906
    190    182    191     1   108.3543135 307.746906
    192    184    193     1   108.3543135 307.746906
    192    184    194     1   108.3543135 307.746906
    193    184    194     1   108.3543135 307.746906
    195    185    196     1   108.3543135 307.746906
    195    185    197     1   108.3543135 307.746906
    196    185    197     1   108.3543135 307.746906

[ dihedrals ]
;    ai     aj     ak     al funct         c0         c1         c2         c3         c4         c5
      1      3      4      5     1  180.0000000  13.6752988  2
      1      3      4     26     1  180.0000000  13.6752988  2
      1      3     25     24     1  180.0000000  13.6752988  2
      1      3     25     44     1  180.0000000  13.6752988  2
      1    178    177    179     1  0.0000000  1.1008580  3
      1    178    177    180     1  0.0000000  1.1008580  3
      1    178    177    181     1  0.0000000  1.1008580  3
      2      1      3      4     1  0.0000000  0.1077520  1
      2      1      3      4     1  180.0000000  1.8080565  2
      2      1      3      4     1  0.0000000  0.1583637  3
      2      1      3      4     1  180.0000000  0.2533621  4
      2      1      3     25     1  0.0000000  0.1077520  1
      2      1      3     25     1  180.0000000  1.8080565  2
      2      1      3     25     1  0.0000000  0.1583637  3
      2      1      3     25     1  180.0000000  0.2533621  4
      2      1    178    177     1  0.0000000  4.0191406  1
      2      1    178    177     1  180.0000000  3.2112346  2
      2      1    178    177     1  0.0000000  -2.4785519  3
      2      1    178    177     1  180.0000000  0.4537938  4
      3      1    178    177     1  0.0000000  1.4829524  1
      3      1    178    177     1  180.0000000  16.3630217  2
      3      1    178    177     1  0.0000000  3.1961584  3
      3      1    178    177     1  180.0000000  2.3726712  4
      3      4      5      6     1  180.0000000  13.6752988  2
      3      4      5     27     1  180.0000000  13.6752988  2
      3     25     24      6     1  180.0000000  13.6752988  2
      3     25     24     43     1  180.0000000  13.6752988  2
      4      3      1    178     1  0.0000000  -0.1019036  1
      4      3      1    178     1  180.0000000  2.0872949  2
      4      3      1    178     1  0.0000000  -0.1934998  3
      4      3      1    178     1  180.0000000  -0.0919353  4
      4      3     25     24     1  180.0000000  13.6752988  2
      4      3     25     44     1  180.0000000  13.6752988  2
      4      5      6      7     1  180.0000000  13.6752988  2
      4      5      6     24     1  180.0000000  13.6752988  2
      5      4      3     25     1  180.0000000  13.6752988  2
      5      6      7      8     1  0.0000000  -0.3038214  1
      5      6      7      8     1  180.0000000  5.6000185  2
      5      6      7      8     1  0.0000000  -0.3518823  3
      5      6      7      8     1  180.0000000  -0.2604576  4
      5      6      7     14     1  0.0000000  0.3308198  1
      5      6      7     14     1  180.0000000  6.2643591  2
      5      6      7     14     1  0.0000000  0.3689749  3
      5      6      7     14     1  180.0000000  2.0032598  4
      5      6     24     25     1  180.0000000  13.6752988  2
      5      6     24     43     1  180.0000000  13.6752988  2
      6      5      4     26     1  180.0000000  13.6752988  2
      6      7      8      9     1  180.0000000  13.6752988  2
      6      7      8     15     1  180.0000000  13.6752988  2
      6      7     14     13     1  180.0000000  13.6752988  2
      6      7     14     33     1  180.0000000  13.6752988  2
      6     24     25     44     1  180.0000000  13.6752988  2
      7      6      5     27     1  180.0000000  13.6752988  2
      7      6     24     25     1  180.0000000  13.6752988  2
      7      6     24     43     1  180.0000000  13.6752988  2
      7      8      9     10     1  180.0000000  13.6752988  2
      7      8      9     28     1  180.0000000  13.6752988  2
      7      8     15     16     1  180.0000000  5.1777217  2
      7      8     15     20     1  180.0000000  5.1777217  2
      7     14     13     10     1  180.0000000  13.6752988  2
      7     14     13     32     1  180.0000000  13.6752988  2
      8      7      6     24     1  0.0000000  -0.3038214  1
      8      7      6     24     1  180.0000000  5.6000185  2
      8      7      6     24     1  0.0000000  -0.3518823  3
      8      7      6     24     1  180.0000000  -0.2604576  4
      8      7     14     13     1  180.0000000  13.6752988  2
      8      7     14     33     1  180.0000000  13.6752988  2
      8      9     10     11     1  180.0000000  13.6752988  2
      8      9     10     13     1  180.0000000  13.6752988  2
      8     15     16     17     1  180.0000000  13.6752988  2
      8     15     16     34     1  180.0000000  13.6752988  2
      8     15     20     19     1  180.0000000  13.6752988  2
      8     15     20     37     1  180.0000000  13.6752988  2
      9      8      7     14     1  180.0000000  13.6752988  2
      9      8     15     16     1  180.0000000  5.1777217  2
      9      8     15     20     1  180.0000000  5.1777217  2
      9     10     11     12     1  0.0000000  0.2302840  1
      9     10     11     12     1  180.0000000  9.7411201  2
      9     10     11     12     1  0.0000000  1.1499816  3
      9     10     11     12     1  180.0000000  0.6724526  4
      9     10     13     14     1  180.0000000  13.6752988  2
      9     10     13     32     1  180.0000000  13.6752988  2
     10      9      8     15     1  180.0000000  13.6752988  2
     10     11     12     29     1  0.0000000  1.1008580  3
     10     11     12     30     1  0.0000000  1.1008580  3
     10     11     12     31     1  0.0000000  1.1008580  3
     10     13     14     33     1  180.0000000  13.6752988  2
     11     10      9     28     1  180.0000000  13.6752988  2
     11     10     13     14     1  180.0000000  13.6752988  2
     11     10     13     32     1  180.0000000  13.6752988  2
     12     11     10     13     1  0.0000000  0.2302840  1
     12     11     10     13     1  180.0000000  9.7411201  2
     12     11     10     13     1  0.0000000  1.1499816  3
     12     11     10     13     1  180.0000000  0.6724526  4
     13     10      9     28     1  180.0000000  13.6752988  2
     14      7      6     24     1  0.0000000  0.3308198  1
     14      7      6     24     1  180.0000000  6.2643591  2
     14      7      6     24     1  0.0000000  0.3689749  3
     14      7      6     24     1  180.0000000  2.0032598  4
     14      7      8     15     1  180.0000000  13.6752988  2
     15      8      9     28     1  180.0000000  13.6752988  2
     15     16     17     18     1  180.0000000  13.6752988  2
     15     16     17     35     1  180.0000000  13.6752988  2
     15     20     19     18     1  180.0000000  13.6752988  2
     15     20     19     36     1  180.0000000  13.6752988  2
     16     15     20     19     1  180.0000000  13.6752988  2
     16     15     20     37     1  180.0000000  13.6752988  2
     16     17     18     19     1  180.0000000  13.6752988  2
     16     17     18     21     1  180.0000000  13.6752988  2
     17     16     15     20     1  180.0000000  13.6752988  2
     17     18     19     20     1  180.0000000  13.6752988  2
     17     18     19     36     1  180.0000000  13.6752988  2
     17     18     21     22     1  0.0000000  0.1819029  1
     17     18     21     22     1  180.0000000  1.4046129  2
     17     18     21     22     1  0.0000000  0.0433856  3
     17     18     21     22     1  180.0000000  -0.1854357  4
     17     18     21     23     1  0.0000000  -0.0441245  1
     17     18     21     23     1  180.0000000  -0.1207984  2
     17     18     21     23     1  0.0000000  0.0370416  3
     17     18     21     23     1  180.0000000  -0.1571385  4
     17     18     21     38     1  0.0000000  -0.1423639  1
     17     18     21     38     1  180.0000000  -0.8556020  2
     17     18     21     38     1  0.0000000  0.0370576  3
     17     18     21     38     1  180.0000000  -0.0121113  4
     18     17     16     34     1  180.0000000  13.6752988  2
     18     19     20     37     1  180.0000000  13.6752988  2
     18     21     22     39     1  0.0000000  3.6211260  1
     18     21     22     39     1  180.0000000  2.6892027  2
     18     21     22     39     1  0.0000000  1.0633326  3
     18     21     22     39     1  180.0000000  0.8877046  4
     18     21     22     45     1  0.0000000  -5.5242308  1
     18     21     22     45     1  180.0000000  2.1814402  2
     18     21     22     45     1  0.0000000  -0.4115517  3
     18     21     22     45     1  180.0000000  -0.5209938  4
     18     21     23     40     1  0.0000000  0.6020980  3
     18     21     23     41     1  0.0000000  0.6020980  3
     18     21     23     42     1  0.0000000  0.6020980  3
     19     18     17     35     1  180.0000000  13.6752988  2
     19     18     21     22     1  0.0000000  0.1819029  1
     19     18     21     22     1  180.0000000  1.4046129  2
     19     18     21     22     1  0.0000000  0.0433856  3
     19     18     21     22     1  180.0000000  -0.1854357  4
     19     18     21     23     1  0.0000000  -0.0441245  1
     19     18     21     23     1  180.0000000  -0.1207984  2
     19     18     21     23     1  0.0000000  0.0370416  3
     19     18     21     23     1  180.0000000  -0.1571385  4
     19     18     21     38     1  0.0000000  -0.1423639  1
     19     18     21     38     1  180.0000000  -0.8556020  2
     19     18     21     38     1  0.0000000  0.0370576  3
     19     18     21     38     1  180.0000000  -0.0121113  4
     20     15     16     34     1  180.0000000  13.6752988  2
     20     19     18     21     1  180.0000000  13.6752988  2
     21     18     17     35     1  180.0000000  13.6752988  2
     21     18     19     36     1  180.0000000  13.6752988  2
     21     22     45     46     1  0.0000000  -1.8191765  1
     21     22     45     46     1  180.0000000  9.7875089  2
     21     22     45     46     1  0.0000000  0.7267374  3
     21     22     45     46     1  180.0000000  -0.7108299  4
     21     22     45     47     1  0.0000000  0.6798198  1
     21     22     45     47     1  180.0000000  8.7873210  2
     21     22     45     47     1  0.0000000  1.3338300  3
     21     22     45     47     1  180.0000000  1.9960785  4
     22     21     23     40     1  0.0000000  0.6020980  3
     22     21     23     41     1  0.0000000  0.6020980  3
     22     21     23     42     1  0.0000000  0.6020980  3
     22     45     47     48     1  0.0000000  -0.0317102  1
     22     45     47     48     1  180.0000000  4.1930651  2
     22     45     47     48     1  0.0000000  -0.0361255  3
     22     45     47     48     1  180.0000000  0.1387808  4
     22     45     47     69     1  0.0000000  -0.0317102  1
     22     45     47     69     1  180.0000000  4.1930651  2
     22     45     47     69     1  0.0000000  -0.0361255  3
     22     45     47     69     1  180.0000000  0.1387808  4
     23     21     22     39     1  0.0000000  -1.5937453  1
     23     21     22     39     1  180.0000000  0.5263548  2
     23     21     22     39     1  0.0000000  1.4196564  3
     23     21     22     39     1  180.0000000  -0.6765582  4
     23     21     22     45     1  0.0000000  -0.3672460  1
     23     21     22     45     1  180.0000000  0.3064322  2
     23     21     22     45     1  0.0000000  -1.4581002  3
     23     21     22     45     1  180.0000000  0.1116682  4
     24      6      5     27     1  180.0000000  13.6752988  2
     25      3      1    178     1  0.0000000  -0.1019036  1
     25      3      1    178     1  180.0000000  2.0872949  2
     25      3      1    178     1  0.0000000  -0.1934998  3
     25      3      1    178     1  180.0000000  -0.0919353  4
     25      3      4     26     1  180.0000000  13.6752988  2
     26      4      5     27     1  180.0000000  13.6752988  2
     32     13     14     33     1  180.0000000  13.6752988  2
     34     16     17     35     1  180.0000000  13.6752988  2
     36     19     20     37     1  180.0000000  13.6752988  2
     38     21     22     39     1  0.0000000  -2.2201910  1
     38     21     22     39     1  180.0000000  0.9906596  2
     38     21     22     39     1  0.0000000  1.2133069  3
     38     21     22     39     1  180.0000000  -0.3717423  4
     38     21     22     45     1  0.0000000  3.0861399  1
     38     21     22     45     1  180.0000000  0.1427616  2
     38     21     22     45     1  0.0000000  0.5083567  3
     38     21     22     45     1  180.0000000  0.1908324  4
     38     21     23     40     1  0.0000000  0.9539296  3
     38     21     23     41     1  0.0000000  0.9539296  3
     38     21     23     42     1  0.0000000  0.9539296  3
     39     22     45     46     1  0.0000000  4.0370220  1
     39     22     45     46     1  180.0000000  5.3027549  2
     39     22     45     46     1  0.0000000  -0.0623712  3
     39     22     45     46     1  180.0000000  -0.7281378  4
     39     22     45     47     1  0.0000000  2.5465551  1
     39     22     45     47     1  180.0000000  9.2023970  2
     39     22     45     47     1  0.0000000  0.1544897  3
     39     22     45     47     1  180.0000000  0.6382211  4
     43     24     25     44     1  180.0000000  13.6752988  2
     45     47     48     49     1  180.0000000  13.6752988  2
     45     47     48     70     1  180.0000000  13.6752988  2
     45     47     69     68     1  180.0000000  13.6752988  2
     45     47     69     88     1  180.0000000  13.6752988  2
     46     45     47     48     1  0.0000000  0.0186170  1
     46     45     47     48     1  180.0000000  -0.2222081  2
     46     45     47     48     1  0.0000000  0.0829403  3
     46     45     47     48     1  180.0000000  0.3230069  4
     46     45     47     69     1  0.0000000  0.0186170  1
     46     45     47     69     1  180.0000000  -0.2222081  2
     46     45     47     69     1  0.0000000  0.0829403  3
     46     45     47     69     1  180.0000000  0.3230069  4
     47     48     49     50     1  180.0000000  13.6752988  2
     47     48     49     71     1  180.0000000  13.6752988  2
     47     69     68     50     1  180.0000000  13.6752988  2
     47     69     68     87     1  180.0000000  13.6752988  2
     48     47     69     68     1  180.0000000  13.6752988  2
     48     47     69     88     1  180.0000000  13.6752988  2
     48     49     50     51     1  180.0000000  13.6752988  2
     48     49     50     68     1  180.0000000  13.6752988  2
     49     48     47     69     1  180.0000000  13.6752988  2
     49     50     51     52     1  0.0000000  -0.3038214  1
     49     50     51     52     1  180.0000000  5.6000185  2
     49     50     51     52     1  0.0000000  -0.3518823  3
     49     50     51     52     1  180.0000000  -0.2604576  4
     49     50     51     58     1  0.0000000  0.3308198  1
     49     50     51     58     1  180.0000000  6.2643591  2
     49     50     51     58     1  0.0000000  0.3689749  3
     49     50     51     58     1  180.0000000  2.0032598  4
     49     50     68     69     1  180.0000000  13.6752988  2
     49     50     68     87     1  180.0000000  13.6752988  2
     50     49     48     70     1  180.0000000  13.6752988  2
     50     51     52     53     1  180.0000000  13.6752988  2
     50     51     52     59     1  180.0000000  13.6752988  2
     50     51     58     57     1  180.0000000  13.6752988  2
     50     51     58     77     1  180.0000000  13.6752988  2
     50     68     69     88     1  180.0000000  13.6752988  2
     51     50     49     71     1  180.0000000  13.6752988  2
     51     50     68     69     1  180.0000000  13.6752988  2
     51     50     68     87     1  180.0000000  13.6752988  2
     51     52     53     54     1  180.0000000  13.6752988  2
     51     52     53     72     1  180.0000000  13.6752988  2
     51     52     59     60     1  180.0000000  5.1777217  2
     51     52     59     64     1  180.0000000  5.1777217  2
     51     58     57     54     1  180.0000000  13.6752988  2
     51     58     57     76     1  180.0000000  13.6752988  2
     52     51     50     68     1  0.0000000  -0.3038214  1
     52     51     50     68     1  180.0000000  5.6000185  2
     52     51     50     68     1  0.0000000  -0.3518823  3
     52     51     50     68     1  180.0000000  -0.2604576  4
     52     51     58     57     1  180.0000000  13.6752988  2
     52     51     58     77     1  180.0000000  13.6752988  2
     52     53     54     55     1  180.0000000  13.6752988  2
     52     53     54     57     1  180.0000000  13.6752988  2
     52     59     60     61     1  180.0000000  13.6752988  2
     52     59     60     78     1  180.0000000  13.6752988  2
     52     59     64     63     1  180.0000000  13.6752988  2
     52     59     64     81     1  180.0000000  13.6752988  2
     53     52     51     58     1  180.0000000  13.6752988  2
     53     52     59     60     1  180.0000000  5.1777217  2
     53     52     59     64     1  180.0000000  5.1777217  2
     53     54     55     56     1  0.0000000  0.2302840  1
     53     54     55     56     1  180.0000000  9.7411201  2
     53     54     55     56     1  0.0000000  1.1499816  3
     53     54     55     56     1  180.0000000  0.6724526  4
     53     54     57     58     1  180.0000000  13.6752988  2
     53     54     57     76     1  180.0000000  13.6752988  2
     54     53     52     59     1  180.0000000  13.6752988  2
     54     55     56     73     1  0.0000000  1.1008580  3
     54     55     56     74     1  0.0000000  1.1008580  3
     54     55     56     75     1  0.0000000  1.1008580  3
     54     57     58     77     1  180.0000000  13.6752988  2
     55     54     53     72     1  180.0000000  13.6752988  2
     55     54     57     58     1  180.0000000  13.6752988  2
     55     54     57     76     1  180.0000000  13.6752988  2
     56     55     54     57     1  0.0000000  0.2302840  1
     56     55     54     57     1  180.0000000  9.7411201  2
     56     55     54     57     1  0.0000000  1.1499816  3
     56     55     54     57     1  180.0000000  0.6724526  4
     57     54     53     72     1  180.0000000  13.6752988  2
     58     51     50     68     1  0.0000000  0.3308198  1
     58     51     50     68     1  180.0000000  6.2643591  2
     58     51     50     68     1  0.0000000  0.3689749  3
     58     51     50     68     1  180.0000000  2.0032598  4
     58     51     52     59     1  180.0000000  13.6752988  2
     59     52     53     72     1  180.0000000  13.6752988  2
     59     60     61     62     1  180.0000000  13.6752988  2
     59     60     61     79     1  180.0000000  13.6752988  2
     59     64     63     62     1  180.0000000  13.6752988  2
     59     64     63     80     1  180.0000000  13.6752988  2
     60     59     64     63     1  180.0000000  13.6752988  2
     60     59     64     81     1  180.0000000  13.6752988  2
     60     61     62     63     1  180.0000000  13.6752988  2
     60     61     62     65     1  180.0000000  13.6752988  2
     61     60     59     64     1  180.0000000  13.6752988  2
     61     62     63     64     1  180.0000000  13.6752988  2
     61     62     63     80     1  180.0000000  13.6752988  2
     61     62     65     66     1  0.0000000  0.1819029  1
     61     62     65     66     1  180.0000000  1.4046129  2
     61     62     65     66     1  0.0000000  0.0433856  3
     61     62     65     66     1  180.0000000  -0.1854357  4
     61     62     65     67     1  0.0000000  -0.0441245  1
     61     62     65     67     1  180.0000000  -0.1207984  2
     61     62     65     67     1  0.0000000  0.0370416  3
     61     62     65     67     1  180.0000000  -0.1571385  4
     61     62     65     82     1  0.0000000  -0.1423639  1
     61     62     65     82     1  180.0000000  -0.8556020  2
     61     62     65     82     1  0.0000000  0.0370576  3
     61     62     65     82     1  180.0000000  -0.0121113  4
     62     61     60     78     1  180.0000000  13.6752988  2
     62     63     64     81     1  180.0000000  13.6752988  2
     62     65     66     83     1  0.0000000  3.6211260  1
     62     65     66     83     1  180.0000000  2.6892027  2
     62     65     66     83     1  0.0000000  1.0633326  3
     62     65     66     83     1  180.0000000  0.8877046  4
     62     65     66     89     1  0.0000000  -5.5242308  1
     62     65     66     89     1  180.0000000  2.1814402  2
     62     65     66     89     1  0.0000000  -0.4115517  3
     62     65     66     89     1  180.0000000  -0.5209938  4
     62     65     67     84     1  0.0000000  0.6020980  3
     62     65     67     85     1  0.0000000  0.6020980  3
     62     65     67     86     1  0.0000000  0.6020980  3
     63     62     61     79     1  180.0000000  13.6752988  2
     63     62     65     66     1  0.0000000  0.1819029  1
     63     62     65     66     1  180.0000000  1.4046129  2
     63     62     65     66     1  0.0000000  0.0433856  3
     63     62     65     66     1  180.0000000  -0.1854357  4
     63     62     65     67     1  0.0000000  -0.0441245  1
     63     62     65     67     1  180.0000000  -0.1207984  2
     63     62     65     67     1  0.0000000  0.0370416  3
     63     62     65     67     1  180.0000000  -0.1571385  4
     63     62     65     82     1  0.0000000  -0.1423639  1
     63     62     65     82     1  180.0000000  -0.8556020  2
     63     62     65     82     1  0.0000000  0.0370576  3
     63     62     65     82     1  180.0000000  -0.0121113  4
     64     59     60     78     1  180.0000000  13.6752988  2
     64     63     62     65     1  180.0000000  13.6752988  2
     65     62     61     79     1  180.0000000  13.6752988  2
     65     62     63     80     1  180.0000000  13.6752988  2
     65     66     89     90     1  0.0000000  -1.8191765  1
     65     66     89     90     1  180.0000000  9.7875089  2
     65     66     89     90     1  0.0000000  0.7267374  3
     65     66     89     90     1  180.0000000  -0.7108299  4
     65     66     89     91     1  0.0000000  0.6798198  1
     65     66     89     91     1  180.0000000  8.7873210  2
     65     66     89     91     1  0.0000000  1.3338300  3
     65     66     89     91     1  180.0000000  1.9960785  4
     66     65     67     84     1  0.0000000  0.6020980  3
     66     65     67     85     1  0.0000000  0.6020980  3
     66     65     67     86     1  0.0000000  0.6020980  3
     66     89     91     92     1  0.0000000  -0.0317102  1
     66     89     91     92     1  180.0000000  4.1930651  2
     66     89     91     92     1  0.0000000  -0.0361255  3
     66     89     91     92     1  180.0000000  0.1387808  4
     66     89     91    113     1  0.0000000  -0.0317102  1
     66     89     91    113     1  180.0000000  4.1930651  2
     66     89     91    113     1  0.0000000  -0.0361255  3
     66     89     91    113     1  180.0000000  0.1387808  4
     67     65     66     83     1  0.0000000  -1.5937453  1
     67     65     66     83     1  180.0000000  0.5263548  2
     67     65     66     83     1  0.0000000  1.4196564  3
     67     65     66     83     1  180.0000000  -0.6765582  4
     67     65     66     89     1  0.0000000  -0.3672460  1
     67     65     66     89     1  180.0000000  0.3064322  2
     67     65     66     89     1  0.0000000  -1.4581002  3
     67     65     66     89     1  180.0000000  0.1116682  4
     68     50     49     71     1  180.0000000  13.6752988  2
     69     47     48     70     1  180.0000000  13.6752988  2
     70     48     49     71     1  180.0000000  13.6752988  2
     76     57     58     77     1  180.0000000  13.6752988  2
     78     60     61     79     1  180.0000000  13.6752988  2
     80     63     64     81     1  180.0000000  13.6752988  2
     82     65     66     83     1  0.0000000  -2.2201910  1
     82     65     66     83     1  180.0000000  0.9906596  2
     82     65     66     83     1  0.0000000  1.2133069  3
     82     65     66     83     1  180.0000000  -0.3717423  4
     82     65     66     89     1  0.0000000  3.0861399  1
     82     65     66     89     1  180.0000000  0.1427616  2
     82     65     66     89     1  0.0000000  0.5083567  3
     82     65     66     89     1  180.0000000  0.1908324  4
     82     65     67     84     1  0.0000000  0.9539296  3
     82     65     67     85     1  0.0000000  0.9539296  3
     82     65     67     86     1  0.0000000  0.9539296  3
     83     66     89     90     1  0.0000000  4.0370220  1
     83     66     89     90     1  180.0000000  5.3027549  2
     83     66     89     90     1  0.0000000  -0.0623712  3
     83     66     89     90     1  180.0000000  -0.7281378  4
     83     66     89     91     1  0.0000000  2.5465551  1
     83     66     89     91     1  180.0000000  9.2023970  2
     83     66     89     91     1  0.0000000  0.1544897  3
     83     66     89     91     1  180.0000000  0.6382211  4
     87     68     69     88     1  180.0000000  13.6752988  2
     89     91     92     93     1  180.0000000  13.6752988  2
     89     91     92    114     1  180.0000000  13.6752988  2
     89     91    113    112     1  180.0000000  13.6752988  2
     89     91    113    132     1  180.0000000  13.6752988  2
     90     89     91     92     1  0.0000000  0.0186170  1
     90     89     91     92     1  180.0000000  -0.2222081  2
     90     89     91     92     1  0.0000000  0.0829403  3
     90     89     91     92     1  180.0000000  0.3230069  4
     90     89     91    113     1  0.0000000  0.0186170  1
     90     89     91    113     1  180.0000000  -0.2222081  2
     90     89     91    113     1  0.0000000  0.0829403  3
     90     89     91    113     1  180.0000000  0.3230069  4
     91     92     93     94     1  180.0000000  13.6752988  2
     91     92     93    115     1  180.0000000  13.6752988  2
     91    113    112     94     1  180.0000000  13.6752988  2
     91    113    112    131     1  180.0000000  13.6752988  2
     92     91    113    112     1  180.0000000  13.6752988  2
     92     91    113    132     1  180.0000000  13.6752988  2
     92     93     94     95     1  180.0000000  13.6752988  2
     92     93     94    112     1  180.0000000  13.6752988  2
     93     92     91    113     1  180.0000000  13.6752988  2
     93     94     95     96     1  0.0000000  -0.3038214  1
     93     94     95     96     1  180.0000000  5.6000185  2
     93     94     95     96     1  0.0000000  -0.3518823  3
     93     94     95     96     1  180.0000000  -0.2604576  4
     93     94     95    102     1  0.0000000  0.3308198  1
     93     94     95    102     1  180.0000000  6.2643591  2
     93     94     95    102     1  0.0000000  0.3689749  3
     93     94     95    102     1  180.0000000  2.0032598  4
     93     94    112    113     1  180.0000000  13.6752988  2
     93     94    112    131     1  180.0000000  13.6752988  2
     94     93     92    114     1  180.0000000  13.6752988  2
     94     95     96     97     1  180.0000000  13.6752988  2
     94     95     96    103     1  180.0000000  13.6752988  2
     94     95    102    101     1  180.0000000  13.6752988  2
     94     95    102    121     1  180.0000000  13.6752988  2
     94    112    113    132     1  180.0000000  13.6752988  2
     95     94     93    115     1  180.0000000  13.6752988  2
     95     94    112    113     1  180.0000000  13.6752988  2
     95     94    112    131     1  180.0000000  13.6752988  2
     95     96     97     98     1  180.0000000  13.6752988  2
     95     96     97    116     1  180.0000000  13.6752988  2
     95     96    103    104     1  180.0000000  5.1777217  2
     95     96    103    108     1  180.0000000  5.1777217  2
     95    102    101     98     1  180.0000000  13.6752988  2
     95    102    101    120     1  180.0000000  13.6752988  2
     96     95     94    112     1  0.0000000  -0.3038214  1
     96     95     94    112     1  180.0000000  5.6000185  2
     96     95     94    112     1  0.0000000  -0.3518823  3
     96     95     94    112     1  180.0000000  -0.2604576  4
     96     95    102    101     1  180.0000000  13.6752988  2
     96     95    102    121     1  180.0000000  13.6752988  2
     96     97     98     99     1  180.0000000  13.6752988  2
     96     97     98    101     1  180.0000000  13.6752988  2
     96    103    104    105     1  180.0000000  13.6752988  2
     96    103    104    122     1  180.0000000  13.6752988  2
     96    103    108    107     1  180.0000000  13.6752988  2
     96    103    108    125     1  180.0000000  13.6752988  2
     97     96     95    102     1  180.0000000  13.6752988  2
     97     96    103    104     1  180.0000000  5.1777217  2
     97     96    103    108     1  180.0000000  5.1777217  2
     97     98     99    100     1  0.0000000  0.2302840  1
     97     98     99    100     1  180.0000000  9.7411201  2
     97     98     99    100     1  0.0000000  1.1499816  3
     97     98     99    100     1  180.0000000  0.6724526  4
     97     98    101    102     1  180.0000000  13.6752988  2
     97     98    101    120     1  180.0000000  13.6752988  2
     98     97     96    103     1  180.0000000  13.6752988  2
     98     99    100    117     1  0.0000000  1.1008580  3
     98     99    100    118     1  0.0000000  1.1008580  3
     98     99    100    119     1  0.0000000  1.1008580  3
     98    101    102    121     1  180.0000000  13.6752988  2
     99     98     97    116     1  180.0000000  13.6752988  2
     99     98    101    102     1  180.0000000  13.6752988  2
     99     98    101    120     1  180.0000000  13.6752988  2
    100     99     98    101     1  0.0000000  0.2302840  1
    100     99     98    101     1  180.0000000  9.7411201  2
    100     99     98    101     1  0.0000000  1.1499816  3
    100     99     98    101     1  180.0000000  0.6724526  4
    101     98     97    116     1  180.0000000  13.6752988  2
    102     95     94    112     1  0.0000000  0.3308198  1
    102     95     94    112     1  180.0000000  6.2643591  2
    102     95     94    112     1  0.0000000  0.3689749  3
    102     95     94    112     1  180.0000000  2.0032598  4
    102     95     96    103     1  180.0000000  13.6752988  2
    103     96     97    116     1  180.0000000  13.6752988  2
    103    104    105    106     1  180.0000000  13.6752988  2
    103    104    105    123     1  180.0000000  13.6752988  2
    103    108    107    106     1  180.0000000  13.6752988  2
    103    108    107    124     1  180.0000000  13.6752988  2
    104    103    108    107     1  180.0000000  13.6752988  2
    104    103    108    125     1  180.0000000  13.6752988  2
    104    105    106    107     1  180.0000000  13.6752988  2
    104    105    106    109     1  180.0000000  13.6752988  2
    105    104    103    108     1  180.0000000  13.6752988  2
    105    106    107    108     1  180.0000000  13.6752988  2
    105    106    107    124     1  180.0000000  13.6752988  2
    105    106    109    110     1  0.0000000  0.1819029  1
    105    106    109    110     1  180.0000000  1.4046129  2
    105    106    109    110     1  0.0000000  0.0433856  3
    105    106    109    110     1  180.0000000  -0.1854357  4
    105    106    109    111     1  0.0000000  -0.0441245  1
    105    106    109    111     1  180.0000000  -0.1207984  2
    105    106    109    111     1  0.0000000  0.0370416  3
    105    106    109    111     1  180.0000000  -0.1571385  4
    105    106    109    126     1  0.0000000  -0.1423639  1
    105    106    109    126     1  180.0000000  -0.8556020  2
    105    106    109    126     1  0.0000000  0.0370576  3
    105    106    109    126     1  180.0000000  -0.0121113  4
    106    105    104    122     1  180.0000000  13.6752988  2
    106    107    108    125     1  180.0000000  13.6752988  2
    106    109    110    127     1  0.0000000  3.6211260  1
    106    109    110    127     1  180.0000000  2.6892027  2
    106    109    110    127     1  0.0000000  1.0633326  3
    106    109    110    127     1  180.0000000  0.8877046  4
    106    109    110    133     1  0.0000000  -5.5242308  1
    106    109    110    133     1  180.0000000  2.1814402  2
    106    109    110    133     1  0.0000000  -0.4115517  3
    106    109    110    133     1  180.0000000  -0.5209938  4
    106    109    111    128     1  0.0000000  0.6020980  3
    106    109    111    129     1  0.0000000  0.6020980  3
    106    109    111    130     1  0.0000000  0.6020980  3
    107    106    105    123     1  180.0000000  13.6752988  2
    107    106    109    110     1  0.0000000  0.1819029  1
    107    106    109    110     1  180.0000000  1.4046129  2
    107    106    109    110     1  0.0000000  0.0433856  3
    107    106    109    110     1  180.0000000  -0.1854357  4
    107    106    109    111     1  0.0000000  -0.0441245  1
    107    106    109    111     1  180.0000000  -0.1207984  2
    107    106    109    111     1  0.0000000  0.0370416  3
    107    106    109    111     1  180.0000000  -0.1571385  4
    107    106    109    126     1  0.0000000  -0.1423639  1
    107    106    109    126     1  180.0000000  -0.8556020  2
    107    106    109    126     1  0.0000000  0.0370576  3
    107    106    109    126     1  180.0000000  -0.0121113  4
    108    103    104    122     1  180.0000000  13.6752988  2
    108    107    106    109     1  180.0000000  13.6752988  2
    109    106    105    123     1  180.0000000  13.6752988  2
    109    106    107    124     1  180.0000000  13.6752988  2
    109    110    133    134     1  0.0000000  -1.8191765  1
    109    110    133    134     1  180.0000000  9.7875089  2
    109    110    133    134     1  0.0000000  0.7267374  3
    109    110    133    134     1  180.0000000  -0.7108299  4
    109    110    133    135     1  0.0000000  0.6798198  1
    109    110    133    135     1  180.0000000  8.7873210  2
    109    110    133    135     1  0.0000000  1.3338300  3
    109    110    133    135     1  180.0000000  1.9960785  4
    110    109    111    128     1  0.0000000  0.6020980  3
    110    109    111    129     1  0.0000000  0.6020980  3
    110    109    111    130     1  0.0000000  0.6020980  3
    110    133    135    136     1  0.0000000  -0.0317102  1
    110    133    135    136     1  180.0000000  4.1930651  2
    110    133    135    136     1  0.0000000  -0.0361255  3
    110    133    135    136     1  180.0000000  0.1387808  4
    110    133    135    157     1  0.0000000  -0.0317102  1
    110    133    135    157     1  180.0000000  4.1930651  2
    110    133    135    157     1  0.0000000  -0.0361255  3
    110    133    135    157     1  180.0000000  0.1387808  4
    111    109    110    127     1  0.0000000  -1.5937453  1
    111    109    110    127     1  180.0000000  0.5263548  2
    111    109    110    127     1  0.0000000  1.4196564  3
    111    109    110    127     1  180.0000000  -0.6765582  4
    111    109    110    133     1  0.0000000  -0.3672460  1
    111    109    110    133     1  180.0000000  0.3064322  2
    111    109    110    133     1  0.0000000  -1.4581002  3
    111    109    110    133     1  180.0000000  0.1116682  4
    112     94     93    115     1  180.0000000  13.6752988  2
    113     91     92    114     1  180.0000000  13.6752988  2
    114     92     93    115     1  180.0000000  13.6752988  2
    120    101    102    121     1  180.0000000  13.6752988  2
    122    104    105    123     1  180.0000000  13.6752988  2
    124    107    108    125     1  180.0000000  13.6752988  2
    126    109    110    127     1  0.0000000  -2.2201910  1
    126    109    110    127     1  180.0000000  0.9906596  2
    126    109    110    127     1  0.0000000  1.2133069  3
    126    109    110    127     1  180.0000000  -0.3717423  4
    126    109    110    133     1  0.0000000  3.0861399  1
    126    109    110    133     1  180.0000000  0.1427616  2
    126    109    110    133     1  0.0000000  0.5083567  3
    126    109    110    133     1  180.0000000  0.1908324  4
    126    109    111    128     1  0.0000000  0.9539296  3
    126    109    111    129     1  0.0000000  0.9539296  3
    126    109    111    130     1  0.0000000  0.9539296  3
    127    110    133    134     1  0.0000000  4.0370220  1
    127    110    133    134     1  180.0000000  5.3027549  2
    127    110    133    134     1  0.0000000  -0.0623712  3
    127    110    133    134     1  180.0000000  -0.7281378  4
    127    110    133    135     1  0.0000000  2.5465551  1
    127    110    133    135     1  180.0000000  9.2023970  2
    127    110    133    135     1  0.0000000  0.1544897  3
    127    110    133    135     1  180.0000000  0.6382211  4
    131    112    113    132     1  180.0000000  13.6752988  2
    133    135    136    137     1  180.0000000  13.6752988  2
    133    135    136    158     1  180.0000000  13.6752988  2
    133    135    157    156     1  180.0000000  13.6752988  2
    133    135    157    176     1  180.0000000  13.6752988  2
    134    133    135    136     1  0.0000000  0.0186170  1
    134    133    135    136     1  180.0000000  -0.2222081  2
    134    133    135    136     1  0.0000000  0.0829403  3
    134    133    135    136     1  180.0000000  0.3230069  4
    134    133    135    157     1  0.0000000  0.0186170  1
    134    133    135    157     1  180.0000000  -0.2222081  2
    134    133    135    157     1  0.0000000  0.0829403  3
    134    133    135    157     1  180.0000000  0.3230069  4
    135    136    137    138     1  180.0000000  13.6752988  2
    135    136    137    159     1  180.0000000  13.6752988  2
    135    157    156    138     1  180.0000000  13.6752988  2
    135    157    156    175     1  180.0000000  13.6752988  2
    136    135    157    156     1  180.0000000  13.6752988  2
    136    135    157    176     1  180.0000000  13.6752988  2
    136    137    138    139     1  180.0000000  13.6752988  2
    136    137    138    156     1  180.0000000  13.6752988  2
    137    136    135    157     1  180.0000000  13.6752988  2
    137    138    139    140     1  0.0000000  -0.3038214  1
    137    138    139    140     1  180.0000000  5.6000185  2
    137    138    139    140     1  0.0000000  -0.3518823  3
    137    138    139    140     1  180.0000000  -0.2604576  4
    137    138    139    146     1  0.0000000  0.3308198  1
    137    138    139    146     1  180.0000000  6.2643591  2
    137    138    139    146     1  0.0000000  0.3689749  3
    137    138    139    146     1  180.0000000  2.0032598  4
    137    138    156    157     1  180.0000000  13.6752988  2
    137    138    156    175     1  180.0000000  13.6752988  2
    138    137    136    158     1  180.0000000  13.6752988  2
    138    139    140    141     1  180.0000000  13.6752988  2
    138    139    140    147     1  180.0000000  13.6752988  2
    138    139    146    145     1  180.0000000  13.6752988  2
    138    139    146    165     1  180.0000000  13.6752988  2
    138    156    157    176     1  180.0000000  13.6752988  2
    139    138    137    159     1  180.0000000  13.6752988  2
    139    138    156    157     1  180.0000000  13.6752988  2
    139    138    156    175     1  180.0000000  13.6752988  2
    139    140    141    142     1  180.0000000  13.6752988  2
    139    140    141    160     1  180.0000000  13.6752988  2
    139    140    147    148     1  180.0000000  5.1777217  2
    139    140    147    152     1  180.0000000  5.1777217  2
    139    146    145    142     1  180.0000000  13.6752988  2
    139    146    145    164     1  180.0000000  13.6752988  2
    140    139    138    156     1  0.0000000  -0.3038214  1
    140    139    138    156     1  180.0000000  5.6000185  2
    140    139    138    156     1  0.0000000  -0.3518823  3
    140    139    138    156     1  180.0000000  -0.2604576  4
    140    139    146    145     1  180.0000000  13.6752988  2
    140    139    146    165     1  180.0000000  13.6752988  2
    140    141    142    143     1  180.0000000  13.6752988  2
    140    141    142    145     1  180.0000000  13.6752988  2
    140    147    148    149     1  180.0000000  13.6752988  2
    140    147    148    166     1  180.0000000  13.6752988  2
    140    147    152    151     1  180.0000000  13.6752988  2
    140    147    152    169     1  180.0000000  13.6752988  2
    141    140    139    146     1  180.0000000  13.6752988  2
    141    140    147    148     1  180.0000000  5.1777217  2
    141    140    147    152     1  180.0000000  5.1777217  2
    141    142    143    144     1  0.0000000  0.2302840  1
    141    142    143    144     1  180.0000000  9.7411201  2
    141    142    143    144     1  0.0000000  1.1499816  3
    141    142    143    144     1  180.0000000  0.6724526  4
    141    142    145    146     1  180.0000000  13.6752988  2
    141    142    145    164     1  180.0000000  13.6752988  2
    142    141    140    147     1  180.0000000  13.6752988  2
    142    143    144    161     1  0.0000000  1.1008580  3
    142    143    144    162     1  0.0000000  1.1008580  3
    142    143    144    163     1  0.0000000  1.1008580  3
    142    145    146    165     1  180.0000000  13.6752988  2
    143    142    141    160     1  180.0000000  13.6752988  2
    143    142    145    146     1  180.0000000  13.6752988  2
    143    142    145    164     1  180.0000000  13.6752988  2
    144    143    142    145     1  0.0000000  0.2302840  1
    144    143    142    145     1  180.0000000  9.7411201  2
    144    143    142    145     1  0.0000000  1.1499816  3
    144    143    142    145     1  180.0000000  0.6724526  4
    145    142    141    160     1  180.0000000  13.6752988  2
    146    139    138    156     1  0.0000000  0.3308198  1
    146    139    138    156     1  180.0000000  6.2643591  2
    146    139    138    156     1  0.0000000  0.3689749  3
    146    139    138    156     1  180.0000000  2.0032598  4
    146    139    140    147     1  180.0000000  13.6752988  2
    147    140    141    160     1  180.0000000  13.6752988  2
    147    148    149    150     1  180.0000000  13.6752988  2
    147    148    149    167     1  180.0000000  13.6752988  2
    147    152    151    150     1  180.0000000  13.6752988  2
    147    152    151    168     1  180.0000000  13.6752988  2
    148    147    152    151     1  180.0000000  13.6752988  2
    148    147    152    169     1  180.0000000  13.6752988  2
    148    149    150    151     1  180.0000000  13.6752988  2
    148    149    150    153     1  180.0000000  13.6752988  2
    149    148    147    152     1  180.0000000  13.6752988  2
    149    150    151    152     1  180.0000000  13.6752988  2
    149    150    151    168     1  180.0000000  13.6752988  2
    149    150    153    154     1  0.0000000  0.1587071  1
    149    150    153    154     1  180.0000000  1.0538456  2
    149    150    153    154     1  0.0000000  0.2749402  3
    149    150    153    154     1  180.0000000  0.1870037  4
    149    150    153    155     1  0.0000000  -0.0652362  1
    149    150    153    155     1  180.0000000  0.0278934  2
    149    150    153    155     1  0.0000000  0.2796747  3
    149    150    153    155     1  180.0000000  0.1926726  4
    149    150    153    170     1  0.0000000  -0.0963463  1
    149    150    153    170     1  180.0000000  -0.7476453  2
    149    150    153    170     1  0.0000000  0.2754672  3
    149    150    153    170     1  180.0000000  0.2970790  4
    150    149    148    166     1  180.0000000  13.6752988  2
    150    151    152    169     1  180.0000000  13.6752988  2
    150    153    154    171     1  0.0000000  2.5293837  1
    150    153    154    171     1  180.0000000  1.2025364  2
    150    153    154    171     1  0.0000000  0.4976631  3
    150    153    154    171     1  180.0000000  0.1590360  4
    150    153    154    187     1  0.0000000  -4.7003336  1
    150    153    154    187     1  180.0000000  2.3497038  2
    150    153    154    187     1  0.0000000  -1.0745989  3
    150    153    154    187     1  180.0000000  -0.1683666  4
    150    153    155    172     1  0.0000000  0.6020980  3
    150    153    155    173     1  0.0000000  0.6020980  3
    150    153    155    174     1  0.0000000  0.6020980  3
    151    150    149    167     1  180.0000000  13.6752988  2
    151    150    153    154     1  0.0000000  0.1587071  1
    151    150    153    154     1  180.0000000  1.0538456  2
    151    150    153    154     1  0.0000000  0.2749402  3
    151    150    153    154     1  180.0000000  0.1870037  4
    151    150    153    155     1  0.0000000  -0.0652362  1
    151    150    153    155     1  180.0000000  0.0278934  2
    151    150    153    155     1  0.0000000  0.2796747  3
    151    150    153    155     1  180.0000000  0.1926726  4
    151    150    153    170     1  0.0000000  -0.0963463  1
    151    150    153    170     1  180.0000000  -0.7476453  2
    151    150    153    170     1  0.0000000  0.2754672  3
    151    150    153    170     1  180.0000000  0.2970790  4
    152    147    148    166     1  180.0000000  13.6752988  2
    152    151    150    153     1  180.0000000  13.6752988  2
    153    150    149    167     1  180.0000000  13.6752988  2
    153    150    151    168     1  180.0000000  13.6752988  2
    153    154    187    186     1  0.0000000  1.0465721  1
    153    154    187    186     1  180.0000000  8.4673531  2
    153    154    187    186     1  0.0000000  0.2248201  3
    153    154    187    186     1  180.0000000  -0.4160573  4
    153    154    187    188     1  0.0000000  1.2368313  1
    153    154    187    188     1  180.0000000  8.0066485  2
    153    154    187    188     1  0.0000000  1.4691987  3
    153    154    187    188     1  180.0000000  -1.2411875  4
    154    153    155    172     1  0.0000000  0.6020980  3
    154    153    155    173     1  0.0000000  0.6020980  3
    154    153    155    174     1  0.0000000  0.6020980  3
    154    187    186    183     1  0.0000000  1.6732541  1
    154    187    186    183     1  180.0000000  18.3750135  2
    154    187    186    183     1  0.0000000  -0.1983272  3
    154    187    186    183     1  180.0000000  2.1115580  4
    155    153    154    171     1  0.0000000  -1.6224945  1
    155    153    154    171     1  180.0000000  1.5898435  2
    155    153    154    171     1  0.0000000  0.7222559  3
    155    153    154    171     1  180.0000000  0.0315042  4
    155    153    154    187     1  0.0000000  -0.7150049  1
    155    153    154    187     1  180.0000000  -0.1797722  2
    155    153    154    187     1  0.0000000  -1.5673250  3
    155    153    154    187     1  180.0000000  -0.4871587  4
    156    138    137    159     1  180.0000000  13.6752988  2
    157    135    136    158     1  180.0000000  13.6752988  2
    158    136    137    159     1  180.0000000  13.6752988  2
    164    145    146    165     1  180.0000000  13.6752988  2
    166    148    149    167     1  180.0000000  13.6752988  2
    168    151    152    169     1  180.0000000  13.6752988  2
    170    153    154    171     1  0.0000000  -1.0746218  1
    170    153    154    171     1  180.0000000  1.4145125  2
    170    153    154    171     1  0.0000000  0.5489951  3
    170    153    154    171     1  180.0000000  -0.2125456  4
    170    153    154    187     1  0.0000000  2.6045120  1
    170    153    154    187     1  180.0000000  0.5515412  2
    170    153    154    187     1  0.0000000  0.0831507  3
    170    153    154    187     1  180.0000000  0.0774670  4
    170    153    155    172     1  0.0000000  0.9539296  3
    170    153    155    173     1  0.0000000  0.9539296  3
    170    153    155    174     1  0.0000000  0.9539296  3
    171    154    187    186     1  0.0000000  2.0148441  1
    171    154    187    186     1  180.0000000  8.6115073  2
    171    154    187    186     1  0.0000000  -0.1526698  3
    171    154    187    186     1  180.0000000  -1.0588874  4
    171    154    187    188     1  0.0000000  4.7312414  1
    171    154    187    188     1  180.0000000  1.9617805  2
    171    154    187    188     1  0.0000000  1.1415158  3
    171    154    187    188     1  180.0000000  -1.7929243  4
    175    156    157    176     1  180.0000000  13.6752988  2
    182    183    184    192     1  0.0000000  0.4122821  3
    182    183    184    193     1  0.0000000  0.4122821  3
    182    183    184    194     1  0.0000000  0.4122821  3
    182    183    185    195     1  0.0000000  0.4122821  3
    182    183    185    196     1  0.0000000  0.4122821  3
    182    183    185    197     1  0.0000000  0.4122821  3
    182    183    186    187     1  0.0000000  1.5931627  1
    182    183    186    187     1  180.0000000  0.1738833  2
    182    183    186    187     1  0.0000000  -1.7466707  3
    182    183    186    187     1  180.0000000  1.2641785  4
    183    186    187    188     1  0.0000000  3.8746583  1
    183    186    187    188     1  180.0000000  4.7975892  2
    183    186    187    188     1  0.0000000  0.5220087  3
    183    186    187    188     1  180.0000000  0.6742821  4
    184    183    182    189     1  0.0000000  0.4122821  3
    184    183    182    190     1  0.0000000  0.4122821  3
    184    183    182    191     1  0.0000000  0.4122821  3
    184    183    185    195     1  0.0000000  0.4122821  3
    184    183    185    196     1  0.0000000  0.4122821  3
    184    183    185    197     1  0.0000000  0.4122821  3
    184    183    186    187     1  0.0000000  1.5931627  1
    184    183    186    187     1  180.0000000  0.1738833  2
    184    183    186    187     1  0.0000000  -1.7466707  3
    184    183    186    187     1  180.0000000  1.2641785  4
    185    183    182    189     1  0.0000000  0.4122821  3
    185    183    182    190     1  0.0000000  0.4122821  3
    185    183    182    191     1  0.0000000  0.4122821  3
    185    183    184    192     1  0.0000000  0.4122821  3
    185    183    184    193     1  0.0000000  0.4122821  3
    185    183    184    194     1  0.0000000  0.4122821  3
    185    183    186    187     1  0.0000000  1.5931627  1
    185    183    186    187     1  180.0000000  0.1738833  2
    185    183    186    187     1  0.0000000  -1.7466707  3
    185    183    186    187     1  180.0000000  1.2641785  4
    186    183    182    189     1  0.0000000  0.5486676  3
    186    183    182    189     1  0.0000000  1.8265113  1
    186    183    182    190     1  0.0000000  0.5486676  3
    186    183    182    190     1  0.0000000  1.8265113  1
    186    183    182    191     1  0.0000000  0.5486676  3
    186    183    182    191     1  0.0000000  1.8265113  1
    186    183    184    192     1  0.0000000  0.5486676  3
    186    183    184    192     1  0.0000000  1.8265113  1
    186    183    184    193     1  0.0000000  0.5486676  3
    186    183    184    193     1  0.0000000  1.8265113  1
    186    183    184    194     1  0.0000000  0.5486676  3
    186    183    184    194     1  0.0000000  1.8265113  1
    186    183    185    195     1  0.0000000  0.5486676  3
    186    183    185    195     1  0.0000000  1.8265113  1
    186    183    185    196     1  0.0000000  0.5486676  3
    186    183    185    196     1  0.0000000  1.8265113  1
    186    183    185    197     1  0.0000000  0.5486676  3
    186    183    185    197     1  0.0000000  1.8265113  1
     16     17     34     15     4  180.0000000  7.2952092  2
    110    109    127    133     4  180.0000000  1.7520674  2
    137    136    138    159     4  180.0000000  7.2952092  2
      1      2      3    178     4  180.0000000  18.0130916  2
    133    110    134    135     4  180.0000000  7.2952092  2
     15     16     20      8     4  180.0000000  7.2952092  2
     14      7     13     33     4  180.0000000  7.2952092  2
    105    104    106    123     4  180.0000000  7.2952092  2
     66     83     89     65     4  180.0000000  1.7520674  2
     59     64     52     60     4  180.0000000  7.2952092  2
     89     90     91     66     4  180.0000000  7.2952092  2
    107    106    108    124     4  180.0000000  7.2952092  2
     16     34     15     17     4  180.0000000  7.2952092  2
     49     48     50     71     4  180.0000000  7.2952092  2
     57     76     54     58     4  180.0000000  7.2952092  2
    138    139    156    137     4  180.0000000  7.2952092  2
      3      1      4     25     4  180.0000000  7.2952092  2
     54     55     57     53     4  180.0000000  7.2952092  2
     22     45     21     39     4  180.0000000  1.7520674  2
    103     96    104    108     4  180.0000000  7.2952092  2
     58     57     77     51     4  180.0000000  7.2952092  2
      4     26      3      5     4  180.0000000  7.2952092  2
     93     92     94    115     4  180.0000000  7.2952092  2
    157    176    135    156     4  180.0000000  7.2952092  2
     20     37     15     19     4  180.0000000  7.2952092  2
     98     99    101     97     4  180.0000000  7.2952092  2
     94     93     95    112     4  180.0000000  7.2952092  2
     96     97    103     95     4  180.0000000  7.2952092  2
     58     51     57     77     4  180.0000000  7.2952092  2
    139    146    138    140     4  180.0000000  7.2952092  2
     97     98    116     96     4  180.0000000  7.2952092  2
      1      3    178      2     4  180.0000000  18.0130916  2
    103    104    108     96     4  180.0000000  7.2952092  2
    137    138    159    136     4  180.0000000  7.2952092  2
    151    150    152    168     4  180.0000000  7.2952092  2
    113     91    112    132     4  180.0000000  7.2952092  2
    147    140    148    152     4  180.0000000  7.2952092  2
    148    147    149    166     4  180.0000000  7.2952092  2
     58     77     51     57     4  180.0000000  7.2952092  2
     95    102     94     96     4  180.0000000  7.2952092  2
     60     61     78     59     4  180.0000000  7.2952092  2
    187    188    154    186     4  180.0000000  18.0130916  2
    112    131     94    113     4  180.0000000  7.2952092  2
      9      8     10     28     4  180.0000000  7.2952092  2
     91     89     92    113     4  180.0000000  7.2952092  2
    149    148    150    167     4  180.0000000  7.2952092  2
     19     18     20     36     4  180.0000000  7.2952092  2
     18     19     21     17     4  180.0000000  7.2952092  2
     95     94     96    102     4  180.0000000  7.2952092  2
    157    156    176    135     4  180.0000000  7.2952092  2
    104    122    103    105     4  180.0000000  7.2952092  2
     17     16     18     35     4  180.0000000  7.2952092  2
    106    107    109    105     4  180.0000000  7.2952092  2
     92     91     93    114     4  180.0000000  7.2952092  2
    139    140    146    138     4  180.0000000  7.2952092  2
    151    152    168    150     4  180.0000000  7.2952092  2
     47     69     45     48     4  180.0000000  7.2952092  2
     69     68     88     47     4  180.0000000  7.2952092  2
    146    145    165    139     4  180.0000000  7.2952092  2
     10     13      9     11     4  180.0000000  7.2952092  2
    142    143    145    141     4  180.0000000  7.2952092  2
     19     20     36     18     4  180.0000000  7.2952092  2
    136    158    135    137     4  180.0000000  7.2952092  2
    140    147    139    141     4  180.0000000  7.2952092  2
     54     57     53     55     4  180.0000000  7.2952092  2
    141    140    142    160     4  180.0000000  7.2952092  2
     52     51     53     59     4  180.0000000  7.2952092  2
     47     48     69     45     4  180.0000000  7.2952092  2
     16     15     17     34     4  180.0000000  7.2952092  2
      5      6     27      4     4  180.0000000  7.2952092  2
      4      5     26      3     4  180.0000000  7.2952092  2
    137    159    136    138     4  180.0000000  7.2952092  2
     93     94    115     92     4  180.0000000  7.2952092  2
     48     49     70     47     4  180.0000000  7.2952092  2
    149    167    148    150     4  180.0000000  7.2952092  2
     24     25     43      6     4  180.0000000  7.2952092  2
    106    105    107    109     4  180.0000000  7.2952092  2
    152    169    147    151     4  180.0000000  7.2952092  2
    133    134    135    110     4  180.0000000  7.2952092  2
    108    107    125    103     4  180.0000000  7.2952092  2
    152    151    169    147     4  180.0000000  7.2952092  2
     45     46     47     22     4  180.0000000  7.2952092  2
     57     58     76     54     4  180.0000000  7.2952092  2
     54     53     55     57     4  180.0000000  7.2952092  2
     61     62     79     60     4  180.0000000  7.2952092  2
    107    124    106    108     4  180.0000000  7.2952092  2
    113    112    132     91     4  180.0000000  7.2952092  2
    110    127    133    109     4  180.0000000  1.7520674  2
     24     43      6     25     4  180.0000000  7.2952092  2
      5      4      6     27     4  180.0000000  7.2952092  2
    141    160    140    142     4  180.0000000  7.2952092  2
    150    153    149    151     4  180.0000000  7.2952092  2
     60     78     59     61     4  180.0000000  7.2952092  2
     59     60     64     52     4  180.0000000  7.2952092  2
     25      3     24     44     4  180.0000000  7.2952092  2
    147    148    152    140     4  180.0000000  7.2952092  2
      6      5      7     24     4  180.0000000  7.2952092  2
    112    113    131     94     4  180.0000000  7.2952092  2
    135    157    133    136     4  180.0000000  7.2952092  2
     60     59     61     78     4  180.0000000  7.2952092  2
    152    147    151    169     4  180.0000000  7.2952092  2
    141    142    160    140     4  180.0000000  7.2952092  2
    113    132     91    112     4  180.0000000  7.2952092  2
    148    149    166    147     4  180.0000000  7.2952092  2
    102     95    101    121     4  180.0000000  7.2952092  2
     51     58     50     52     4  180.0000000  7.2952092  2
     10      9     11     13     4  180.0000000  7.2952092  2
    104    103    105    122     4  180.0000000  7.2952092  2
    105    123    104    106     4  180.0000000  7.2952092  2
    108    103    107    125     4  180.0000000  7.2952092  2
     62     61     63     65     4  180.0000000  7.2952092  2
     94    112     93     95     4  180.0000000  7.2952092  2
     17     35     16     18     4  180.0000000  7.2952092  2
    146    165    139    145     4  180.0000000  7.2952092  2
     69     88     47     68     4  180.0000000  7.2952092  2
     50     51     68     49     4  180.0000000  7.2952092  2
    145    142    146    164     4  180.0000000  7.2952092  2
     64     63     81     59     4  180.0000000  7.2952092  2
    135    136    157    133     4  180.0000000  7.2952092  2
     89     91     66     90     4  180.0000000  7.2952092  2
    150    151    153    149     4  180.0000000  7.2952092  2
     13     14     32     10     4  180.0000000  7.2952092  2
     89     66     90     91     4  180.0000000  7.2952092  2
     68     50     69     87     4  180.0000000  7.2952092  2
     97     96     98    116     4  180.0000000  7.2952092  2
     62     63     65     61     4  180.0000000  7.2952092  2
     13     10     14     32     4  180.0000000  7.2952092  2
     92     93    114     91     4  180.0000000  7.2952092  2
    148    166    147    149     4  180.0000000  7.2952092  2
    110    133    109    127     4  180.0000000  1.7520674  2
     57     54     58     76     4  180.0000000  7.2952092  2
      8      7      9     15     4  180.0000000  7.2952092  2
     17     18     35     16     4  180.0000000  7.2952092  2
    112     94    113    131     4  180.0000000  7.2952092  2
     45     47     22     46     4  180.0000000  7.2952092  2
     51     50     52     58     4  180.0000000  7.2952092  2
     53     52     54     72     4  180.0000000  7.2952092  2
     64     81     59     63     4  180.0000000  7.2952092  2
     98    101     97     99     4  180.0000000  7.2952092  2
    103    108     96    104     4  180.0000000  7.2952092  2
     93    115     92     94     4  180.0000000  7.2952092  2
    156    138    157    175     4  180.0000000  7.2952092  2
    146    139    145    165     4  180.0000000  7.2952092  2
     10     11     13      9     4  180.0000000  7.2952092  2
    102    121     95    101     4  180.0000000  7.2952092  2
     53     54     72     52     4  180.0000000  7.2952092  2
     51     52     58     50     4  180.0000000  7.2952092  2
    154    187    153    171     4  180.0000000  1.7520674  2
     96    103     95     97     4  180.0000000  7.2952092  2
    108    125    103    107     4  180.0000000  7.2952092  2
     63     64     80     62     4  180.0000000  7.2952092  2
      7      8     14      6     4  180.0000000  7.2952092  2
      8      9     15      7     4  180.0000000  7.2952092  2
     13     32     10     14     4  180.0000000  7.2952092  2
    187    186    188    154     4  180.0000000  18.0130916  2
     91     92    113     89     4  180.0000000  7.2952092  2
     50     49     51     68     4  180.0000000  7.2952092  2
    157    135    156    176     4  180.0000000  7.2952092  2
     15      8     16     20     4  180.0000000  7.2952092  2
     91    113     89     92     4  180.0000000  7.2952092  2
    138    137    139    156     4  180.0000000  7.2952092  2
     69     47     68     88     4  180.0000000  7.2952092  2
      7     14      6      8     4  180.0000000  7.2952092  2
    136    135    137    158     4  180.0000000  7.2952092  2
    136    137    158    135     4  180.0000000  7.2952092  2
    140    141    147    139     4  180.0000000  7.2952092  2
    147    152    140    148     4  180.0000000  7.2952092  2
     68     87     50     69     4  180.0000000  7.2952092  2
     47     45     48     69     4  180.0000000  7.2952092  2
     22     21     39     45     4  180.0000000  1.7520674  2
     25     24     44      3     4  180.0000000  7.2952092  2
    135    133    136    157     4  180.0000000  7.2952092  2
    102    101    121     95     4  180.0000000  7.2952092  2
     53     72     52     54     4  180.0000000  7.2952092  2
     92    114     91     93     4  180.0000000  7.2952092  2
     94     95    112     93     4  180.0000000  7.2952092  2
     61     79     60     62     4  180.0000000  7.2952092  2
    101    102    120     98     4  180.0000000  7.2952092  2
    142    141    143    145     4  180.0000000  7.2952092  2
     22     39     45     21     4  180.0000000  1.7520674  2
     95     96    102     94     4  180.0000000  7.2952092  2
      9     28      8     10     4  180.0000000  7.2952092  2
    142    145    141    143     4  180.0000000  7.2952092  2
     52     53     59     51     4  180.0000000  7.2952092  2
      5     27      4      6     4  180.0000000  7.2952092  2
     63     80     62     64     4  180.0000000  7.2952092  2
    107    108    124    106     4  180.0000000  7.2952092  2
    156    157    175    138     4  180.0000000  7.2952092  2
    139    138    140    146     4  180.0000000  7.2952092  2
     96     95     97    103     4  180.0000000  7.2952092  2
     48     47     49     70     4  180.0000000  7.2952092  2
     15     20      8     16     4  180.0000000  7.2952092  2
     49     71     48     50     4  180.0000000  7.2952092  2
    140    139    141    147     4  180.0000000  7.2952092  2
    187    154    186    188     4  180.0000000  18.0130916  2
     52     59     51     53     4  180.0000000  7.2952092  2
      4      3      5     26     4  180.0000000  7.2952092  2
    149    150    167    148     4  180.0000000  7.2952092  2
    138    156    137    139     4  180.0000000  7.2952092  2
    104    105    122    103     4  180.0000000  7.2952092  2
     20     19     37     15     4  180.0000000  7.2952092  2
     68     69     87     50     4  180.0000000  7.2952092  2
     61     60     62     79     4  180.0000000  7.2952092  2
     62     65     61     63     4  180.0000000  7.2952092  2
     59     52     60     64     4  180.0000000  7.2952092  2
    101    120     98    102     4  180.0000000  7.2952092  2
     20     15     19     37     4  180.0000000  7.2952092  2
      3      4     25      1     4  180.0000000  7.2952092  2
    145    164    142    146     4  180.0000000  7.2952092  2
     14     13     33      7     4  180.0000000  7.2952092  2
     24      6     25     43     4  180.0000000  7.2952092  2
      6     24      5      7     4  180.0000000  7.2952092  2
      6      7     24      5     4  180.0000000  7.2952092  2
     97    116     96     98     4  180.0000000  7.2952092  2
     66     65     83     89     4  180.0000000  1.7520674  2
     48     70     47     49     4  180.0000000  7.2952092  2
    133    135    110    134     4  180.0000000  7.2952092  2
      9     10     28      8     4  180.0000000  7.2952092  2
     14     33      7     13     4  180.0000000  7.2952092  2
     25     44      3     24     4  180.0000000  7.2952092  2
    101     98    102    120     4  180.0000000  7.2952092  2
    106    109    105    107     4  180.0000000  7.2952092  2
    156    175    138    157     4  180.0000000  7.2952092  2
     19     36     18     20     4  180.0000000  7.2952092  2
      1    178      2      3     4  180.0000000  18.0130916  2
     64     59     63     81     4  180.0000000  7.2952092  2
      7      6      8     14     4  180.0000000  7.2952092  2
    151    168    150    152     4  180.0000000  7.2952092  2
    154    171    187    153     4  180.0000000  1.7520674  2
     45     22     46     47     4  180.0000000  7.2952092  2
     18     17     19     21     4  180.0000000  7.2952092  2
    145    146    164    142     4  180.0000000  7.2952092  2
    150    149    151    153     4  180.0000000  7.2952092  2
     98     97     99    101     4  180.0000000  7.2952092  2
    154    153    171    187     4  180.0000000  1.7520674  2
     18     21     17     19     4  180.0000000  7.2952092  2
      3     25      1      4     4  180.0000000  7.2952092  2
     66     89     65     83     4  180.0000000  1.7520674  2
      8     15      7      9     4  180.0000000  7.2952092  2
    105    106    123    104     4  180.0000000  7.2952092  2
     50     68     49     51     4  180.0000000  7.2952092  2
     49     50     71     48     4  180.0000000  7.2952092  2
     63     62     64     80     4  180.0000000  7.2952092  2


[ moleculetype ]
; Name            nrexcl
TCM          3

[ atoms ]
;   nr       type  resnr residue  atom   cgnr    charge       mass  typeB    chargeB      massB
; residue    1 TCM rtp TCM q 0.0
    1      TCM_0      1    TCM     c1      1 0.22438000   9.994886   ; qtot 0.224380
    2      TCM_1      1    TCM    cl1      2 -0.11463000  35.453200   ; qtot 0.109750
    3      TCM_2      1    TCM    cl2      3 -0.11463000  35.453200   ; qtot -0.004880
    4      TCM_3      1    TCM     h1      4 0.11951000   3.023841   ; qtot 0.114630
    5      TCM_4      1    TCM    cl3      5 -0.11463000  35.453200   ; qtot 0.000000

[ bonds ]
;    ai     aj funct         c0         c1         c2         c3
      1      2     1   0.17948 173885.040698
      1      3     1   0.17948 173885.040698
      1      4     1   0.10929 317186.185379
      1      5     1   0.17948 173885.040698

[ angles ]
;    ai     aj     ak funct         c0         c1         c2         c3
      2      1      3     1   107.6607822 425.669015
      2      1      4     1   107.6607822 425.669015
      2      1      5     1   107.6607822 425.669015
      3      1      4     1   107.6607822 425.669015
      3      1      5     1   107.6607822 425.669015
      4      1      5     1   107.6607822 425.669015

[ system ]
; Name
FOO

[ molecules ]
; Compound       #mols
system1              1
TCM                634
