[ defaults ]
; nbfunc	comb-rule	gen-pairs	fudgeLJ	fudgeQQ
     1	     2	yes   	0.500000	0.833333

[ atomtypes ]
;type, bondingtype, atomic_number, mass, charge, ptype, sigma, epsilon
em_pop_tetramer_0	     6	12.01078	0.0000000000000000	A    	0.3480646886945065	0.3635030558377792
em_pop_tetramer_1	     8	15.99943	0.0000000000000000	A    	0.3039812205065809	0.8795023257036865
em_pop_tetramer_2	     6	12.01078	0.0000000000000000	A    	0.3480646886945065	0.3635030558377792
em_pop_tetramer_3	     6	12.01078	0.0000000000000000	A    	0.3480646886945065	0.3635030558377792
em_pop_tetramer_4	     6	12.01078	0.0000000000000000	A    	0.3480646886945065	0.3635030558377792
em_pop_tetramer_5	     6	12.01078	0.0000000000000000	A    	0.3480646886945065	0.3635030558377792
em_pop_tetramer_6	     6	12.01078	0.0000000000000000	A    	0.3480646886945065	0.3635030558377792
em_pop_tetramer_7	     6	12.01078	0.0000000000000000	A    	0.3480646886945065	0.3635030558377792
em_pop_tetramer_8	     6	12.01078	0.0000000000000000	A    	0.3480646886945065	0.3635030558377792
em_pop_tetramer_9	     6	12.01078	0.0000000000000000	A    	0.3480646886945065	0.3635030558377792
em_pop_tetramer_10	     8	15.99943	0.0000000000000000	A    	0.3025106490435313	0.7048581468486769
em_pop_tetramer_11	     6	12.01078	0.0000000000000000	A    	0.3399669508423535	0.4577296
em_pop_tetramer_12	     6	12.01078	0.0000000000000000	A    	0.3480646886945065	0.3635030558377792
em_pop_tetramer_13	     6	12.01078	0.0000000000000000	A    	0.3480646886945065	0.3635030558377792
em_pop_tetramer_14	     6	12.01078	0.0000000000000000	A    	0.3480646886945065	0.3635030558377792
em_pop_tetramer_15	     6	12.01078	0.0000000000000000	A    	0.3480646886945065	0.3635030558377792
em_pop_tetramer_16	     6	12.01078	0.0000000000000000	A    	0.3480646886945065	0.3635030558377792
em_pop_tetramer_17	     6	12.01078	0.0000000000000000	A    	0.3480646886945065	0.3635030558377792
em_pop_tetramer_18	     6	12.01078	0.0000000000000000	A    	0.3480646886945065	0.3635030558377792
em_pop_tetramer_19	     6	12.01078	0.0000000000000000	A    	0.3480646886945065	0.3635030558377792
em_pop_tetramer_20	     6	12.01078	0.0000000000000000	A    	0.3399669508423535	0.4577296
em_pop_tetramer_21	     7	14.00672	0.0000000000000000	A    	0.3206876023663901	0.7016212989374017
em_pop_tetramer_22	     6	12.01078	0.0000000000000000	A    	0.3399669508423535	0.4577296
em_pop_tetramer_23	     6	12.01078	0.0000000000000000	A    	0.3480646886945065	0.3635030558377792
em_pop_tetramer_24	     6	12.01078	0.0000000000000000	A    	0.3480646886945065	0.3635030558377792
em_pop_tetramer_25	     1	1.007947	0.0000000000000000	A    	0.2572581535063279	0.06531785996356952
em_pop_tetramer_26	     1	1.007947	0.0000000000000000	A    	0.2572581535063279	0.06531785996356952
em_pop_tetramer_27	     1	1.007947	0.0000000000000000	A    	0.2572581535063279	0.06531785996356952
em_pop_tetramer_28	     1	1.007947	0.0000000000000000	A    	0.2583225710839196	0.068656285380106
em_pop_tetramer_29	     1	1.007947	0.0000000000000000	A    	0.2583225710839196	0.068656285380106
em_pop_tetramer_30	     1	1.007947	0.0000000000000000	A    	0.2583225710839196	0.068656285380106
em_pop_tetramer_31	     1	1.007947	0.0000000000000000	A    	0.2572581535063279	0.06531785996356952
em_pop_tetramer_32	     1	1.007947	0.0000000000000000	A    	0.2572581535063279	0.06531785996356952
em_pop_tetramer_33	     1	1.007947	0.0000000000000000	A    	0.2572581535063279	0.06531785996356952
em_pop_tetramer_34	     1	1.007947	0.0000000000000000	A    	0.2572581535063279	0.06531785996356952
em_pop_tetramer_35	     1	1.007947	0.0000000000000000	A    	0.2572581535063279	0.06531785996356952
em_pop_tetramer_36	     1	1.007947	0.0000000000000000	A    	0.2572581535063279	0.06531785996356952
em_pop_tetramer_37	     1	1.007947	0.0000000000000000	A    	0.2583225710839196	0.068656285380106
em_pop_tetramer_38	     1	1.007947	0.0000000000000000	A    	0.1103427677297317	0.05895596890015097
em_pop_tetramer_39	     1	1.007947	0.0000000000000000	A    	0.2644543413268124	0.06602135607582665
em_pop_tetramer_40	     1	1.007947	0.0000000000000000	A    	0.2644543413268124	0.06602135607582665
em_pop_tetramer_41	     1	1.007947	0.0000000000000000	A    	0.2644543413268124	0.06602135607582665
em_pop_tetramer_42	     1	1.007947	0.0000000000000000	A    	0.2572581535063279	0.06531785996356952
em_pop_tetramer_43	     1	1.007947	0.0000000000000000	A    	0.2572581535063279	0.06531785996356952
em_pop_tetramer_44	     6	12.01078	0.0000000000000000	A    	0.3480646886945065	0.3635030558377792
em_pop_tetramer_45	     8	15.99943	0.0000000000000000	A    	0.3039812205065809	0.8795023257036865
em_pop_tetramer_46	     6	12.01078	0.0000000000000000	A    	0.3480646886945065	0.3635030558377792
em_pop_tetramer_47	     6	12.01078	0.0000000000000000	A    	0.3480646886945065	0.3635030558377792
em_pop_tetramer_48	     6	12.01078	0.0000000000000000	A    	0.3480646886945065	0.3635030558377792
em_pop_tetramer_49	     6	12.01078	0.0000000000000000	A    	0.3480646886945065	0.3635030558377792
em_pop_tetramer_50	     6	12.01078	0.0000000000000000	A    	0.3480646886945065	0.3635030558377792
em_pop_tetramer_51	     6	12.01078	0.0000000000000000	A    	0.3480646886945065	0.3635030558377792
em_pop_tetramer_52	     6	12.01078	0.0000000000000000	A    	0.3480646886945065	0.3635030558377792
em_pop_tetramer_53	     6	12.01078	0.0000000000000000	A    	0.3480646886945065	0.3635030558377792
em_pop_tetramer_54	     8	15.99943	0.0000000000000000	A    	0.3025106490435313	0.7048581468486769
em_pop_tetramer_55	     6	12.01078	0.0000000000000000	A    	0.3399669508423535	0.4577296
em_pop_tetramer_56	     6	12.01078	0.0000000000000000	A    	0.3480646886945065	0.3635030558377792
em_pop_tetramer_57	     6	12.01078	0.0000000000000000	A    	0.3480646886945065	0.3635030558377792
em_pop_tetramer_58	     6	12.01078	0.0000000000000000	A    	0.3480646886945065	0.3635030558377792
em_pop_tetramer_59	     6	12.01078	0.0000000000000000	A    	0.3480646886945065	0.3635030558377792
em_pop_tetramer_60	     6	12.01078	0.0000000000000000	A    	0.3480646886945065	0.3635030558377792
em_pop_tetramer_61	     6	12.01078	0.0000000000000000	A    	0.3480646886945065	0.3635030558377792
em_pop_tetramer_62	     6	12.01078	0.0000000000000000	A    	0.3480646886945065	0.3635030558377792
em_pop_tetramer_63	     6	12.01078	0.0000000000000000	A    	0.3480646886945065	0.3635030558377792
em_pop_tetramer_64	     6	12.01078	0.0000000000000000	A    	0.3399669508423535	0.4577296
em_pop_tetramer_65	     7	14.00672	0.0000000000000000	A    	0.3206876023663901	0.7016212989374017
em_pop_tetramer_66	     6	12.01078	0.0000000000000000	A    	0.3399669508423535	0.4577296
em_pop_tetramer_67	     6	12.01078	0.0000000000000000	A    	0.3480646886945065	0.3635030558377792
em_pop_tetramer_68	     6	12.01078	0.0000000000000000	A    	0.3480646886945065	0.3635030558377792
em_pop_tetramer_69	     1	1.007947	0.0000000000000000	A    	0.2572581535063279	0.06531785996356952
em_pop_tetramer_70	     1	1.007947	0.0000000000000000	A    	0.2572581535063279	0.06531785996356952
em_pop_tetramer_71	     1	1.007947	0.0000000000000000	A    	0.2572581535063279	0.06531785996356952
em_pop_tetramer_72	     1	1.007947	0.0000000000000000	A    	0.2583225710839196	0.068656285380106
em_pop_tetramer_73	     1	1.007947	0.0000000000000000	A    	0.2583225710839196	0.068656285380106
em_pop_tetramer_74	     1	1.007947	0.0000000000000000	A    	0.2583225710839196	0.068656285380106
em_pop_tetramer_75	     1	1.007947	0.0000000000000000	A    	0.2572581535063279	0.06531785996356952
em_pop_tetramer_76	     1	1.007947	0.0000000000000000	A    	0.2572581535063279	0.06531785996356952
em_pop_tetramer_77	     1	1.007947	0.0000000000000000	A    	0.2572581535063279	0.06531785996356952
em_pop_tetramer_78	     1	1.007947	0.0000000000000000	A    	0.2572581535063279	0.06531785996356952
em_pop_tetramer_79	     1	1.007947	0.0000000000000000	A    	0.2572581535063279	0.06531785996356952
em_pop_tetramer_80	     1	1.007947	0.0000000000000000	A    	0.2572581535063279	0.06531785996356952
em_pop_tetramer_81	     1	1.007947	0.0000000000000000	A    	0.2583225710839196	0.068656285380106
em_pop_tetramer_82	     1	1.007947	0.0000000000000000	A    	0.1103427677297317	0.05895596890015097
em_pop_tetramer_83	     1	1.007947	0.0000000000000000	A    	0.2644543413268124	0.06602135607582665
em_pop_tetramer_84	     1	1.007947	0.0000000000000000	A    	0.2644543413268124	0.06602135607582665
em_pop_tetramer_85	     1	1.007947	0.0000000000000000	A    	0.2644543413268124	0.06602135607582665
em_pop_tetramer_86	     1	1.007947	0.0000000000000000	A    	0.2572581535063279	0.06531785996356952
em_pop_tetramer_87	     1	1.007947	0.0000000000000000	A    	0.2572581535063279	0.06531785996356952
em_pop_tetramer_88	     6	12.01078	0.0000000000000000	A    	0.3480646886945065	0.3635030558377792
em_pop_tetramer_89	     8	15.99943	0.0000000000000000	A    	0.3039812205065809	0.8795023257036865
em_pop_tetramer_90	     6	12.01078	0.0000000000000000	A    	0.3480646886945065	0.3635030558377792
em_pop_tetramer_91	     6	12.01078	0.0000000000000000	A    	0.3480646886945065	0.3635030558377792
em_pop_tetramer_92	     6	12.01078	0.0000000000000000	A    	0.3480646886945065	0.3635030558377792
em_pop_tetramer_93	     6	12.01078	0.0000000000000000	A    	0.3480646886945065	0.3635030558377792
em_pop_tetramer_94	     6	12.01078	0.0000000000000000	A    	0.3480646886945065	0.3635030558377792
em_pop_tetramer_95	     6	12.01078	0.0000000000000000	A    	0.3480646886945065	0.3635030558377792
em_pop_tetramer_96	     6	12.01078	0.0000000000000000	A    	0.3480646886945065	0.3635030558377792
em_pop_tetramer_97	     6	12.01078	0.0000000000000000	A    	0.3480646886945065	0.3635030558377792
em_pop_tetramer_98	     8	15.99943	0.0000000000000000	A    	0.3025106490435313	0.7048581468486769
em_pop_tetramer_99	     6	12.01078	0.0000000000000000	A    	0.3399669508423535	0.4577296
em_pop_tetramer_100	     6	12.01078	0.0000000000000000	A    	0.3480646886945065	0.3635030558377792
em_pop_tetramer_101	     6	12.01078	0.0000000000000000	A    	0.3480646886945065	0.3635030558377792
em_pop_tetramer_102	     6	12.01078	0.0000000000000000	A    	0.3480646886945065	0.3635030558377792
em_pop_tetramer_103	     6	12.01078	0.0000000000000000	A    	0.3480646886945065	0.3635030558377792
em_pop_tetramer_104	     6	12.01078	0.0000000000000000	A    	0.3480646886945065	0.3635030558377792
em_pop_tetramer_105	     6	12.01078	0.0000000000000000	A    	0.3480646886945065	0.3635030558377792
em_pop_tetramer_106	     6	12.01078	0.0000000000000000	A    	0.3480646886945065	0.3635030558377792
em_pop_tetramer_107	     6	12.01078	0.0000000000000000	A    	0.3480646886945065	0.3635030558377792
em_pop_tetramer_108	     6	12.01078	0.0000000000000000	A    	0.3399669508423535	0.4577296
em_pop_tetramer_109	     7	14.00672	0.0000000000000000	A    	0.3206876023663901	0.7016212989374017
em_pop_tetramer_110	     6	12.01078	0.0000000000000000	A    	0.3399669508423535	0.4577296
em_pop_tetramer_111	     6	12.01078	0.0000000000000000	A    	0.3480646886945065	0.3635030558377792
em_pop_tetramer_112	     6	12.01078	0.0000000000000000	A    	0.3480646886945065	0.3635030558377792
em_pop_tetramer_113	     1	1.007947	0.0000000000000000	A    	0.2572581535063279	0.06531785996356952
em_pop_tetramer_114	     1	1.007947	0.0000000000000000	A    	0.2572581535063279	0.06531785996356952
em_pop_tetramer_115	     1	1.007947	0.0000000000000000	A    	0.2572581535063279	0.06531785996356952
em_pop_tetramer_116	     1	1.007947	0.0000000000000000	A    	0.2583225710839196	0.068656285380106
em_pop_tetramer_117	     1	1.007947	0.0000000000000000	A    	0.2583225710839196	0.068656285380106
em_pop_tetramer_118	     1	1.007947	0.0000000000000000	A    	0.2583225710839196	0.068656285380106
em_pop_tetramer_119	     1	1.007947	0.0000000000000000	A    	0.2572581535063279	0.06531785996356952
em_pop_tetramer_120	     1	1.007947	0.0000000000000000	A    	0.2572581535063279	0.06531785996356952
em_pop_tetramer_121	     1	1.007947	0.0000000000000000	A    	0.2572581535063279	0.06531785996356952
em_pop_tetramer_122	     1	1.007947	0.0000000000000000	A    	0.2572581535063279	0.06531785996356952
em_pop_tetramer_123	     1	1.007947	0.0000000000000000	A    	0.2572581535063279	0.06531785996356952
em_pop_tetramer_124	     1	1.007947	0.0000000000000000	A    	0.2572581535063279	0.06531785996356952
em_pop_tetramer_125	     1	1.007947	0.0000000000000000	A    	0.2583225710839196	0.068656285380106
em_pop_tetramer_126	     1	1.007947	0.0000000000000000	A    	0.1103427677297317	0.05895596890015097
em_pop_tetramer_127	     1	1.007947	0.0000000000000000	A    	0.2644543413268124	0.06602135607582665
em_pop_tetramer_128	     1	1.007947	0.0000000000000000	A    	0.2644543413268124	0.06602135607582665
em_pop_tetramer_129	     1	1.007947	0.0000000000000000	A    	0.2644543413268124	0.06602135607582665
em_pop_tetramer_130	     1	1.007947	0.0000000000000000	A    	0.2572581535063279	0.06531785996356952
em_pop_tetramer_131	     1	1.007947	0.0000000000000000	A    	0.2572581535063279	0.06531785996356952
em_pop_tetramer_132	     6	12.01078	0.0000000000000000	A    	0.3480646886945065	0.3635030558377792
em_pop_tetramer_133	     8	15.99943	0.0000000000000000	A    	0.3039812205065809	0.8795023257036865
em_pop_tetramer_134	     6	12.01078	0.0000000000000000	A    	0.3480646886945065	0.3635030558377792
em_pop_tetramer_135	     6	12.01078	0.0000000000000000	A    	0.3480646886945065	0.3635030558377792
em_pop_tetramer_136	     6	12.01078	0.0000000000000000	A    	0.3480646886945065	0.3635030558377792
em_pop_tetramer_137	     6	12.01078	0.0000000000000000	A    	0.3480646886945065	0.3635030558377792
em_pop_tetramer_138	     6	12.01078	0.0000000000000000	A    	0.3480646886945065	0.3635030558377792
em_pop_tetramer_139	     6	12.01078	0.0000000000000000	A    	0.3480646886945065	0.3635030558377792
em_pop_tetramer_140	     6	12.01078	0.0000000000000000	A    	0.3480646886945065	0.3635030558377792
em_pop_tetramer_141	     6	12.01078	0.0000000000000000	A    	0.3480646886945065	0.3635030558377792
em_pop_tetramer_142	     8	15.99943	0.0000000000000000	A    	0.3025106490435313	0.7048581468486769
em_pop_tetramer_143	     6	12.01078	0.0000000000000000	A    	0.3399669508423535	0.4577296
em_pop_tetramer_144	     6	12.01078	0.0000000000000000	A    	0.3480646886945065	0.3635030558377792
em_pop_tetramer_145	     6	12.01078	0.0000000000000000	A    	0.3480646886945065	0.3635030558377792
em_pop_tetramer_146	     6	12.01078	0.0000000000000000	A    	0.3480646886945065	0.3635030558377792
em_pop_tetramer_147	     6	12.01078	0.0000000000000000	A    	0.3480646886945065	0.3635030558377792
em_pop_tetramer_148	     6	12.01078	0.0000000000000000	A    	0.3480646886945065	0.3635030558377792
em_pop_tetramer_149	     6	12.01078	0.0000000000000000	A    	0.3480646886945065	0.3635030558377792
em_pop_tetramer_150	     6	12.01078	0.0000000000000000	A    	0.3480646886945065	0.3635030558377792
em_pop_tetramer_151	     6	12.01078	0.0000000000000000	A    	0.3480646886945065	0.3635030558377792
em_pop_tetramer_152	     6	12.01078	0.0000000000000000	A    	0.3399669508423535	0.4577296
em_pop_tetramer_153	     7	14.00672	0.0000000000000000	A    	0.3206876023663901	0.7016212989374017
em_pop_tetramer_154	     6	12.01078	0.0000000000000000	A    	0.3399669508423535	0.4577296
em_pop_tetramer_155	     6	12.01078	0.0000000000000000	A    	0.3480646886945065	0.3635030558377792
em_pop_tetramer_156	     6	12.01078	0.0000000000000000	A    	0.3480646886945065	0.3635030558377792
em_pop_tetramer_157	     1	1.007947	0.0000000000000000	A    	0.2572581535063279	0.06531785996356952
em_pop_tetramer_158	     1	1.007947	0.0000000000000000	A    	0.2572581535063279	0.06531785996356952
em_pop_tetramer_159	     1	1.007947	0.0000000000000000	A    	0.2572581535063279	0.06531785996356952
em_pop_tetramer_160	     1	1.007947	0.0000000000000000	A    	0.2583225710839196	0.068656285380106
em_pop_tetramer_161	     1	1.007947	0.0000000000000000	A    	0.2583225710839196	0.068656285380106
em_pop_tetramer_162	     1	1.007947	0.0000000000000000	A    	0.2583225710839196	0.068656285380106
em_pop_tetramer_163	     1	1.007947	0.0000000000000000	A    	0.2572581535063279	0.06531785996356952
em_pop_tetramer_164	     1	1.007947	0.0000000000000000	A    	0.2572581535063279	0.06531785996356952
em_pop_tetramer_165	     1	1.007947	0.0000000000000000	A    	0.2572581535063279	0.06531785996356952
em_pop_tetramer_166	     1	1.007947	0.0000000000000000	A    	0.2572581535063279	0.06531785996356952
em_pop_tetramer_167	     1	1.007947	0.0000000000000000	A    	0.2572581535063279	0.06531785996356952
em_pop_tetramer_168	     1	1.007947	0.0000000000000000	A    	0.2572581535063279	0.06531785996356952
em_pop_tetramer_169	     1	1.007947	0.0000000000000000	A    	0.2583225710839196	0.068656285380106
em_pop_tetramer_170	     1	1.007947	0.0000000000000000	A    	0.1103427677297317	0.05895596890015097
em_pop_tetramer_171	     1	1.007947	0.0000000000000000	A    	0.2644543413268124	0.06602135607582665
em_pop_tetramer_172	     1	1.007947	0.0000000000000000	A    	0.2644543413268124	0.06602135607582665
em_pop_tetramer_173	     1	1.007947	0.0000000000000000	A    	0.2644543413268124	0.06602135607582665
em_pop_tetramer_174	     1	1.007947	0.0000000000000000	A    	0.2572581535063279	0.06531785996356952
em_pop_tetramer_175	     1	1.007947	0.0000000000000000	A    	0.2572581535063279	0.06531785996356952
em_pop_tetramer_176	     6	12.01078	0.0000000000000000	A    	0.3399669508423535	0.4577296
em_pop_tetramer_177	     8	15.99943	0.0000000000000000	A    	0.3025106490435313	0.7048581468486769
em_pop_tetramer_178	     1	1.007947	0.0000000000000000	A    	0.2583225710839196	0.068656285380106
em_pop_tetramer_179	     1	1.007947	0.0000000000000000	A    	0.2583225710839196	0.068656285380106
em_pop_tetramer_180	     1	1.007947	0.0000000000000000	A    	0.2583225710839196	0.068656285380106
em_pop_tetramer_181	     6	12.01078	0.0000000000000000	A    	0.3399669508423535	0.4577296
em_pop_tetramer_182	     6	12.01078	0.0000000000000000	A    	0.3399669508423535	0.4577296
em_pop_tetramer_183	     6	12.01078	0.0000000000000000	A    	0.3399669508423535	0.4577296
em_pop_tetramer_184	     6	12.01078	0.0000000000000000	A    	0.3399669508423535	0.4577296
em_pop_tetramer_185	     8	15.99943	0.0000000000000000	A    	0.3025106490435313	0.7048581468486769
em_pop_tetramer_186	     6	12.01078	0.0000000000000000	A    	0.3480646886945065	0.3635030558377792
em_pop_tetramer_187	     8	15.99943	0.0000000000000000	A    	0.3039812205065809	0.8795023257036865
em_pop_tetramer_188	     1	1.007947	0.0000000000000000	A    	0.2644543413268124	0.06602135607582665
em_pop_tetramer_189	     1	1.007947	0.0000000000000000	A    	0.2644543413268124	0.06602135607582665
em_pop_tetramer_190	     1	1.007947	0.0000000000000000	A    	0.2644543413268124	0.06602135607582665
em_pop_tetramer_191	     1	1.007947	0.0000000000000000	A    	0.2644543413268124	0.06602135607582665
em_pop_tetramer_192	     1	1.007947	0.0000000000000000	A    	0.2644543413268124	0.06602135607582665
em_pop_tetramer_193	     1	1.007947	0.0000000000000000	A    	0.2644543413268124	0.06602135607582665
em_pop_tetramer_194	     1	1.007947	0.0000000000000000	A    	0.2644543413268124	0.06602135607582665
em_pop_tetramer_195	     1	1.007947	0.0000000000000000	A    	0.2644543413268124	0.06602135607582665
em_pop_tetramer_196	     1	1.007947	0.0000000000000000	A    	0.2644543413268124	0.06602135607582665
TCM_0      	     6	12.01078	0.0000000000000000	A    	0.3399669508423535	0.4577296
TCM_1      	    17	35.4532	0.0000000000000000	A    	0.3470941405874761	1.10876
TCM_2      	    17	35.4532	0.0000000000000000	A    	0.3470941405874761	1.10876
TCM_3      	     1	1.007947	0.0000000000000000	A    	0.2114993556865165	0.06568879999999999
TCM_4      	    17	35.4532	0.0000000000000000	A    	0.3470941405874761	1.10876

[ moleculetype ]
em_pop_tetramer	         3

[ atoms ]
;index, atom type, resnum, resname, name, cgnr, charge, mass
     1 em_pop_tetramer_0       1 POP      C1         1      0.645470023155     12.010780000000
     2 em_pop_tetramer_1       1 POP      O2         1     -0.538049995899     15.999430000000
     3 em_pop_tetramer_2       1 POP      C3         1     -0.136800006032     12.010780000000
     4 em_pop_tetramer_3       1 POP      C4         1     -0.077349998057     12.010780000000
     5 em_pop_tetramer_4       1 POP      C5         1     -0.129850000143     12.010780000000
     6 em_pop_tetramer_5       1 POP      C6         1     -0.000039999999     12.010780000000
     7 em_pop_tetramer_6       1 POP      C7         1     -0.079889997840     12.010780000000
     8 em_pop_tetramer_7       1 POP      C8         1      0.007720000111     12.010780000000
     9 em_pop_tetramer_8       1 POP      C9         1     -0.145309999585     12.010780000000
    10 em_pop_tetramer_9       1 POP      C10        1      0.129260003567     12.010780000000
    11 em_pop_tetramer_10       1 POP      O11        1     -0.324649989605     15.999430000000
    12 em_pop_tetramer_11       1 POP      C12        1      0.112450003624     12.010780000000
    13 em_pop_tetramer_12       1 POP      C13        1     -0.203020006418     12.010780000000
    14 em_pop_tetramer_13       1 POP      C14        1     -0.081919997931     12.010780000000
    15 em_pop_tetramer_14       1 POP      C15        1     -0.039379999042     12.010780000000
    16 em_pop_tetramer_15       1 POP      C16        1     -0.109909996390     12.010780000000
    17 em_pop_tetramer_16       1 POP      C17        1     -0.121969997883     12.010780000000
    18 em_pop_tetramer_17       1 POP      C18        1     -0.095310002565     12.010780000000
    19 em_pop_tetramer_18       1 POP      C19        1     -0.121969997883     12.010780000000
    20 em_pop_tetramer_19       1 POP      C20        1     -0.109909996390     12.010780000000
    21 em_pop_tetramer_20       1 POP      C21        1      0.154229998589     12.010780000000
    22 em_pop_tetramer_21       1 POP      N22        1     -0.570320010185     14.006720000000
    23 em_pop_tetramer_22       1 POP      C23        1     -0.111529998481     12.010780000000
    24 em_pop_tetramer_23       1 POP      C24        1     -0.129850000143     12.010780000000
    25 em_pop_tetramer_24       1 POP      C25        1     -0.077349998057     12.010780000000
    26 em_pop_tetramer_25       1 POP      H26        1      0.152620002627      1.007947000000
    27 em_pop_tetramer_26       1 POP      H27        1      0.143600001931      1.007947000000
    28 em_pop_tetramer_27       1 POP      H28        1      0.158309996128      1.007947000000
    29 em_pop_tetramer_28       1 POP      H29        1      0.046339999884      1.007947000000
    30 em_pop_tetramer_29       1 POP      H30        1      0.046339999884      1.007947000000
    31 em_pop_tetramer_30       1 POP      H31        1      0.046339999884      1.007947000000
    32 em_pop_tetramer_31       1 POP      H32        1      0.141859993339      1.007947000000
    33 em_pop_tetramer_32       1 POP      H33        1      0.140770003200      1.007947000000
    34 em_pop_tetramer_33       1 POP      H34        1      0.139259994030      1.007947000000
    35 em_pop_tetramer_34       1 POP      H35        1      0.135609999299      1.007947000000
    36 em_pop_tetramer_35       1 POP      H36        1      0.135609999299      1.007947000000
    37 em_pop_tetramer_36       1 POP      H37        1      0.139259994030      1.007947000000
    38 em_pop_tetramer_37       1 POP      H38        1      0.080540001392      1.007947000000
    39 em_pop_tetramer_38       1 POP      H39        1      0.312209993601      1.007947000000
    40 em_pop_tetramer_39       1 POP      H40        1      0.046549998224      1.007947000000
    41 em_pop_tetramer_40       1 POP      H41        1      0.046549998224      1.007947000000
    42 em_pop_tetramer_41       1 POP      H42        1      0.046549998224      1.007947000000
    43 em_pop_tetramer_42       1 POP      H43        1      0.143600001931      1.007947000000
    44 em_pop_tetramer_43       1 POP      H44        1      0.152620002627      1.007947000000
    45 em_pop_tetramer_44       2 POP      C45        1      0.674250006676     12.010780000000
    46 em_pop_tetramer_45       2 POP      O46        1     -0.614170014858     15.999430000000
    47 em_pop_tetramer_46       2 POP      C47        1     -0.143329992890     12.010780000000
    48 em_pop_tetramer_47       2 POP      C48        1     -0.093759998679     12.010780000000
    49 em_pop_tetramer_48       2 POP      C49        1     -0.125220000744     12.010780000000
    50 em_pop_tetramer_49       2 POP      C50        1     -0.007980000228     12.010780000000
    51 em_pop_tetramer_50       2 POP      C51        1     -0.075530000031     12.010780000000
    52 em_pop_tetramer_51       2 POP      C52        1      0.007290000096     12.010780000000
    53 em_pop_tetramer_52       2 POP      C53        1     -0.144380003214     12.010780000000
    54 em_pop_tetramer_53       2 POP      C54        1      0.127709999681     12.010780000000
    55 em_pop_tetramer_54       2 POP      O55        1     -0.325969994068     15.999430000000
    56 em_pop_tetramer_55       2 POP      C56        1      0.113399997354     12.010780000000
    57 em_pop_tetramer_56       2 POP      C57        1     -0.201269999146     12.010780000000
    58 em_pop_tetramer_57       2 POP      C58        1     -0.082649998367     12.010780000000
    59 em_pop_tetramer_58       2 POP      C59        1     -0.038260001689     12.010780000000
    60 em_pop_tetramer_59       2 POP      C60        1     -0.110030002892     12.010780000000
    61 em_pop_tetramer_60       2 POP      C61        1     -0.122400000691     12.010780000000
    62 em_pop_tetramer_61       2 POP      C62        1     -0.095930002630     12.010780000000
    63 em_pop_tetramer_62       2 POP      C63        1     -0.122400000691     12.010780000000
    64 em_pop_tetramer_63       2 POP      C64        1     -0.110030002892     12.010780000000
    65 em_pop_tetramer_64       2 POP      C65        1      0.153679996729     12.010780000000
    66 em_pop_tetramer_65       2 POP      N66        1     -0.574060022831     14.006720000000
    67 em_pop_tetramer_66       2 POP      C67        1     -0.107330001891     12.010780000000
    68 em_pop_tetramer_67       2 POP      C68        1     -0.125220000744     12.010780000000
    69 em_pop_tetramer_68       2 POP      C69        1     -0.093759998679     12.010780000000
    70 em_pop_tetramer_69       2 POP      H70        1      0.147900000215      1.007947000000
    71 em_pop_tetramer_70       2 POP      H71        1      0.142199993134      1.007947000000
    72 em_pop_tetramer_71       2 POP      H72        1      0.158120006323      1.007947000000
    73 em_pop_tetramer_72       2 POP      H73        1      0.045579999685      1.007947000000
    74 em_pop_tetramer_73       2 POP      H74        1      0.045579999685      1.007947000000
    75 em_pop_tetramer_74       2 POP      H75        1      0.045579999685      1.007947000000
    76 em_pop_tetramer_75       2 POP      H76        1      0.141230002046      1.007947000000
    77 em_pop_tetramer_76       2 POP      H77        1      0.138889998198      1.007947000000
    78 em_pop_tetramer_77       2 POP      H78        1      0.139310002327      1.007947000000
    79 em_pop_tetramer_78       2 POP      H79        1      0.133709996939      1.007947000000
    80 em_pop_tetramer_79       2 POP      H80        1      0.133709996939      1.007947000000
    81 em_pop_tetramer_80       2 POP      H81        1      0.139310002327      1.007947000000
    82 em_pop_tetramer_81       2 POP      H82        1      0.085210002959      1.007947000000
    83 em_pop_tetramer_82       2 POP      H83        1      0.311120003462      1.007947000000
    84 em_pop_tetramer_83       2 POP      H84        1      0.044160000980      1.007947000000
    85 em_pop_tetramer_84       2 POP      H85        1      0.044160000980      1.007947000000
    86 em_pop_tetramer_85       2 POP      H86        1      0.044160000980      1.007947000000
    87 em_pop_tetramer_86       2 POP      H87        1      0.142199993134      1.007947000000
    88 em_pop_tetramer_87       2 POP      H88        1      0.147900000215      1.007947000000
    89 em_pop_tetramer_88       3 POP      C89        1      0.676569998264     12.010780000000
    90 em_pop_tetramer_89       3 POP      O90        1     -0.607860028744     15.999430000000
    91 em_pop_tetramer_90       3 POP      C91        1     -0.142140001059     12.010780000000
    92 em_pop_tetramer_91       3 POP      C92        1     -0.092419996858     12.010780000000
    93 em_pop_tetramer_92       3 POP      C93        1     -0.123729996383     12.010780000000
    94 em_pop_tetramer_93       3 POP      C94        1     -0.011160000227     12.010780000000
    95 em_pop_tetramer_94       3 POP      C95        1     -0.073990002275     12.010780000000
    96 em_pop_tetramer_95       3 POP      C96        1      0.010700000450     12.010780000000
    97 em_pop_tetramer_96       3 POP      C97        1     -0.146080002189     12.010780000000
    98 em_pop_tetramer_97       3 POP      C98        1      0.125579997897     12.010780000000
    99 em_pop_tetramer_98       3 POP      O99        1     -0.325230002403     15.999430000000
   100 em_pop_tetramer_99       3 POP      C100       1      0.112719997764     12.010780000000
   101 em_pop_tetramer_100       3 POP      C101       1     -0.205469995737     12.010780000000
   102 em_pop_tetramer_101       3 POP      C102       1     -0.084540002048     12.010780000000
   103 em_pop_tetramer_102       3 POP      C103       1     -0.043529998511     12.010780000000
   104 em_pop_tetramer_103       3 POP      C104       1     -0.111319996417     12.010780000000
   105 em_pop_tetramer_104       3 POP      C105       1     -0.119900003076     12.010780000000
   106 em_pop_tetramer_105       3 POP      C106       1     -0.090010002255     12.010780000000
   107 em_pop_tetramer_106       3 POP      C107       1     -0.119900003076     12.010780000000
   108 em_pop_tetramer_107       3 POP      C108       1     -0.111319996417     12.010780000000
   109 em_pop_tetramer_108       3 POP      C109       1      0.153380006552     12.010780000000
   110 em_pop_tetramer_109       3 POP      N110       1     -0.573889970779     14.006720000000
   111 em_pop_tetramer_110       3 POP      C111       1     -0.111730001867     12.010780000000
   112 em_pop_tetramer_111       3 POP      C112       1     -0.123729996383     12.010780000000
   113 em_pop_tetramer_112       3 POP      C113       1     -0.092419996858     12.010780000000
   114 em_pop_tetramer_113       3 POP      H114       1      0.147129997611      1.007947000000
   115 em_pop_tetramer_114       3 POP      H115       1      0.141839995980      1.007947000000
   116 em_pop_tetramer_115       3 POP      H116       1      0.157639995217      1.007947000000
   117 em_pop_tetramer_116       3 POP      H117       1      0.045279998332      1.007947000000
   118 em_pop_tetramer_117       3 POP      H118       1      0.045279998332      1.007947000000
   119 em_pop_tetramer_118       3 POP      H119       1      0.045279998332      1.007947000000
   120 em_pop_tetramer_119       3 POP      H120       1      0.139459997416      1.007947000000
   121 em_pop_tetramer_120       3 POP      H121       1      0.139320001006      1.007947000000
   122 em_pop_tetramer_121       3 POP      H122       1      0.134470000863      1.007947000000
   123 em_pop_tetramer_122       3 POP      H123       1      0.138080000877      1.007947000000
   124 em_pop_tetramer_123       3 POP      H124       1      0.138080000877      1.007947000000
   125 em_pop_tetramer_124       3 POP      H125       1      0.134470000863      1.007947000000
   126 em_pop_tetramer_125       3 POP      H126       1      0.084890000522      1.007947000000
   127 em_pop_tetramer_126       3 POP      H127       1      0.316009998322      1.007947000000
   128 em_pop_tetramer_127       3 POP      H128       1      0.044500000775      1.007947000000
   129 em_pop_tetramer_128       3 POP      H129       1      0.044500000775      1.007947000000
   130 em_pop_tetramer_129       3 POP      H130       1      0.044500000775      1.007947000000
   131 em_pop_tetramer_130       3 POP      H131       1      0.141839995980      1.007947000000
   132 em_pop_tetramer_131       3 POP      H132       1      0.147129997611      1.007947000000
   133 em_pop_tetramer_132       4 POP      C133       1      0.676219999790     12.010780000000
   134 em_pop_tetramer_133       4 POP      O134       1     -0.610729992390     15.999430000000
   135 em_pop_tetramer_134       4 POP      C135       1     -0.141019999981     12.010780000000
   136 em_pop_tetramer_135       4 POP      C136       1     -0.085969999433     12.010780000000
   137 em_pop_tetramer_136       4 POP      C137       1     -0.122769996524     12.010780000000
   138 em_pop_tetramer_137       4 POP      C138       1     -0.014379999600     12.010780000000
   139 em_pop_tetramer_138       4 POP      C139       1     -0.067639999092     12.010780000000
   140 em_pop_tetramer_139       4 POP      C140       1      0.009739999659     12.010780000000
   141 em_pop_tetramer_140       4 POP      C141       1     -0.148210003972     12.010780000000
   142 em_pop_tetramer_141       4 POP      C142       1      0.122680000961     12.010780000000
   143 em_pop_tetramer_142       4 POP      O143       1     -0.327060014009     15.999430000000
   144 em_pop_tetramer_143       4 POP      C144       1      0.114139996469     12.010780000000
   145 em_pop_tetramer_144       4 POP      C145       1     -0.205229997635     12.010780000000
   146 em_pop_tetramer_145       4 POP      C146       1     -0.085979998112     12.010780000000
   147 em_pop_tetramer_146       4 POP      C147       1     -0.040940001607     12.010780000000
   148 em_pop_tetramer_147       4 POP      C148       1     -0.113399997354     12.010780000000
   149 em_pop_tetramer_148       4 POP      C149       1     -0.108070001006     12.010780000000
   150 em_pop_tetramer_149       4 POP      C150       1     -0.105250000954     12.010780000000
   151 em_pop_tetramer_150       4 POP      C151       1     -0.108070001006     12.010780000000
   152 em_pop_tetramer_151       4 POP      C152       1     -0.113399997354     12.010780000000
   153 em_pop_tetramer_152       4 POP      C153       1      0.158309996128     12.010780000000
   154 em_pop_tetramer_153       4 POP      N154       1     -0.543229997158     14.006720000000
   155 em_pop_tetramer_154       4 POP      C155       1     -0.101369999349     12.010780000000
   156 em_pop_tetramer_155       4 POP      C156       1     -0.122769996524     12.010780000000
   157 em_pop_tetramer_156       4 POP      C157       1     -0.085969999433     12.010780000000
   158 em_pop_tetramer_157       4 POP      H158       1      0.149000003934      1.007947000000
   159 em_pop_tetramer_158       4 POP      H159       1      0.140139997005      1.007947000000
   160 em_pop_tetramer_159       4 POP      H160       1      0.155379995704      1.007947000000
   161 em_pop_tetramer_160       4 POP      H161       1      0.043719999492      1.007947000000
   162 em_pop_tetramer_161       4 POP      H162       1      0.043719999492      1.007947000000
   163 em_pop_tetramer_162       4 POP      H163       1      0.043719999492      1.007947000000
   164 em_pop_tetramer_163       4 POP      H164       1      0.137319996953      1.007947000000
   165 em_pop_tetramer_164       4 POP      H165       1      0.140169993043      1.007947000000
   166 em_pop_tetramer_165       4 POP      H166       1      0.132799997926      1.007947000000
   167 em_pop_tetramer_166       4 POP      H167       1      0.136580005288      1.007947000000
   168 em_pop_tetramer_167       4 POP      H168       1      0.136580005288      1.007947000000
   169 em_pop_tetramer_168       4 POP      H169       1      0.132799997926      1.007947000000
   170 em_pop_tetramer_169       4 POP      H170       1      0.072590000927      1.007947000000
   171 em_pop_tetramer_170       4 POP      H171       1      0.318630009890      1.007947000000
   172 em_pop_tetramer_171       4 POP      H172       1      0.046450000256      1.007947000000
   173 em_pop_tetramer_172       4 POP      H173       1      0.046450000256      1.007947000000
   174 em_pop_tetramer_173       4 POP      H174       1      0.046450000256      1.007947000000
   175 em_pop_tetramer_174       4 POP      H175       1      0.140139997005      1.007947000000
   176 em_pop_tetramer_175       4 POP      H176       1      0.149000003934      1.007947000000
   177 em_pop_tetramer_176       5 CAP      C177       1      0.124590002000     12.010780000000
   178 em_pop_tetramer_177       5 CAP      O178       1     -0.430400013924     15.999430000000
   179 em_pop_tetramer_178       5 CAP      H179       1      0.050829999149      1.007947000000
   180 em_pop_tetramer_179       5 CAP      H180       1      0.050829999149      1.007947000000
   181 em_pop_tetramer_180       5 CAP      H181       1      0.050829999149      1.007947000000
   182 em_pop_tetramer_181       6 CAP      C182       1     -0.114629998803     12.010780000000
   183 em_pop_tetramer_182       6 CAP      C183       1      0.190149992704     12.010780000000
   184 em_pop_tetramer_183       6 CAP      C184       1     -0.114629998803     12.010780000000
   185 em_pop_tetramer_184       6 CAP      C185       1     -0.114629998803     12.010780000000
   186 em_pop_tetramer_185       6 CAP      O186       1     -0.448920011520     15.999430000000
   187 em_pop_tetramer_186       6 CAP      C187       1      0.744639992714     12.010780000000
   188 em_pop_tetramer_187       6 CAP      O188       1     -0.585389971733     15.999430000000
   189 em_pop_tetramer_188       6 CAP      H189       1      0.051690001041      1.007947000000
   190 em_pop_tetramer_189       6 CAP      H190       1      0.051690001041      1.007947000000
   191 em_pop_tetramer_190       6 CAP      H191       1      0.051690001041      1.007947000000
   192 em_pop_tetramer_191       6 CAP      H192       1      0.051690001041      1.007947000000
   193 em_pop_tetramer_192       6 CAP      H193       1      0.051690001041      1.007947000000
   194 em_pop_tetramer_193       6 CAP      H194       1      0.051690001041      1.007947000000
   195 em_pop_tetramer_194       6 CAP      H195       1      0.051690001041      1.007947000000
   196 em_pop_tetramer_195       6 CAP      H196       1      0.051690001041      1.007947000000
   197 em_pop_tetramer_196       6 CAP      H197       1      0.051690001041      1.007947000000

[ pairs ]
;ai    aj   funct
    95	   113	     1
    54	    74	     1
    99	   120	     1
   109	   134	     1
    82	    85	     1
   151	   167	     1
    61	    64	     1
   124	   125	     1
    51	    76	     1
    80	    81	     1
    55	    72	     1
   185	   193	     1
   142	   161	     1
    58	    59	     1
   106	   127	     1
   143	   164	     1
   153	   167	     1
   111	   133	     1
   185	   192	     1
    38	    39	     1
    17	    36	     1
   154	   173	     1
   149	   155	     1
     8	    17	     1
   106	   122	     1
   150	   172	     1
   153	   168	     1
    62	    78	     1
   182	   197	     1
    18	    39	     1
    95	   115	     1
   139	   157	     1
    51	    71	     1
   182	   187	     1
     4	    24	     1
   182	   194	     1
    45	    88	     1
   148	   151	     1
    61	    80	     1
    22	    48	     1
    96	   105	     1
    94	   121	     1
   154	   172	     1
    92	   112	     1
   141	   164	     1
    23	    39	     1
   138	   147	     1
    59	    72	     1
   144	   145	     1
   149	   168	     1
    52	    55	     1
    52	    57	     1
    19	    38	     1
    82	    89	     1
    17	    22	     1
    91	   115	     1
    51	    87	     1
   107	   126	     1
    66	    86	     1
    62	    86	     1
   139	   152	     1
   186	   190	     1
    53	    56	     1
    51	    69	     1
   148	   153	     1
     1	    24	     1
   150	   174	     1
    14	    24	     1
   186	   194	     1
   185	   187	     1
    61	    82	     1
   101	   116	     1
    68	    71	     1
   153	   188	     1
   133	   158	     1
    91	    94	     1
   106	   125	     1
    94	   114	     1
    62	    83	     1
    66	    92	     1
    70	    71	     1
   105	   126	     1
    11	    28	     1
     8	    37	     1
   150	   171	     1
    95	   116	     1
    98	   119	     1
   154	   174	     1
    95	   120	     1
    93	   131	     1
    11	    14	     1
   137	   157	     1
   105	   108	     1
   142	   147	     1
    50	    77	     1
   105	   124	     1
   146	   156	     1
     3	   177	     1
     9	    16	     1
     1	   181	     1
    38	    42	     1
   184	   197	     1
   184	   190	     1
    34	    35	     1
     6	    44	     1
   150	   187	     1
    64	    78	     1
   171	   188	     1
    60	    81	     1
    18	    42	     1
     2	   177	     1
   103	   123	     1
    52	    61	     1
    60	    63	     1
   135	   159	     1
    16	    19	     1
   103	   116	     1
     9	    14	     1
    54	    75	     1
     8	    24	     1
    19	    35	     1
    98	   121	     1
   140	   169	     1
    63	    67	     1
    93	    96	     1
    21	    47	     1
   138	   165	     1
    48	    68	     1
   139	   160	     1
   157	   158	     1
   139	   148	     1
    87	    88	     1
    97	   120	     1
   106	   129	     1
    18	    37	     1
    61	    66	     1
   135	   175	     1
    65	    91	     1
   114	   115	     1
    69	    70	     1
     9	    32	     1
   140	   143	     1
     7	    25	     1
   151	   170	     1
    97	   100	     1
    53	    60	     1
   106	   133	     1
    22	    42	     1
    15	    28	     1
   183	   188	     1
    89	   114	     1
    16	    37	     1
    10	    29	     1
   186	   195	     1
   127	   134	     1
     1	   180	     1
   156	   159	     1
    57	    72	     1
   146	   147	     1
   150	   173	     1
    51	    72	     1
   140	   149	     1
   110	   130	     1
    22	    69	     1
    65	    80	     1
    62	    81	     1
     2	    25	     1
    52	    78	     1
    94	   132	     1
    52	    68	     1
   147	   160	     1
     8	    34	     1
   186	   196	     1
   113	   114	     1
     6	     9	     1
   158	   159	     1
     1	     5	     1
   104	   125	     1
   142	   165	     1
    59	    79	     1
   142	   163	     1
    55	    76	     1
    55	    58	     1
   102	   112	     1
   147	   150	     1
     5	     8	     1
   134	   136	     1
    49	    58	     1
   186	   189	     1
   184	   195	     1
   112	   115	     1
   140	   165	     1
    38	    41	     1
     7	    32	     1
   141	   144	     1
   153	   186	     1
   186	   191	     1
   102	   103	     1
    18	    41	     1
     7	    10	     1
   107	   123	     1
   109	   124	     1
    17	    23	     1
     8	    33	     1
    96	   122	     1
   135	   138	     1
   140	   145	     1
   140	   156	     1
    10	    30	     1
     1	   179	     1
   126	   129	     1
    51	    64	     1
    67	    83	     1
   143	   160	     1
   110	   157	     1
   131	   132	     1
    82	    86	     1
    21	    35	     1
    94	   101	     1
   126	   130	     1
   104	   109	     1
    38	    40	     1
    65	    90	     1
   168	   169	     1
   143	   146	     1
    18	    34	     1
   185	   190	     1
   150	   169	     1
    90	   113	     1
   171	   186	     1
    18	    40	     1
    25	   178	     1
    47	    87	     1
   184	   189	     1
   185	   194	     1
   170	   174	     1
     8	    13	     1
   184	   191	     1
    39	    47	     1
    22	    41	     1
   126	   127	     1
   140	   151	     1
    14	    15	     1
    94	   103	     1
    58	    68	     1
    49	    87	     1
   109	   135	     1
     5	    25	     1
    51	    60	     1
   170	   171	     1
    93	   102	     1
   139	   159	     1
    50	    70	     1
   141	   148	     1
     4	     7	     1
    10	    33	     1
    49	    69	     1
    54	    73	     1
     6	    26	     1
   107	   111	     1
    96	   125	     1
    59	    62	     1
    38	    45	     1
    15	    36	     1
    22	    40	     1
    32	    33	     1
    39	    46	     1
   151	   154	     1
   170	   187	     1
    15	    35	     1
    95	   131	     1
   139	   175	     1
   182	   195	     1
    12	    13	     1
    46	    69	     1
    51	    54	     1
    95	    98	     1
   152	   166	     1
    17	    20	     1
    10	    31	     1
   108	   122	     1
    63	    82	     1
    83	    91	     1
    62	    84	     1
     7	    43	     1
   182	   196	     1
   142	   162	     1
   138	   158	     1
    91	   131	     1
     7	    27	     1
   133	   176	     1
     6	    33	     1
    54	    59	     1
   147	   168	     1
    54	    77	     1
    60	    65	     1
    19	    23	     1
     3	     6	     1
   166	   167	     1
    52	    63	     1
     7	    16	     1
     9	    20	     1
    96	   121	     1
    93	   113	     1
    19	    22	     1
    25	    26	     1
    47	    50	     1
    21	    46	     1
   110	   129	     1
    46	    48	     1
    78	    79	     1
     7	    28	     1
    98	   103	     1
   103	   106	     1
    15	    18	     1
    45	    70	     1
   170	   173	     1
   104	   107	     1
    76	    77	     1
   151	   155	     1
     6	    13	     1
   133	   137	     1
    96	   101	     1
     2	     4	     1
   110	   136	     1
    97	   104	     1
   107	   110	     1
   122	   123	     1
    99	   116	     1
    66	    85	     1
    62	    85	     1
    97	   108	     1
    99	   102	     1
   138	   141	     1
   137	   175	     1
   149	   170	     1
     4	   178	     1
   109	   123	     1
    96	   112	     1
   186	   193	     1
   141	   152	     1
    10	    15	     1
   154	   183	     1
   170	   172	     1
   136	   176	     1
   149	   152	     1
   186	   192	     1
    63	    66	     1
   105	   110	     1
    90	    92	     1
   185	   189	     1
   137	   146	     1
   140	   166	     1
   185	   191	     1
   138	   176	     1
   152	   153	     1
    65	    79	     1
   137	   140	     1
     7	    20	     1
    47	    71	     1
    56	    57	     1
    16	    21	     1
   184	   196	     1
    83	    90	     1
     9	    12	     1
    67	    89	     1
   139	   142	     1
    21	    36	     1
   111	   127	     1
    50	    57	     1
   145	   160	     1
   155	   171	     1
   126	   133	     1
   106	   128	     1
    45	    49	     1
    36	    37	     1
    24	    27	     1
   108	   109	     1
     6	    15	     1
     8	    19	     1
    62	    89	     1
    82	    83	     1
   155	   187	     1
    89	   132	     1
     5	    43	     1
    43	    44	     1
    53	    76	     1
   175	   176	     1
    53	    58	     1
   110	   128	     1
   186	   197	     1
    45	    68	     1
   120	   121	     1
    61	    67	     1
   127	   135	     1
    98	   118	     1
    96	   107	     1
   148	   169	     1
   141	   146	     1
    48	    88	     1
    98	   117	     1
   134	   157	     1
   139	   164	     1
     4	    44	     1
   133	   156	     1
    49	    52	     1
    52	    77	     1
    18	    45	     1
     5	    14	     1
    50	    59	     1
   100	   101	     1
   136	   139	     1
    13	    28	     1
    64	    65	     1
    95	   104	     1
    20	    21	     1
    94	    97	     1
   147	   167	     1
     8	    11	     1
   105	   111	     1
    95	   108	     1
    66	    84	     1
    82	    84	     1
   184	   187	     1
    23	    45	     1
   164	   165	     1
    48	    51	     1
    63	    79	     1
    17	    38	     1
    53	    64	     1
    66	   113	     1
   126	   128	     1
     1	    44	     1
     1	    26	     1
     3	    43	     1
    11	    32	     1
    89	   112	     1
   149	   154	     1
    89	    93	     1
    52	    81	     1
   150	   166	     1
    50	    88	     1
     3	    27	     1
   182	   193	     1
    20	    34	     1
    50	    53	     1
    92	    95	     1
   136	   156	     1
   182	   192	     1
    26	    27	     1
    92	   132	     1
   103	   124	     1
    97	   102	     1
    59	    80	     1
   138	   145	     1
    96	    99	     1
   106	   130	     1

[ bonds ]
;ai    aj   funct r k
     1      2      1      0.122500229618  637673.816836400889 
     1      3      1      0.146787322362  223784.907186336932 
     1    178      1      0.135606196339  243795.038367059984 
     3      4      1      0.140070606401  315369.603109081567 
     3     25      1      0.140070606401  315369.603109081567 
     4      5      1      0.140070606401  315369.603109081567 
     4     26      1      0.108603610657  323372.939138590940 
     5      6      1      0.140070606401  315369.603109081567 
     5     27      1      0.108603610657  323372.939138590940 
     6      7      1      0.146787322362  223784.907186336932 
     6     24      1      0.140070606401  315369.603109081567 
     7      8      1      0.140070606401  315369.603109081567 
     7     14      1      0.140070606401  315369.603109081567 
     8      9      1      0.140070606401  315369.603109081567 
     8     15      1      0.146787322362  223784.907186336932 
     9     10      1      0.140070606401  315369.603109081567 
     9     28      1      0.108603610657  323372.939138590940 
    10     11      1      0.137202606628  266731.066406706930 
    10     13      1      0.140070606401  315369.603109081567 
    11     12      1      0.143632390591  189984.684332368197 
    12     29      1      0.109288837838  317186.185378679947 
    12     30      1      0.109288837838  317186.185378679947 
    12     31      1      0.109288837838  317186.185378679947 
    13     14      1      0.140070606401  315369.603109081567 
    13     32      1      0.108603610657  323372.939138590940 
    14     33      1      0.108603610657  323372.939138590940 
    15     16      1      0.140070606401  315369.603109081567 
    15     20      1      0.140070606401  315369.603109081567 
    16     17      1      0.140070606401  315369.603109081567 
    16     34      1      0.108603610657  323372.939138590940 
    17     18      1      0.140070606401  315369.603109081567 
    17     35      1      0.108603610657  323372.939138590940 
    18     19      1      0.140070606401  315369.603109081567 
    18     21      1      0.150959128588  200304.454300773097 
    19     20      1      0.140070606401  315369.603109081567 
    19     36      1      0.108603610657  323372.939138590940 
    20     37      1      0.108603610657  323372.939138590940 
    21     22      1      0.146209979488  202028.005744964030 
    21     23      1      0.153362760384  180164.203623913403 
    21     38      1      0.109288837838  317186.185378679947 
    22     39      1      0.101860473038  402492.840307690029 
    22     45      1      0.138376574172  273614.770187574963 
    23     40      1      0.109288837838  317186.185378679947 
    23     41      1      0.109288837838  317186.185378679947 
    23     42      1      0.109288837838  317186.185378679947 
    24     25      1      0.140070606401  315369.603109081567 
    24     43      1      0.108603610657  323372.939138590940 
    25     44      1      0.108603610657  323372.939138590940 
    45     46      1      0.122500229618  637673.816836400889 
    45     47      1      0.146787322362  223784.907186336932 
    47     48      1      0.140070606401  315369.603109081567 
    47     69      1      0.140070606401  315369.603109081567 
    48     49      1      0.140070606401  315369.603109081567 
    48     70      1      0.108603610657  323372.939138590940 
    49     50      1      0.140070606401  315369.603109081567 
    49     71      1      0.108603610657  323372.939138590940 
    50     51      1      0.146787322362  223784.907186336932 
    50     68      1      0.140070606401  315369.603109081567 
    51     52      1      0.140070606401  315369.603109081567 
    51     58      1      0.140070606401  315369.603109081567 
    52     53      1      0.140070606401  315369.603109081567 
    52     59      1      0.146787322362  223784.907186336932 
    53     54      1      0.140070606401  315369.603109081567 
    53     72      1      0.108603610657  323372.939138590940 
    54     55      1      0.137202606628  266731.066406706930 
    54     57      1      0.140070606401  315369.603109081567 
    55     56      1      0.143632390591  189984.684332368197 
    56     73      1      0.109288837838  317186.185378679947 
    56     74      1      0.109288837838  317186.185378679947 
    56     75      1      0.109288837838  317186.185378679947 
    57     58      1      0.140070606401  315369.603109081567 
    57     76      1      0.108603610657  323372.939138590940 
    58     77      1      0.108603610657  323372.939138590940 
    59     60      1      0.140070606401  315369.603109081567 
    59     64      1      0.140070606401  315369.603109081567 
    60     61      1      0.140070606401  315369.603109081567 
    60     78      1      0.108603610657  323372.939138590940 
    61     62      1      0.140070606401  315369.603109081567 
    61     79      1      0.108603610657  323372.939138590940 
    62     63      1      0.140070606401  315369.603109081567 
    62     65      1      0.150959128588  200304.454300773097 
    63     64      1      0.140070606401  315369.603109081567 
    63     80      1      0.108603610657  323372.939138590940 
    64     81      1      0.108603610657  323372.939138590940 
    65     66      1      0.146209979488  202028.005744964030 
    65     67      1      0.153362760384  180164.203623913403 
    65     82      1      0.109288837838  317186.185378679947 
    66     83      1      0.101860473038  402492.840307690029 
    66     89      1      0.138376574172  273614.770187574963 
    67     84      1      0.109288837838  317186.185378679947 
    67     85      1      0.109288837838  317186.185378679947 
    67     86      1      0.109288837838  317186.185378679947 
    68     69      1      0.140070606401  315369.603109081567 
    68     87      1      0.108603610657  323372.939138590940 
    69     88      1      0.108603610657  323372.939138590940 
    89     90      1      0.122500229618  637673.816836400889 
    89     91      1      0.146787322362  223784.907186336932 
    91     92      1      0.140070606401  315369.603109081567 
    91    113      1      0.140070606401  315369.603109081567 
    92     93      1      0.140070606401  315369.603109081567 
    92    114      1      0.108603610657  323372.939138590940 
    93     94      1      0.140070606401  315369.603109081567 
    93    115      1      0.108603610657  323372.939138590940 
    94     95      1      0.146787322362  223784.907186336932 
    94    112      1      0.140070606401  315369.603109081567 
    95     96      1      0.140070606401  315369.603109081567 
    95    102      1      0.140070606401  315369.603109081567 
    96     97      1      0.140070606401  315369.603109081567 
    96    103      1      0.146787322362  223784.907186336932 
    97     98      1      0.140070606401  315369.603109081567 
    97    116      1      0.108603610657  323372.939138590940 
    98     99      1      0.137202606628  266731.066406706930 
    98    101      1      0.140070606401  315369.603109081567 
    99    100      1      0.143632390591  189984.684332368197 
   100    117      1      0.109288837838  317186.185378679947 
   100    118      1      0.109288837838  317186.185378679947 
   100    119      1      0.109288837838  317186.185378679947 
   101    102      1      0.140070606401  315369.603109081567 
   101    120      1      0.108603610657  323372.939138590940 
   102    121      1      0.108603610657  323372.939138590940 
   103    104      1      0.140070606401  315369.603109081567 
   103    108      1      0.140070606401  315369.603109081567 
   104    105      1      0.140070606401  315369.603109081567 
   104    122      1      0.108603610657  323372.939138590940 
   105    106      1      0.140070606401  315369.603109081567 
   105    123      1      0.108603610657  323372.939138590940 
   106    107      1      0.140070606401  315369.603109081567 
   106    109      1      0.150959128588  200304.454300773097 
   107    108      1      0.140070606401  315369.603109081567 
   107    124      1      0.108603610657  323372.939138590940 
   108    125      1      0.108603610657  323372.939138590940 
   109    110      1      0.146209979488  202028.005744964030 
   109    111      1      0.153362760384  180164.203623913403 
   109    126      1      0.109288837838  317186.185378679947 
   110    127      1      0.101860473038  402492.840307690029 
   110    133      1      0.138376574172  273614.770187574963 
   111    128      1      0.109288837838  317186.185378679947 
   111    129      1      0.109288837838  317186.185378679947 
   111    130      1      0.109288837838  317186.185378679947 
   112    113      1      0.140070606401  315369.603109081567 
   112    131      1      0.108603610657  323372.939138590940 
   113    132      1      0.108603610657  323372.939138590940 
   133    134      1      0.122500229618  637673.816836400889 
   133    135      1      0.146787322362  223784.907186336932 
   135    136      1      0.140070606401  315369.603109081567 
   135    157      1      0.140070606401  315369.603109081567 
   136    137      1      0.140070606401  315369.603109081567 
   136    158      1      0.108603610657  323372.939138590940 
   137    138      1      0.140070606401  315369.603109081567 
   137    159      1      0.108603610657  323372.939138590940 
   138    139      1      0.146787322362  223784.907186336932 
   138    156      1      0.140070606401  315369.603109081567 
   139    140      1      0.140070606401  315369.603109081567 
   139    146      1      0.140070606401  315369.603109081567 
   140    141      1      0.140070606401  315369.603109081567 
   140    147      1      0.146787322362  223784.907186336932 
   141    142      1      0.140070606401  315369.603109081567 
   141    160      1      0.108603610657  323372.939138590940 
   142    143      1      0.137202606628  266731.066406706930 
   142    145      1      0.140070606401  315369.603109081567 
   143    144      1      0.143632390591  189984.684332368197 
   144    161      1      0.109288837838  317186.185378679947 
   144    162      1      0.109288837838  317186.185378679947 
   144    163      1      0.109288837838  317186.185378679947 
   145    146      1      0.140070606401  315369.603109081567 
   145    164      1      0.108603610657  323372.939138590940 
   146    165      1      0.108603610657  323372.939138590940 
   147    148      1      0.140070606401  315369.603109081567 
   147    152      1      0.140070606401  315369.603109081567 
   148    149      1      0.140070606401  315369.603109081567 
   148    166      1      0.108603610657  323372.939138590940 
   149    150      1      0.140070606401  315369.603109081567 
   149    167      1      0.108603610657  323372.939138590940 
   150    151      1      0.140070606401  315369.603109081567 
   150    153      1      0.150959128588  200304.454300773097 
   151    152      1      0.140070606401  315369.603109081567 
   151    168      1      0.108603610657  323372.939138590940 
   152    169      1      0.108603610657  323372.939138590940 
   153    154      1      0.146209979488  202028.005744964030 
   153    155      1      0.153362760384  180164.203623913403 
   153    170      1      0.109288837838  317186.185378679947 
   154    171      1      0.101860473038  402492.840307690029 
   154    187      1      0.138376574172  273614.770187574963 
   155    172      1      0.109288837838  317186.185378679947 
   155    173      1      0.109288837838  317186.185378679947 
   155    174      1      0.109288837838  317186.185378679947 
   156    157      1      0.140070606401  315369.603109081567 
   156    175      1      0.108603610657  323372.939138590940 
   157    176      1      0.108603610657  323372.939138590940 
   177    178      1      0.143632390591  189984.684332368197 
   177    179      1      0.109288837838  317186.185378679947 
   177    180      1      0.109288837838  317186.185378679947 
   177    181      1      0.109288837838  317186.185378679947 
   182    183      1      0.153362760384  180164.203623913403 
   182    189      1      0.109288837838  317186.185378679947 
   182    190      1      0.109288837838  317186.185378679947 
   182    191      1      0.109288837838  317186.185378679947 
   183    184      1      0.153362760384  180164.203623913403 
   183    185      1      0.153362760384  180164.203623913403 
   183    186      1      0.143632390591  189984.684332368197 
   184    192      1      0.109288837838  317186.185378679947 
   184    193      1      0.109288837838  317186.185378679947 
   184    194      1      0.109288837838  317186.185378679947 
   185    195      1      0.109288837838  317186.185378679947 
   185    196      1      0.109288837838  317186.185378679947 
   185    197      1      0.109288837838  317186.185378679947 
   186    187      1      0.135606196339  243795.038367059984 
   187    188      1      0.122500229618  637673.816836400889 

[ angles ]
;ai    aj   ak   funct theta  k
     1      3      4      1     120.104999638600     707.494800457430 
     1      3     25      1     120.104999638600     707.494800457430 
     1    178    177      1     112.873616114500    1003.288803783688 
     2      1      3      1     120.104999638600     707.494800457430 
     2      1    178      1     123.605890003500     529.778359969850 
     3      1    178      1     120.104999638600     707.494800457430 
     3      4      5      1     120.104999638600     707.494800457430 
     3      4     26      1     119.854485991700     275.494453586476 
     3     25     24      1     120.104999638600     707.494800457430 
     3     25     44      1     119.854485991700     275.494453586476 
     4      3     25      1     120.104999638600     707.494800457430 
     4      5      6      1     120.104999638600     707.494800457430 
     4      5     27      1     119.854485991700     275.494453586476 
     5      4     26      1     119.854485991700     275.494453586476 
     5      6      7      1     120.104999638600     707.494800457430 
     5      6     24      1     120.104999638600     707.494800457430 
     6      5     27      1     119.854485991700     275.494453586476 
     6      7      8      1     120.104999638600     707.494800457430 
     6      7     14      1     120.104999638600     707.494800457430 
     6     24     25      1     120.104999638600     707.494800457430 
     6     24     43      1     119.854485991700     275.494453586476 
     7      6     24      1     120.104999638600     707.494800457430 
     7      8      9      1     120.104999638600     707.494800457430 
     7      8     15      1     120.104999638600     707.494800457430 
     7     14     13      1     120.104999638600     707.494800457430 
     7     14     33      1     119.854485991700     275.494453586476 
     8      7     14      1     120.104999638600     707.494800457430 
     8      9     10      1     120.104999638600     707.494800457430 
     8      9     28      1     119.854485991700     275.494453586476 
     8     15     16      1     120.104999638600     707.494800457430 
     8     15     20      1     120.104999638600     707.494800457430 
     9      8     15      1     120.104999638600     707.494800457430 
     9     10     11      1     120.104999638600     707.494800457430 
     9     10     13      1     120.104999638600     707.494800457430 
    10      9     28      1     119.854485991700     275.494453586476 
    10     11     12      1     112.873616114500    1003.288803783688 
    10     13     14      1     120.104999638600     707.494800457430 
    10     13     32      1     119.854485991700     275.494453586476 
    11     10     13      1     120.104999638600     707.494800457430 
    11     12     29      1     107.660782175200     425.669014814353 
    11     12     30      1     107.660782175200     425.669014814353 
    11     12     31      1     107.660782175200     425.669014814353 
    13     14     33      1     119.854485991700     275.494453586476 
    14     13     32      1     119.854485991700     275.494453586476 
    15     16     17      1     120.104999638600     707.494800457430 
    15     16     34      1     119.854485991700     275.494453586476 
    15     20     19      1     120.104999638600     707.494800457430 
    15     20     37      1     119.854485991700     275.494453586476 
    16     15     20      1     120.104999638600     707.494800457430 
    16     17     18      1     120.104999638600     707.494800457430 
    16     17     35      1     119.854485991700     275.494453586476 
    17     16     34      1     119.854485991700     275.494453586476 
    17     18     19      1     120.104999638600     707.494800457430 
    17     18     21      1     120.104999638600     707.494800457430 
    18     17     35      1     119.854485991700     275.494453586476 
    18     19     20      1     120.104999638600     707.494800457430 
    18     19     36      1     119.854485991700     275.494453586476 
    18     21     22      1     107.660782175200     425.669014814353 
    18     21     23      1     107.660782175200     425.669014814353 
    18     21     38      1     107.660782175200     425.669014814353 
    19     18     21      1     120.104999638600     707.494800457430 
    19     20     37      1     119.854485991700     275.494453586476 
    20     19     36      1     119.854485991700     275.494453586476 
    21     22     39      1     118.063661129300     310.493309961378 
    21     22     45      1     121.770534386700     665.074567904266 
    21     23     40      1     107.660782175200     425.669014814353 
    21     23     41      1     107.660782175200     425.669014814353 
    21     23     42      1     107.660782175200     425.669014814353 
    22     21     23      1     107.660782175200     425.669014814353 
    22     21     38      1     107.660782175200     425.669014814353 
    22     45     46      1     120.104999638600     707.494800457430 
    22     45     47      1     120.104999638600     707.494800457430 
    23     21     38      1     107.660782175200     425.669014814353 
    24     25     44      1     119.854485991700     275.494453586476 
    25     24     43      1     119.854485991700     275.494453586476 
    29     12     30      1     108.354313526900     307.746905535118 
    29     12     31      1     108.354313526900     307.746905535118 
    30     12     31      1     108.354313526900     307.746905535118 
    39     22     45      1     118.063661129300     310.493309961378 
    40     23     41      1     108.354313526900     307.746905535118 
    40     23     42      1     108.354313526900     307.746905535118 
    41     23     42      1     108.354313526900     307.746905535118 
    45     47     48      1     120.104999638600     707.494800457430 
    45     47     69      1     120.104999638600     707.494800457430 
    46     45     47      1     120.104999638600     707.494800457430 
    47     48     49      1     120.104999638600     707.494800457430 
    47     48     70      1     119.854485991700     275.494453586476 
    47     69     68      1     120.104999638600     707.494800457430 
    47     69     88      1     119.854485991700     275.494453586476 
    48     47     69      1     120.104999638600     707.494800457430 
    48     49     50      1     120.104999638600     707.494800457430 
    48     49     71      1     119.854485991700     275.494453586476 
    49     48     70      1     119.854485991700     275.494453586476 
    49     50     51      1     120.104999638600     707.494800457430 
    49     50     68      1     120.104999638600     707.494800457430 
    50     49     71      1     119.854485991700     275.494453586476 
    50     51     52      1     120.104999638600     707.494800457430 
    50     51     58      1     120.104999638600     707.494800457430 
    50     68     69      1     120.104999638600     707.494800457430 
    50     68     87      1     119.854485991700     275.494453586476 
    51     50     68      1     120.104999638600     707.494800457430 
    51     52     53      1     120.104999638600     707.494800457430 
    51     52     59      1     120.104999638600     707.494800457430 
    51     58     57      1     120.104999638600     707.494800457430 
    51     58     77      1     119.854485991700     275.494453586476 
    52     51     58      1     120.104999638600     707.494800457430 
    52     53     54      1     120.104999638600     707.494800457430 
    52     53     72      1     119.854485991700     275.494453586476 
    52     59     60      1     120.104999638600     707.494800457430 
    52     59     64      1     120.104999638600     707.494800457430 
    53     52     59      1     120.104999638600     707.494800457430 
    53     54     55      1     120.104999638600     707.494800457430 
    53     54     57      1     120.104999638600     707.494800457430 
    54     53     72      1     119.854485991700     275.494453586476 
    54     55     56      1     112.873616114500    1003.288803783688 
    54     57     58      1     120.104999638600     707.494800457430 
    54     57     76      1     119.854485991700     275.494453586476 
    55     54     57      1     120.104999638600     707.494800457430 
    55     56     73      1     107.660782175200     425.669014814353 
    55     56     74      1     107.660782175200     425.669014814353 
    55     56     75      1     107.660782175200     425.669014814353 
    57     58     77      1     119.854485991700     275.494453586476 
    58     57     76      1     119.854485991700     275.494453586476 
    59     60     61      1     120.104999638600     707.494800457430 
    59     60     78      1     119.854485991700     275.494453586476 
    59     64     63      1     120.104999638600     707.494800457430 
    59     64     81      1     119.854485991700     275.494453586476 
    60     59     64      1     120.104999638600     707.494800457430 
    60     61     62      1     120.104999638600     707.494800457430 
    60     61     79      1     119.854485991700     275.494453586476 
    61     60     78      1     119.854485991700     275.494453586476 
    61     62     63      1     120.104999638600     707.494800457430 
    61     62     65      1     120.104999638600     707.494800457430 
    62     61     79      1     119.854485991700     275.494453586476 
    62     63     64      1     120.104999638600     707.494800457430 
    62     63     80      1     119.854485991700     275.494453586476 
    62     65     66      1     107.660782175200     425.669014814353 
    62     65     67      1     107.660782175200     425.669014814353 
    62     65     82      1     107.660782175200     425.669014814353 
    63     62     65      1     120.104999638600     707.494800457430 
    63     64     81      1     119.854485991700     275.494453586476 
    64     63     80      1     119.854485991700     275.494453586476 
    65     66     83      1     118.063661129300     310.493309961378 
    65     66     89      1     121.770534386700     665.074567904266 
    65     67     84      1     107.660782175200     425.669014814353 
    65     67     85      1     107.660782175200     425.669014814353 
    65     67     86      1     107.660782175200     425.669014814353 
    66     65     67      1     107.660782175200     425.669014814353 
    66     65     82      1     107.660782175200     425.669014814353 
    66     89     90      1     120.104999638600     707.494800457430 
    66     89     91      1     120.104999638600     707.494800457430 
    67     65     82      1     107.660782175200     425.669014814353 
    68     69     88      1     119.854485991700     275.494453586476 
    69     68     87      1     119.854485991700     275.494453586476 
    73     56     74      1     108.354313526900     307.746905535118 
    73     56     75      1     108.354313526900     307.746905535118 
    74     56     75      1     108.354313526900     307.746905535118 
    83     66     89      1     118.063661129300     310.493309961378 
    84     67     85      1     108.354313526900     307.746905535118 
    84     67     86      1     108.354313526900     307.746905535118 
    85     67     86      1     108.354313526900     307.746905535118 
    89     91     92      1     120.104999638600     707.494800457430 
    89     91    113      1     120.104999638600     707.494800457430 
    90     89     91      1     120.104999638600     707.494800457430 
    91     92     93      1     120.104999638600     707.494800457430 
    91     92    114      1     119.854485991700     275.494453586476 
    91    113    112      1     120.104999638600     707.494800457430 
    91    113    132      1     119.854485991700     275.494453586476 
    92     91    113      1     120.104999638600     707.494800457430 
    92     93     94      1     120.104999638600     707.494800457430 
    92     93    115      1     119.854485991700     275.494453586476 
    93     92    114      1     119.854485991700     275.494453586476 
    93     94     95      1     120.104999638600     707.494800457430 
    93     94    112      1     120.104999638600     707.494800457430 
    94     93    115      1     119.854485991700     275.494453586476 
    94     95     96      1     120.104999638600     707.494800457430 
    94     95    102      1     120.104999638600     707.494800457430 
    94    112    113      1     120.104999638600     707.494800457430 
    94    112    131      1     119.854485991700     275.494453586476 
    95     94    112      1     120.104999638600     707.494800457430 
    95     96     97      1     120.104999638600     707.494800457430 
    95     96    103      1     120.104999638600     707.494800457430 
    95    102    101      1     120.104999638600     707.494800457430 
    95    102    121      1     119.854485991700     275.494453586476 
    96     95    102      1     120.104999638600     707.494800457430 
    96     97     98      1     120.104999638600     707.494800457430 
    96     97    116      1     119.854485991700     275.494453586476 
    96    103    104      1     120.104999638600     707.494800457430 
    96    103    108      1     120.104999638600     707.494800457430 
    97     96    103      1     120.104999638600     707.494800457430 
    97     98     99      1     120.104999638600     707.494800457430 
    97     98    101      1     120.104999638600     707.494800457430 
    98     97    116      1     119.854485991700     275.494453586476 
    98     99    100      1     112.873616114500    1003.288803783688 
    98    101    102      1     120.104999638600     707.494800457430 
    98    101    120      1     119.854485991700     275.494453586476 
    99     98    101      1     120.104999638600     707.494800457430 
    99    100    117      1     107.660782175200     425.669014814353 
    99    100    118      1     107.660782175200     425.669014814353 
    99    100    119      1     107.660782175200     425.669014814353 
   101    102    121      1     119.854485991700     275.494453586476 
   102    101    120      1     119.854485991700     275.494453586476 
   103    104    105      1     120.104999638600     707.494800457430 
   103    104    122      1     119.854485991700     275.494453586476 
   103    108    107      1     120.104999638600     707.494800457430 
   103    108    125      1     119.854485991700     275.494453586476 
   104    103    108      1     120.104999638600     707.494800457430 
   104    105    106      1     120.104999638600     707.494800457430 
   104    105    123      1     119.854485991700     275.494453586476 
   105    104    122      1     119.854485991700     275.494453586476 
   105    106    107      1     120.104999638600     707.494800457430 
   105    106    109      1     120.104999638600     707.494800457430 
   106    105    123      1     119.854485991700     275.494453586476 
   106    107    108      1     120.104999638600     707.494800457430 
   106    107    124      1     119.854485991700     275.494453586476 
   106    109    110      1     107.660782175200     425.669014814353 
   106    109    111      1     107.660782175200     425.669014814353 
   106    109    126      1     107.660782175200     425.669014814353 
   107    106    109      1     120.104999638600     707.494800457430 
   107    108    125      1     119.854485991700     275.494453586476 
   108    107    124      1     119.854485991700     275.494453586476 
   109    110    127      1     118.063661129300     310.493309961378 
   109    110    133      1     121.770534386700     665.074567904266 
   109    111    128      1     107.660782175200     425.669014814353 
   109    111    129      1     107.660782175200     425.669014814353 
   109    111    130      1     107.660782175200     425.669014814353 
   110    109    111      1     107.660782175200     425.669014814353 
   110    109    126      1     107.660782175200     425.669014814353 
   110    133    134      1     120.104999638600     707.494800457430 
   110    133    135      1     120.104999638600     707.494800457430 
   111    109    126      1     107.660782175200     425.669014814353 
   112    113    132      1     119.854485991700     275.494453586476 
   113    112    131      1     119.854485991700     275.494453586476 
   117    100    118      1     108.354313526900     307.746905535118 
   117    100    119      1     108.354313526900     307.746905535118 
   118    100    119      1     108.354313526900     307.746905535118 
   127    110    133      1     118.063661129300     310.493309961378 
   128    111    129      1     108.354313526900     307.746905535118 
   128    111    130      1     108.354313526900     307.746905535118 
   129    111    130      1     108.354313526900     307.746905535118 
   133    135    136      1     120.104999638600     707.494800457430 
   133    135    157      1     120.104999638600     707.494800457430 
   134    133    135      1     120.104999638600     707.494800457430 
   135    136    137      1     120.104999638600     707.494800457430 
   135    136    158      1     119.854485991700     275.494453586476 
   135    157    156      1     120.104999638600     707.494800457430 
   135    157    176      1     119.854485991700     275.494453586476 
   136    135    157      1     120.104999638600     707.494800457430 
   136    137    138      1     120.104999638600     707.494800457430 
   136    137    159      1     119.854485991700     275.494453586476 
   137    136    158      1     119.854485991700     275.494453586476 
   137    138    139      1     120.104999638600     707.494800457430 
   137    138    156      1     120.104999638600     707.494800457430 
   138    137    159      1     119.854485991700     275.494453586476 
   138    139    140      1     120.104999638600     707.494800457430 
   138    139    146      1     120.104999638600     707.494800457430 
   138    156    157      1     120.104999638600     707.494800457430 
   138    156    175      1     119.854485991700     275.494453586476 
   139    138    156      1     120.104999638600     707.494800457430 
   139    140    141      1     120.104999638600     707.494800457430 
   139    140    147      1     120.104999638600     707.494800457430 
   139    146    145      1     120.104999638600     707.494800457430 
   139    146    165      1     119.854485991700     275.494453586476 
   140    139    146      1     120.104999638600     707.494800457430 
   140    141    142      1     120.104999638600     707.494800457430 
   140    141    160      1     119.854485991700     275.494453586476 
   140    147    148      1     120.104999638600     707.494800457430 
   140    147    152      1     120.104999638600     707.494800457430 
   141    140    147      1     120.104999638600     707.494800457430 
   141    142    143      1     120.104999638600     707.494800457430 
   141    142    145      1     120.104999638600     707.494800457430 
   142    141    160      1     119.854485991700     275.494453586476 
   142    143    144      1     112.873616114500    1003.288803783688 
   142    145    146      1     120.104999638600     707.494800457430 
   142    145    164      1     119.854485991700     275.494453586476 
   143    142    145      1     120.104999638600     707.494800457430 
   143    144    161      1     107.660782175200     425.669014814353 
   143    144    162      1     107.660782175200     425.669014814353 
   143    144    163      1     107.660782175200     425.669014814353 
   145    146    165      1     119.854485991700     275.494453586476 
   146    145    164      1     119.854485991700     275.494453586476 
   147    148    149      1     120.104999638600     707.494800457430 
   147    148    166      1     119.854485991700     275.494453586476 
   147    152    151      1     120.104999638600     707.494800457430 
   147    152    169      1     119.854485991700     275.494453586476 
   148    147    152      1     120.104999638600     707.494800457430 
   148    149    150      1     120.104999638600     707.494800457430 
   148    149    167      1     119.854485991700     275.494453586476 
   149    148    166      1     119.854485991700     275.494453586476 
   149    150    151      1     120.104999638600     707.494800457430 
   149    150    153      1     120.104999638600     707.494800457430 
   150    149    167      1     119.854485991700     275.494453586476 
   150    151    152      1     120.104999638600     707.494800457430 
   150    151    168      1     119.854485991700     275.494453586476 
   150    153    154      1     107.660782175200     425.669014814353 
   150    153    155      1     107.660782175200     425.669014814353 
   150    153    170      1     107.660782175200     425.669014814353 
   151    150    153      1     120.104999638600     707.494800457430 
   151    152    169      1     119.854485991700     275.494453586476 
   152    151    168      1     119.854485991700     275.494453586476 
   153    154    171      1     118.063661129300     310.493309961378 
   153    154    187      1     121.770534386700     665.074567904266 
   153    155    172      1     107.660782175200     425.669014814353 
   153    155    173      1     107.660782175200     425.669014814353 
   153    155    174      1     107.660782175200     425.669014814353 
   154    153    155      1     107.660782175200     425.669014814353 
   154    153    170      1     107.660782175200     425.669014814353 
   154    187    186      1     120.104999638600     707.494800457430 
   154    187    188      1     120.104999638600     707.494800457430 
   155    153    170      1     107.660782175200     425.669014814353 
   156    157    176      1     119.854485991700     275.494453586476 
   157    156    175      1     119.854485991700     275.494453586476 
   161    144    162      1     108.354313526900     307.746905535118 
   161    144    163      1     108.354313526900     307.746905535118 
   162    144    163      1     108.354313526900     307.746905535118 
   171    154    187      1     118.063661129300     310.493309961378 
   172    155    173      1     108.354313526900     307.746905535118 
   172    155    174      1     108.354313526900     307.746905535118 
   173    155    174      1     108.354313526900     307.746905535118 
   178    177    179      1     107.660782175200     425.669014814353 
   178    177    180      1     107.660782175200     425.669014814353 
   178    177    181      1     107.660782175200     425.669014814353 
   179    177    180      1     108.354313526900     307.746905535118 
   179    177    181      1     108.354313526900     307.746905535118 
   180    177    181      1     108.354313526900     307.746905535118 
   182    183    184      1     107.660782175200     425.669014814353 
   182    183    185      1     107.660782175200     425.669014814353 
   182    183    186      1     107.660782175200     425.669014814353 
   183    182    189      1     107.660782175200     425.669014814353 
   183    182    190      1     107.660782175200     425.669014814353 
   183    182    191      1     107.660782175200     425.669014814353 
   183    184    192      1     107.660782175200     425.669014814353 
   183    184    193      1     107.660782175200     425.669014814353 
   183    184    194      1     107.660782175200     425.669014814353 
   183    185    195      1     107.660782175200     425.669014814353 
   183    185    196      1     107.660782175200     425.669014814353 
   183    185    197      1     107.660782175200     425.669014814353 
   183    186    187      1     112.873616114500    1003.288803783688 
   184    183    185      1     107.660782175200     425.669014814353 
   184    183    186      1     107.660782175200     425.669014814353 
   185    183    186      1     107.660782175200     425.669014814353 
   186    187    188      1     123.605890003500     529.778359969850 
   189    182    190      1     108.354313526900     307.746905535118 
   189    182    191      1     108.354313526900     307.746905535118 
   190    182    191      1     108.354313526900     307.746905535118 
   192    184    193      1     108.354313526900     307.746905535118 
   192    184    194      1     108.354313526900     307.746905535118 
   193    184    194      1     108.354313526900     307.746905535118 
   195    185    196      1     108.354313526900     307.746905535118 
   195    185    197      1     108.354313526900     307.746905535118 
   196    185    197      1     108.354313526900     307.746905535118 

[ dihedrals ]
;ai    aj   ak   al   funct phi  k
     1     3     4     5     1    180.000000000000     13.675298757543                 2
     1     3     4    26     1    180.000000000000     13.675298757543                 2
     1     3    25    24     1    180.000000000000     13.675298757543                 2
     1     3    25    44     1    180.000000000000     13.675298757543                 2
     1   178   177   179     1      0.000000000000      1.100857953953                 3
     1   178   177   180     1      0.000000000000      1.100857953953                 3
     1   178   177   181     1      0.000000000000      1.100857953953                 3
     2     1     3     4     1      0.000000000000      0.110830983433                 1
     2     1     3     4     1    180.000000000000      1.793037385101                 2
     2     1     3     4     1      0.000000000000      0.155334584325                 3
     2     1     3     4     1    180.000000000000      0.250407207797                 4
     2     1     3    25     1      0.000000000000      0.110830983433                 1
     2     1     3    25     1    180.000000000000      1.793037385101                 2
     2     1     3    25     1      0.000000000000      0.155334584325                 3
     2     1     3    25     1    180.000000000000      0.250407207797                 4
     2     1   178   177     1      0.000000000000      4.018622785951                 1
     2     1   178   177     1    180.000000000000      3.211297369656                 2
     2     1   178   177     1      0.000000000000     -2.480437917768                 3
     2     1   178   177     1    180.000000000000      0.449920578863                 4
     3     1   178   177     1      0.000000000000      1.485120049298                 1
     3     1   178   177     1    180.000000000000     16.362836936099                 2
     3     1   178   177     1      0.000000000000      3.198537065559                 3
     3     1   178   177     1    180.000000000000      2.370050872193                 4
     3     4     5     6     1    180.000000000000     13.675298757543                 2
     3     4     5    27     1    180.000000000000     13.675298757543                 2
     3    25    24     6     1    180.000000000000     13.675298757543                 2
     3    25    24    43     1    180.000000000000     13.675298757543                 2
     4     3     1   178     1      0.000000000000     -0.103588821898                 1
     4     3     1   178     1    180.000000000000      2.097369008962                 2
     4     3     1   178     1      0.000000000000     -0.193617516758                 3
     4     3     1   178     1    180.000000000000     -0.085731542261                 4
     4     3    25    24     1    180.000000000000     13.675298757543                 2
     4     3    25    44     1    180.000000000000     13.675298757543                 2
     4     5     6     7     1    180.000000000000     13.675298757543                 2
     4     5     6    24     1    180.000000000000     13.675298757543                 2
     5     4     3    25     1    180.000000000000     13.675298757543                 2
     5     6     7     8     1      0.000000000000     -0.310452912525                 1
     5     6     7     8     1    180.000000000000      5.591684195668                 2
     5     6     7     8     1      0.000000000000     -0.350175641501                 3
     5     6     7     8     1    180.000000000000     -0.240149273898                 4
     5     6     7    14     1      0.000000000000      0.337400680958                 1
     5     6     7    14     1    180.000000000000      6.274321422082                 2
     5     6     7    14     1      0.000000000000      0.365860629454                 3
     5     6     7    14     1    180.000000000000      1.982281768675                 4
     5     6    24    25     1    180.000000000000     13.675298757543                 2
     5     6    24    43     1    180.000000000000     13.675298757543                 2
     6     5     4    26     1    180.000000000000     13.675298757543                 2
     6     7     8     9     1    180.000000000000     13.675298757543                 2
     6     7     8    15     1    180.000000000000     13.675298757543                 2
     6     7    14    13     1    180.000000000000     13.675298757543                 2
     6     7    14    33     1    180.000000000000     13.675298757543                 2
     6    24    25    44     1    180.000000000000     13.675298757543                 2
     7     6     5    27     1    180.000000000000     13.675298757543                 2
     7     6    24    25     1    180.000000000000     13.675298757543                 2
     7     6    24    43     1    180.000000000000     13.675298757543                 2
     7     8     9    10     1    180.000000000000     13.675298757543                 2
     7     8     9    28     1    180.000000000000     13.675298757543                 2
     7     8    15    16     1    180.000000000000      5.177721731788                 2
     7     8    15    20     1    180.000000000000      5.177721731788                 2
     7    14    13    10     1    180.000000000000     13.675298757543                 2
     7    14    13    32     1    180.000000000000     13.675298757543                 2
     8     7     6    24     1      0.000000000000     -0.310452912525                 1
     8     7     6    24     1    180.000000000000      5.591684195668                 2
     8     7     6    24     1      0.000000000000     -0.350175641501                 3
     8     7     6    24     1    180.000000000000     -0.240149273898                 4
     8     7    14    13     1    180.000000000000     13.675298757543                 2
     8     7    14    33     1    180.000000000000     13.675298757543                 2
     8     9    10    11     1    180.000000000000     13.675298757543                 2
     8     9    10    13     1    180.000000000000     13.675298757543                 2
     8    15    16    17     1    180.000000000000     13.675298757543                 2
     8    15    16    34     1    180.000000000000     13.675298757543                 2
     8    15    20    19     1    180.000000000000     13.675298757543                 2
     8    15    20    37     1    180.000000000000     13.675298757543                 2
     9     8     7    14     1    180.000000000000     13.675298757543                 2
     9     8    15    16     1    180.000000000000      5.177721731788                 2
     9     8    15    20     1    180.000000000000      5.177721731788                 2
     9    10    11    12     1      0.000000000000      0.229401701348                 1
     9    10    11    12     1    180.000000000000      9.741276176229                 2
     9    10    11    12     1      0.000000000000      1.147218311760                 3
     9    10    11    12     1    180.000000000000      0.672212584423                 4
     9    10    13    14     1    180.000000000000     13.675298757543                 2
     9    10    13    32     1    180.000000000000     13.675298757543                 2
    10     9     8    15     1    180.000000000000     13.675298757543                 2
    10    11    12    29     1      0.000000000000      1.100857953953                 3
    10    11    12    30     1      0.000000000000      1.100857953953                 3
    10    11    12    31     1      0.000000000000      1.100857953953                 3
    10    13    14    33     1    180.000000000000     13.675298757543                 2
    11    10     9    28     1    180.000000000000     13.675298757543                 2
    11    10    13    14     1    180.000000000000     13.675298757543                 2
    11    10    13    32     1    180.000000000000     13.675298757543                 2
    12    11    10    13     1      0.000000000000      0.229401701348                 1
    12    11    10    13     1    180.000000000000      9.741276176229                 2
    12    11    10    13     1      0.000000000000      1.147218311760                 3
    12    11    10    13     1    180.000000000000      0.672212584423                 4
    13    10     9    28     1    180.000000000000     13.675298757543                 2
    14     7     6    24     1      0.000000000000      0.337400680958                 1
    14     7     6    24     1    180.000000000000      6.274321422082                 2
    14     7     6    24     1      0.000000000000      0.365860629454                 3
    14     7     6    24     1    180.000000000000      1.982281768675                 4
    14     7     8    15     1    180.000000000000     13.675298757543                 2
    15     8     9    28     1    180.000000000000     13.675298757543                 2
    15    16    17    18     1    180.000000000000     13.675298757543                 2
    15    16    17    35     1    180.000000000000     13.675298757543                 2
    15    20    19    18     1    180.000000000000     13.675298757543                 2
    15    20    19    36     1    180.000000000000     13.675298757543                 2
    16    15    20    19     1    180.000000000000     13.675298757543                 2
    16    15    20    37     1    180.000000000000     13.675298757543                 2
    16    17    18    19     1    180.000000000000     13.675298757543                 2
    16    17    18    21     1    180.000000000000     13.675298757543                 2
    17    16    15    20     1    180.000000000000     13.675298757543                 2
    17    18    19    20     1    180.000000000000     13.675298757543                 2
    17    18    19    36     1    180.000000000000     13.675298757543                 2
    17    18    21    22     1      0.000000000000      0.182750880802                 1
    17    18    21    22     1    180.000000000000      1.423575864664                 2
    17    18    21    22     1      0.000000000000      0.028877076208                 3
    17    18    21    22     1    180.000000000000     -0.216253673288                 4
    17    18    21    23     1      0.000000000000     -0.044785568893                 1
    17    18    21    23     1    180.000000000000     -0.101624643193                 2
    17    18    21    23     1      0.000000000000      0.022249001148                 3
    17    18    21    23     1    180.000000000000     -0.181053391701                 4
    17    18    21    38     1      0.000000000000     -0.144482551538                 1
    17    18    21    38     1    180.000000000000     -0.833575029579                 2
    17    18    21    38     1      0.000000000000      0.019414197308                 3
    17    18    21    38     1    180.000000000000     -0.045044510193                 4
    18    17    16    34     1    180.000000000000     13.675298757543                 2
    18    19    20    37     1    180.000000000000     13.675298757543                 2
    18    21    22    39     1      0.000000000000      3.677804091541                 1
    18    21    22    39     1    180.000000000000      2.918173611670                 2
    18    21    22    39     1      0.000000000000      1.022010840785                 3
    18    21    22    39     1    180.000000000000      0.873837475924                 4
    18    21    22    45     1      0.000000000000     -5.571103177005                 1
    18    21    22    45     1    180.000000000000      2.186284910030                 2
    18    21    22    45     1      0.000000000000     -0.378967342591                 3
    18    21    22    45     1    180.000000000000     -0.507929624265                 4
    18    21    23    40     1      0.000000000000      0.602098025234                 3
    18    21    23    41     1      0.000000000000      0.602098025234                 3
    18    21    23    42     1      0.000000000000      0.602098025234                 3
    19    18    17    35     1    180.000000000000     13.675298757543                 2
    19    18    21    22     1      0.000000000000      0.182750880802                 1
    19    18    21    22     1    180.000000000000      1.423575864664                 2
    19    18    21    22     1      0.000000000000      0.028877076208                 3
    19    18    21    22     1    180.000000000000     -0.216253673288                 4
    19    18    21    23     1      0.000000000000     -0.044785568893                 1
    19    18    21    23     1    180.000000000000     -0.101624643193                 2
    19    18    21    23     1      0.000000000000      0.022249001148                 3
    19    18    21    23     1    180.000000000000     -0.181053391701                 4
    19    18    21    38     1      0.000000000000     -0.144482551538                 1
    19    18    21    38     1    180.000000000000     -0.833575029579                 2
    19    18    21    38     1      0.000000000000      0.019414197308                 3
    19    18    21    38     1    180.000000000000     -0.045044510193                 4
    20    15    16    34     1    180.000000000000     13.675298757543                 2
    20    19    18    21     1    180.000000000000     13.675298757543                 2
    21    18    17    35     1    180.000000000000     13.675298757543                 2
    21    18    19    36     1    180.000000000000     13.675298757543                 2
    21    22    45    46     1      0.000000000000     -1.882929382887                 1
    21    22    45    46     1    180.000000000000      9.652363877356                 2
    21    22    45    46     1      0.000000000000      0.562467934716                 3
    21    22    45    46     1    180.000000000000     -0.583824134589                 4
    21    22    45    47     1      0.000000000000      0.759588147701                 1
    21    22    45    47     1    180.000000000000      8.753139163225                 2
    21    22    45    47     1      0.000000000000      1.174743034026                 3
    21    22    45    47     1    180.000000000000      1.848470422646                 4
    22    21    23    40     1      0.000000000000      0.602098025234                 3
    22    21    23    41     1      0.000000000000      0.602098025234                 3
    22    21    23    42     1      0.000000000000      0.602098025234                 3
    22    45    47    48     1      0.000000000000     -0.025911125117                 1
    22    45    47    48     1    180.000000000000      4.184142608322                 2
    22    45    47    48     1      0.000000000000     -0.052154708314                 3
    22    45    47    48     1    180.000000000000      0.168506199181                 4
    22    45    47    69     1      0.000000000000     -0.025911125117                 1
    22    45    47    69     1    180.000000000000      4.184142608322                 2
    22    45    47    69     1      0.000000000000     -0.052154708314                 3
    22    45    47    69     1    180.000000000000      0.168506199181                 4
    23    21    22    39     1      0.000000000000     -1.599385038292                 1
    23    21    22    39     1    180.000000000000      0.796888391383                 2
    23    21    22    39     1      0.000000000000      1.437692383904                 3
    23    21    22    39     1    180.000000000000     -0.628250874620                 4
    23    21    22    45     1      0.000000000000     -0.301193002917                 1
    23    21    22    45     1    180.000000000000      0.239749259246                 2
    23    21    22    45     1      0.000000000000     -1.500988026893                 3
    23    21    22    45     1    180.000000000000      0.097752640462                 4
    24     6     5    27     1    180.000000000000     13.675298757543                 2
    25     3     1   178     1      0.000000000000     -0.103588821898                 1
    25     3     1   178     1    180.000000000000      2.097369008962                 2
    25     3     1   178     1      0.000000000000     -0.193617516758                 3
    25     3     1   178     1    180.000000000000     -0.085731542261                 4
    25     3     4    26     1    180.000000000000     13.675298757543                 2
    26     4     5    27     1    180.000000000000     13.675298757543                 2
    32    13    14    33     1    180.000000000000     13.675298757543                 2
    34    16    17    35     1    180.000000000000     13.675298757543                 2
    36    19    20    37     1    180.000000000000     13.675298757543                 2
    38    21    22    39     1      0.000000000000     -2.255100501235                 1
    38    21    22    39     1    180.000000000000      1.048475866050                 2
    38    21    22    39     1      0.000000000000      1.204898796537                 3
    38    21    22    39     1    180.000000000000     -0.331126073176                 4
    38    21    22    45     1      0.000000000000      3.066393011529                 1
    38    21    22    45     1    180.000000000000      0.202108611897                 2
    38    21    22    45     1      0.000000000000      0.503946998962                 3
    38    21    22    45     1    180.000000000000      0.155983257561                 4
    38    21    23    40     1      0.000000000000      0.953929629431                 3
    38    21    23    41     1      0.000000000000      0.953929629431                 3
    38    21    23    42     1      0.000000000000      0.953929629431                 3
    39    22    45    46     1      0.000000000000      4.163130261511                 1
    39    22    45    46     1    180.000000000000      5.167814398591                 2
    39    22    45    46     1      0.000000000000     -0.054389245927                 3
    39    22    45    46     1    180.000000000000     -0.617928753485                 4
    39    22    45    47     1      0.000000000000      2.422747600380                 1
    39    22    45    47     1    180.000000000000      9.253130613765                 2
    39    22    45    47     1      0.000000000000      0.400523282198                 3
    39    22    45    47     1    180.000000000000      0.620723303397                 4
    43    24    25    44     1    180.000000000000     13.675298757543                 2
    45    47    48    49     1    180.000000000000     13.675298757543                 2
    45    47    48    70     1    180.000000000000     13.675298757543                 2
    45    47    69    68     1    180.000000000000     13.675298757543                 2
    45    47    69    88     1    180.000000000000     13.675298757543                 2
    46    45    47    48     1      0.000000000000      0.011090717768                 1
    46    45    47    48     1    180.000000000000     -0.216359299713                 2
    46    45    47    48     1      0.000000000000      0.114762477434                 3
    46    45    47    48     1    180.000000000000      0.295521148227                 4
    46    45    47    69     1      0.000000000000      0.011090717768                 1
    46    45    47    69     1    180.000000000000     -0.216359299713                 2
    46    45    47    69     1      0.000000000000      0.114762477434                 3
    46    45    47    69     1    180.000000000000      0.295521148227                 4
    47    48    49    50     1    180.000000000000     13.675298757543                 2
    47    48    49    71     1    180.000000000000     13.675298757543                 2
    47    69    68    50     1    180.000000000000     13.675298757543                 2
    47    69    68    87     1    180.000000000000     13.675298757543                 2
    48    47    69    68     1    180.000000000000     13.675298757543                 2
    48    47    69    88     1    180.000000000000     13.675298757543                 2
    48    49    50    51     1    180.000000000000     13.675298757543                 2
    48    49    50    68     1    180.000000000000     13.675298757543                 2
    49    48    47    69     1    180.000000000000     13.675298757543                 2
    49    50    51    52     1      0.000000000000     -0.310452912525                 1
    49    50    51    52     1    180.000000000000      5.591684195668                 2
    49    50    51    52     1      0.000000000000     -0.350175641501                 3
    49    50    51    52     1    180.000000000000     -0.240149273898                 4
    49    50    51    58     1      0.000000000000      0.337400680958                 1
    49    50    51    58     1    180.000000000000      6.274321422082                 2
    49    50    51    58     1      0.000000000000      0.365860629454                 3
    49    50    51    58     1    180.000000000000      1.982281768675                 4
    49    50    68    69     1    180.000000000000     13.675298757543                 2
    49    50    68    87     1    180.000000000000     13.675298757543                 2
    50    49    48    70     1    180.000000000000     13.675298757543                 2
    50    51    52    53     1    180.000000000000     13.675298757543                 2
    50    51    52    59     1    180.000000000000     13.675298757543                 2
    50    51    58    57     1    180.000000000000     13.675298757543                 2
    50    51    58    77     1    180.000000000000     13.675298757543                 2
    50    68    69    88     1    180.000000000000     13.675298757543                 2
    51    50    49    71     1    180.000000000000     13.675298757543                 2
    51    50    68    69     1    180.000000000000     13.675298757543                 2
    51    50    68    87     1    180.000000000000     13.675298757543                 2
    51    52    53    54     1    180.000000000000     13.675298757543                 2
    51    52    53    72     1    180.000000000000     13.675298757543                 2
    51    52    59    60     1    180.000000000000      5.177721731788                 2
    51    52    59    64     1    180.000000000000      5.177721731788                 2
    51    58    57    54     1    180.000000000000     13.675298757543                 2
    51    58    57    76     1    180.000000000000     13.675298757543                 2
    52    51    50    68     1      0.000000000000     -0.310452912525                 1
    52    51    50    68     1    180.000000000000      5.591684195668                 2
    52    51    50    68     1      0.000000000000     -0.350175641501                 3
    52    51    50    68     1    180.000000000000     -0.240149273898                 4
    52    51    58    57     1    180.000000000000     13.675298757543                 2
    52    51    58    77     1    180.000000000000     13.675298757543                 2
    52    53    54    55     1    180.000000000000     13.675298757543                 2
    52    53    54    57     1    180.000000000000     13.675298757543                 2
    52    59    60    61     1    180.000000000000     13.675298757543                 2
    52    59    60    78     1    180.000000000000     13.675298757543                 2
    52    59    64    63     1    180.000000000000     13.675298757543                 2
    52    59    64    81     1    180.000000000000     13.675298757543                 2
    53    52    51    58     1    180.000000000000     13.675298757543                 2
    53    52    59    60     1    180.000000000000      5.177721731788                 2
    53    52    59    64     1    180.000000000000      5.177721731788                 2
    53    54    55    56     1      0.000000000000      0.229401701348                 1
    53    54    55    56     1    180.000000000000      9.741276176229                 2
    53    54    55    56     1      0.000000000000      1.147218311760                 3
    53    54    55    56     1    180.000000000000      0.672212584423                 4
    53    54    57    58     1    180.000000000000     13.675298757543                 2
    53    54    57    76     1    180.000000000000     13.675298757543                 2
    54    53    52    59     1    180.000000000000     13.675298757543                 2
    54    55    56    73     1      0.000000000000      1.100857953953                 3
    54    55    56    74     1      0.000000000000      1.100857953953                 3
    54    55    56    75     1      0.000000000000      1.100857953953                 3
    54    57    58    77     1    180.000000000000     13.675298757543                 2
    55    54    53    72     1    180.000000000000     13.675298757543                 2
    55    54    57    58     1    180.000000000000     13.675298757543                 2
    55    54    57    76     1    180.000000000000     13.675298757543                 2
    56    55    54    57     1      0.000000000000      0.229401701348                 1
    56    55    54    57     1    180.000000000000      9.741276176229                 2
    56    55    54    57     1      0.000000000000      1.147218311760                 3
    56    55    54    57     1    180.000000000000      0.672212584423                 4
    57    54    53    72     1    180.000000000000     13.675298757543                 2
    58    51    50    68     1      0.000000000000      0.337400680958                 1
    58    51    50    68     1    180.000000000000      6.274321422082                 2
    58    51    50    68     1      0.000000000000      0.365860629454                 3
    58    51    50    68     1    180.000000000000      1.982281768675                 4
    58    51    52    59     1    180.000000000000     13.675298757543                 2
    59    52    53    72     1    180.000000000000     13.675298757543                 2
    59    60    61    62     1    180.000000000000     13.675298757543                 2
    59    60    61    79     1    180.000000000000     13.675298757543                 2
    59    64    63    62     1    180.000000000000     13.675298757543                 2
    59    64    63    80     1    180.000000000000     13.675298757543                 2
    60    59    64    63     1    180.000000000000     13.675298757543                 2
    60    59    64    81     1    180.000000000000     13.675298757543                 2
    60    61    62    63     1    180.000000000000     13.675298757543                 2
    60    61    62    65     1    180.000000000000     13.675298757543                 2
    61    60    59    64     1    180.000000000000     13.675298757543                 2
    61    62    63    64     1    180.000000000000     13.675298757543                 2
    61    62    63    80     1    180.000000000000     13.675298757543                 2
    61    62    65    66     1      0.000000000000      0.182750880802                 1
    61    62    65    66     1    180.000000000000      1.423575864664                 2
    61    62    65    66     1      0.000000000000      0.028877076208                 3
    61    62    65    66     1    180.000000000000     -0.216253673288                 4
    61    62    65    67     1      0.000000000000     -0.044785568893                 1
    61    62    65    67     1    180.000000000000     -0.101624643193                 2
    61    62    65    67     1      0.000000000000      0.022249001148                 3
    61    62    65    67     1    180.000000000000     -0.181053391701                 4
    61    62    65    82     1      0.000000000000     -0.144482551538                 1
    61    62    65    82     1    180.000000000000     -0.833575029579                 2
    61    62    65    82     1      0.000000000000      0.019414197308                 3
    61    62    65    82     1    180.000000000000     -0.045044510193                 4
    62    61    60    78     1    180.000000000000     13.675298757543                 2
    62    63    64    81     1    180.000000000000     13.675298757543                 2
    62    65    66    83     1      0.000000000000      3.677804091541                 1
    62    65    66    83     1    180.000000000000      2.918173611670                 2
    62    65    66    83     1      0.000000000000      1.022010840785                 3
    62    65    66    83     1    180.000000000000      0.873837475924                 4
    62    65    66    89     1      0.000000000000     -5.571103177005                 1
    62    65    66    89     1    180.000000000000      2.186284910030                 2
    62    65    66    89     1      0.000000000000     -0.378967342591                 3
    62    65    66    89     1    180.000000000000     -0.507929624265                 4
    62    65    67    84     1      0.000000000000      0.602098025234                 3
    62    65    67    85     1      0.000000000000      0.602098025234                 3
    62    65    67    86     1      0.000000000000      0.602098025234                 3
    63    62    61    79     1    180.000000000000     13.675298757543                 2
    63    62    65    66     1      0.000000000000      0.182750880802                 1
    63    62    65    66     1    180.000000000000      1.423575864664                 2
    63    62    65    66     1      0.000000000000      0.028877076208                 3
    63    62    65    66     1    180.000000000000     -0.216253673288                 4
    63    62    65    67     1      0.000000000000     -0.044785568893                 1
    63    62    65    67     1    180.000000000000     -0.101624643193                 2
    63    62    65    67     1      0.000000000000      0.022249001148                 3
    63    62    65    67     1    180.000000000000     -0.181053391701                 4
    63    62    65    82     1      0.000000000000     -0.144482551538                 1
    63    62    65    82     1    180.000000000000     -0.833575029579                 2
    63    62    65    82     1      0.000000000000      0.019414197308                 3
    63    62    65    82     1    180.000000000000     -0.045044510193                 4
    64    59    60    78     1    180.000000000000     13.675298757543                 2
    64    63    62    65     1    180.000000000000     13.675298757543                 2
    65    62    61    79     1    180.000000000000     13.675298757543                 2
    65    62    63    80     1    180.000000000000     13.675298757543                 2
    65    66    89    90     1      0.000000000000     -1.882929382887                 1
    65    66    89    90     1    180.000000000000      9.652363877356                 2
    65    66    89    90     1      0.000000000000      0.562467934716                 3
    65    66    89    90     1    180.000000000000     -0.583824134589                 4
    65    66    89    91     1      0.000000000000      0.759588147701                 1
    65    66    89    91     1    180.000000000000      8.753139163225                 2
    65    66    89    91     1      0.000000000000      1.174743034026                 3
    65    66    89    91     1    180.000000000000      1.848470422646                 4
    66    65    67    84     1      0.000000000000      0.602098025234                 3
    66    65    67    85     1      0.000000000000      0.602098025234                 3
    66    65    67    86     1      0.000000000000      0.602098025234                 3
    66    89    91    92     1      0.000000000000     -0.025911125117                 1
    66    89    91    92     1    180.000000000000      4.184142608322                 2
    66    89    91    92     1      0.000000000000     -0.052154708314                 3
    66    89    91    92     1    180.000000000000      0.168506199181                 4
    66    89    91   113     1      0.000000000000     -0.025911125117                 1
    66    89    91   113     1    180.000000000000      4.184142608322                 2
    66    89    91   113     1      0.000000000000     -0.052154708314                 3
    66    89    91   113     1    180.000000000000      0.168506199181                 4
    67    65    66    83     1      0.000000000000     -1.599385038292                 1
    67    65    66    83     1    180.000000000000      0.796888391383                 2
    67    65    66    83     1      0.000000000000      1.437692383904                 3
    67    65    66    83     1    180.000000000000     -0.628250874620                 4
    67    65    66    89     1      0.000000000000     -0.301193002917                 1
    67    65    66    89     1    180.000000000000      0.239749259246                 2
    67    65    66    89     1      0.000000000000     -1.500988026893                 3
    67    65    66    89     1    180.000000000000      0.097752640462                 4
    68    50    49    71     1    180.000000000000     13.675298757543                 2
    69    47    48    70     1    180.000000000000     13.675298757543                 2
    70    48    49    71     1    180.000000000000     13.675298757543                 2
    76    57    58    77     1    180.000000000000     13.675298757543                 2
    78    60    61    79     1    180.000000000000     13.675298757543                 2
    80    63    64    81     1    180.000000000000     13.675298757543                 2
    82    65    66    83     1      0.000000000000     -2.255100501235                 1
    82    65    66    83     1    180.000000000000      1.048475866050                 2
    82    65    66    83     1      0.000000000000      1.204898796537                 3
    82    65    66    83     1    180.000000000000     -0.331126073176                 4
    82    65    66    89     1      0.000000000000      3.066393011529                 1
    82    65    66    89     1    180.000000000000      0.202108611897                 2
    82    65    66    89     1      0.000000000000      0.503946998962                 3
    82    65    66    89     1    180.000000000000      0.155983257561                 4
    82    65    67    84     1      0.000000000000      0.953929629431                 3
    82    65    67    85     1      0.000000000000      0.953929629431                 3
    82    65    67    86     1      0.000000000000      0.953929629431                 3
    83    66    89    90     1      0.000000000000      4.163130261511                 1
    83    66    89    90     1    180.000000000000      5.167814398591                 2
    83    66    89    90     1      0.000000000000     -0.054389245927                 3
    83    66    89    90     1    180.000000000000     -0.617928753485                 4
    83    66    89    91     1      0.000000000000      2.422747600380                 1
    83    66    89    91     1    180.000000000000      9.253130613765                 2
    83    66    89    91     1      0.000000000000      0.400523282198                 3
    83    66    89    91     1    180.000000000000      0.620723303397                 4
    87    68    69    88     1    180.000000000000     13.675298757543                 2
    89    91    92    93     1    180.000000000000     13.675298757543                 2
    89    91    92   114     1    180.000000000000     13.675298757543                 2
    89    91   113   112     1    180.000000000000     13.675298757543                 2
    89    91   113   132     1    180.000000000000     13.675298757543                 2
    90    89    91    92     1      0.000000000000      0.011090717768                 1
    90    89    91    92     1    180.000000000000     -0.216359299713                 2
    90    89    91    92     1      0.000000000000      0.114762477434                 3
    90    89    91    92     1    180.000000000000      0.295521148227                 4
    90    89    91   113     1      0.000000000000      0.011090717768                 1
    90    89    91   113     1    180.000000000000     -0.216359299713                 2
    90    89    91   113     1      0.000000000000      0.114762477434                 3
    90    89    91   113     1    180.000000000000      0.295521148227                 4
    91    92    93    94     1    180.000000000000     13.675298757543                 2
    91    92    93   115     1    180.000000000000     13.675298757543                 2
    91   113   112    94     1    180.000000000000     13.675298757543                 2
    91   113   112   131     1    180.000000000000     13.675298757543                 2
    92    91   113   112     1    180.000000000000     13.675298757543                 2
    92    91   113   132     1    180.000000000000     13.675298757543                 2
    92    93    94    95     1    180.000000000000     13.675298757543                 2
    92    93    94   112     1    180.000000000000     13.675298757543                 2
    93    92    91   113     1    180.000000000000     13.675298757543                 2
    93    94    95    96     1      0.000000000000     -0.310452912525                 1
    93    94    95    96     1    180.000000000000      5.591684195668                 2
    93    94    95    96     1      0.000000000000     -0.350175641501                 3
    93    94    95    96     1    180.000000000000     -0.240149273898                 4
    93    94    95   102     1      0.000000000000      0.337400680958                 1
    93    94    95   102     1    180.000000000000      6.274321422082                 2
    93    94    95   102     1      0.000000000000      0.365860629454                 3
    93    94    95   102     1    180.000000000000      1.982281768675                 4
    93    94   112   113     1    180.000000000000     13.675298757543                 2
    93    94   112   131     1    180.000000000000     13.675298757543                 2
    94    93    92   114     1    180.000000000000     13.675298757543                 2
    94    95    96    97     1    180.000000000000     13.675298757543                 2
    94    95    96   103     1    180.000000000000     13.675298757543                 2
    94    95   102   101     1    180.000000000000     13.675298757543                 2
    94    95   102   121     1    180.000000000000     13.675298757543                 2
    94   112   113   132     1    180.000000000000     13.675298757543                 2
    95    94    93   115     1    180.000000000000     13.675298757543                 2
    95    94   112   113     1    180.000000000000     13.675298757543                 2
    95    94   112   131     1    180.000000000000     13.675298757543                 2
    95    96    97    98     1    180.000000000000     13.675298757543                 2
    95    96    97   116     1    180.000000000000     13.675298757543                 2
    95    96   103   104     1    180.000000000000      5.177721731788                 2
    95    96   103   108     1    180.000000000000      5.177721731788                 2
    95   102   101    98     1    180.000000000000     13.675298757543                 2
    95   102   101   120     1    180.000000000000     13.675298757543                 2
    96    95    94   112     1      0.000000000000     -0.310452912525                 1
    96    95    94   112     1    180.000000000000      5.591684195668                 2
    96    95    94   112     1      0.000000000000     -0.350175641501                 3
    96    95    94   112     1    180.000000000000     -0.240149273898                 4
    96    95   102   101     1    180.000000000000     13.675298757543                 2
    96    95   102   121     1    180.000000000000     13.675298757543                 2
    96    97    98    99     1    180.000000000000     13.675298757543                 2
    96    97    98   101     1    180.000000000000     13.675298757543                 2
    96   103   104   105     1    180.000000000000     13.675298757543                 2
    96   103   104   122     1    180.000000000000     13.675298757543                 2
    96   103   108   107     1    180.000000000000     13.675298757543                 2
    96   103   108   125     1    180.000000000000     13.675298757543                 2
    97    96    95   102     1    180.000000000000     13.675298757543                 2
    97    96   103   104     1    180.000000000000      5.177721731788                 2
    97    96   103   108     1    180.000000000000      5.177721731788                 2
    97    98    99   100     1      0.000000000000      0.229401701348                 1
    97    98    99   100     1    180.000000000000      9.741276176229                 2
    97    98    99   100     1      0.000000000000      1.147218311760                 3
    97    98    99   100     1    180.000000000000      0.672212584423                 4
    97    98   101   102     1    180.000000000000     13.675298757543                 2
    97    98   101   120     1    180.000000000000     13.675298757543                 2
    98    97    96   103     1    180.000000000000     13.675298757543                 2
    98    99   100   117     1      0.000000000000      1.100857953953                 3
    98    99   100   118     1      0.000000000000      1.100857953953                 3
    98    99   100   119     1      0.000000000000      1.100857953953                 3
    98   101   102   121     1    180.000000000000     13.675298757543                 2
    99    98    97   116     1    180.000000000000     13.675298757543                 2
    99    98   101   102     1    180.000000000000     13.675298757543                 2
    99    98   101   120     1    180.000000000000     13.675298757543                 2
   100    99    98   101     1      0.000000000000      0.229401701348                 1
   100    99    98   101     1    180.000000000000      9.741276176229                 2
   100    99    98   101     1      0.000000000000      1.147218311760                 3
   100    99    98   101     1    180.000000000000      0.672212584423                 4
   101    98    97   116     1    180.000000000000     13.675298757543                 2
   102    95    94   112     1      0.000000000000      0.337400680958                 1
   102    95    94   112     1    180.000000000000      6.274321422082                 2
   102    95    94   112     1      0.000000000000      0.365860629454                 3
   102    95    94   112     1    180.000000000000      1.982281768675                 4
   102    95    96   103     1    180.000000000000     13.675298757543                 2
   103    96    97   116     1    180.000000000000     13.675298757543                 2
   103   104   105   106     1    180.000000000000     13.675298757543                 2
   103   104   105   123     1    180.000000000000     13.675298757543                 2
   103   108   107   106     1    180.000000000000     13.675298757543                 2
   103   108   107   124     1    180.000000000000     13.675298757543                 2
   104   103   108   107     1    180.000000000000     13.675298757543                 2
   104   103   108   125     1    180.000000000000     13.675298757543                 2
   104   105   106   107     1    180.000000000000     13.675298757543                 2
   104   105   106   109     1    180.000000000000     13.675298757543                 2
   105   104   103   108     1    180.000000000000     13.675298757543                 2
   105   106   107   108     1    180.000000000000     13.675298757543                 2
   105   106   107   124     1    180.000000000000     13.675298757543                 2
   105   106   109   110     1      0.000000000000      0.182750880802                 1
   105   106   109   110     1    180.000000000000      1.423575864664                 2
   105   106   109   110     1      0.000000000000      0.028877076208                 3
   105   106   109   110     1    180.000000000000     -0.216253673288                 4
   105   106   109   111     1      0.000000000000     -0.044785568893                 1
   105   106   109   111     1    180.000000000000     -0.101624643193                 2
   105   106   109   111     1      0.000000000000      0.022249001148                 3
   105   106   109   111     1    180.000000000000     -0.181053391701                 4
   105   106   109   126     1      0.000000000000     -0.144482551538                 1
   105   106   109   126     1    180.000000000000     -0.833575029579                 2
   105   106   109   126     1      0.000000000000      0.019414197308                 3
   105   106   109   126     1    180.000000000000     -0.045044510193                 4
   106   105   104   122     1    180.000000000000     13.675298757543                 2
   106   107   108   125     1    180.000000000000     13.675298757543                 2
   106   109   110   127     1      0.000000000000      3.677804091541                 1
   106   109   110   127     1    180.000000000000      2.918173611670                 2
   106   109   110   127     1      0.000000000000      1.022010840785                 3
   106   109   110   127     1    180.000000000000      0.873837475924                 4
   106   109   110   133     1      0.000000000000     -5.571103177005                 1
   106   109   110   133     1    180.000000000000      2.186284910030                 2
   106   109   110   133     1      0.000000000000     -0.378967342591                 3
   106   109   110   133     1    180.000000000000     -0.507929624265                 4
   106   109   111   128     1      0.000000000000      0.602098025234                 3
   106   109   111   129     1      0.000000000000      0.602098025234                 3
   106   109   111   130     1      0.000000000000      0.602098025234                 3
   107   106   105   123     1    180.000000000000     13.675298757543                 2
   107   106   109   110     1      0.000000000000      0.182750880802                 1
   107   106   109   110     1    180.000000000000      1.423575864664                 2
   107   106   109   110     1      0.000000000000      0.028877076208                 3
   107   106   109   110     1    180.000000000000     -0.216253673288                 4
   107   106   109   111     1      0.000000000000     -0.044785568893                 1
   107   106   109   111     1    180.000000000000     -0.101624643193                 2
   107   106   109   111     1      0.000000000000      0.022249001148                 3
   107   106   109   111     1    180.000000000000     -0.181053391701                 4
   107   106   109   126     1      0.000000000000     -0.144482551538                 1
   107   106   109   126     1    180.000000000000     -0.833575029579                 2
   107   106   109   126     1      0.000000000000      0.019414197308                 3
   107   106   109   126     1    180.000000000000     -0.045044510193                 4
   108   103   104   122     1    180.000000000000     13.675298757543                 2
   108   107   106   109     1    180.000000000000     13.675298757543                 2
   109   106   105   123     1    180.000000000000     13.675298757543                 2
   109   106   107   124     1    180.000000000000     13.675298757543                 2
   109   110   133   134     1      0.000000000000     -1.882929382887                 1
   109   110   133   134     1    180.000000000000      9.652363877356                 2
   109   110   133   134     1      0.000000000000      0.562467934716                 3
   109   110   133   134     1    180.000000000000     -0.583824134589                 4
   109   110   133   135     1      0.000000000000      0.759588147701                 1
   109   110   133   135     1    180.000000000000      8.753139163225                 2
   109   110   133   135     1      0.000000000000      1.174743034026                 3
   109   110   133   135     1    180.000000000000      1.848470422646                 4
   110   109   111   128     1      0.000000000000      0.602098025234                 3
   110   109   111   129     1      0.000000000000      0.602098025234                 3
   110   109   111   130     1      0.000000000000      0.602098025234                 3
   110   133   135   136     1      0.000000000000     -0.025911125117                 1
   110   133   135   136     1    180.000000000000      4.184142608322                 2
   110   133   135   136     1      0.000000000000     -0.052154708314                 3
   110   133   135   136     1    180.000000000000      0.168506199181                 4
   110   133   135   157     1      0.000000000000     -0.025911125117                 1
   110   133   135   157     1    180.000000000000      4.184142608322                 2
   110   133   135   157     1      0.000000000000     -0.052154708314                 3
   110   133   135   157     1    180.000000000000      0.168506199181                 4
   111   109   110   127     1      0.000000000000     -1.599385038292                 1
   111   109   110   127     1    180.000000000000      0.796888391383                 2
   111   109   110   127     1      0.000000000000      1.437692383904                 3
   111   109   110   127     1    180.000000000000     -0.628250874620                 4
   111   109   110   133     1      0.000000000000     -0.301193002917                 1
   111   109   110   133     1    180.000000000000      0.239749259246                 2
   111   109   110   133     1      0.000000000000     -1.500988026893                 3
   111   109   110   133     1    180.000000000000      0.097752640462                 4
   112    94    93   115     1    180.000000000000     13.675298757543                 2
   113    91    92   114     1    180.000000000000     13.675298757543                 2
   114    92    93   115     1    180.000000000000     13.675298757543                 2
   120   101   102   121     1    180.000000000000     13.675298757543                 2
   122   104   105   123     1    180.000000000000     13.675298757543                 2
   124   107   108   125     1    180.000000000000     13.675298757543                 2
   126   109   110   127     1      0.000000000000     -2.255100501235                 1
   126   109   110   127     1    180.000000000000      1.048475866050                 2
   126   109   110   127     1      0.000000000000      1.204898796537                 3
   126   109   110   127     1    180.000000000000     -0.331126073176                 4
   126   109   110   133     1      0.000000000000      3.066393011529                 1
   126   109   110   133     1    180.000000000000      0.202108611897                 2
   126   109   110   133     1      0.000000000000      0.503946998962                 3
   126   109   110   133     1    180.000000000000      0.155983257561                 4
   126   109   111   128     1      0.000000000000      0.953929629431                 3
   126   109   111   129     1      0.000000000000      0.953929629431                 3
   126   109   111   130     1      0.000000000000      0.953929629431                 3
   127   110   133   134     1      0.000000000000      4.163130261511                 1
   127   110   133   134     1    180.000000000000      5.167814398591                 2
   127   110   133   134     1      0.000000000000     -0.054389245927                 3
   127   110   133   134     1    180.000000000000     -0.617928753485                 4
   127   110   133   135     1      0.000000000000      2.422747600380                 1
   127   110   133   135     1    180.000000000000      9.253130613765                 2
   127   110   133   135     1      0.000000000000      0.400523282198                 3
   127   110   133   135     1    180.000000000000      0.620723303397                 4
   131   112   113   132     1    180.000000000000     13.675298757543                 2
   133   135   136   137     1    180.000000000000     13.675298757543                 2
   133   135   136   158     1    180.000000000000     13.675298757543                 2
   133   135   157   156     1    180.000000000000     13.675298757543                 2
   133   135   157   176     1    180.000000000000     13.675298757543                 2
   134   133   135   136     1      0.000000000000      0.011090717768                 1
   134   133   135   136     1    180.000000000000     -0.216359299713                 2
   134   133   135   136     1      0.000000000000      0.114762477434                 3
   134   133   135   136     1    180.000000000000      0.295521148227                 4
   134   133   135   157     1      0.000000000000      0.011090717768                 1
   134   133   135   157     1    180.000000000000     -0.216359299713                 2
   134   133   135   157     1      0.000000000000      0.114762477434                 3
   134   133   135   157     1    180.000000000000      0.295521148227                 4
   135   136   137   138     1    180.000000000000     13.675298757543                 2
   135   136   137   159     1    180.000000000000     13.675298757543                 2
   135   157   156   138     1    180.000000000000     13.675298757543                 2
   135   157   156   175     1    180.000000000000     13.675298757543                 2
   136   135   157   156     1    180.000000000000     13.675298757543                 2
   136   135   157   176     1    180.000000000000     13.675298757543                 2
   136   137   138   139     1    180.000000000000     13.675298757543                 2
   136   137   138   156     1    180.000000000000     13.675298757543                 2
   137   136   135   157     1    180.000000000000     13.675298757543                 2
   137   138   139   140     1      0.000000000000     -0.310452912525                 1
   137   138   139   140     1    180.000000000000      5.591684195668                 2
   137   138   139   140     1      0.000000000000     -0.350175641501                 3
   137   138   139   140     1    180.000000000000     -0.240149273898                 4
   137   138   139   146     1      0.000000000000      0.337400680958                 1
   137   138   139   146     1    180.000000000000      6.274321422082                 2
   137   138   139   146     1      0.000000000000      0.365860629454                 3
   137   138   139   146     1    180.000000000000      1.982281768675                 4
   137   138   156   157     1    180.000000000000     13.675298757543                 2
   137   138   156   175     1    180.000000000000     13.675298757543                 2
   138   137   136   158     1    180.000000000000     13.675298757543                 2
   138   139   140   141     1    180.000000000000     13.675298757543                 2
   138   139   140   147     1    180.000000000000     13.675298757543                 2
   138   139   146   145     1    180.000000000000     13.675298757543                 2
   138   139   146   165     1    180.000000000000     13.675298757543                 2
   138   156   157   176     1    180.000000000000     13.675298757543                 2
   139   138   137   159     1    180.000000000000     13.675298757543                 2
   139   138   156   157     1    180.000000000000     13.675298757543                 2
   139   138   156   175     1    180.000000000000     13.675298757543                 2
   139   140   141   142     1    180.000000000000     13.675298757543                 2
   139   140   141   160     1    180.000000000000     13.675298757543                 2
   139   140   147   148     1    180.000000000000      5.177721731788                 2
   139   140   147   152     1    180.000000000000      5.177721731788                 2
   139   146   145   142     1    180.000000000000     13.675298757543                 2
   139   146   145   164     1    180.000000000000     13.675298757543                 2
   140   139   138   156     1      0.000000000000     -0.310452912525                 1
   140   139   138   156     1    180.000000000000      5.591684195668                 2
   140   139   138   156     1      0.000000000000     -0.350175641501                 3
   140   139   138   156     1    180.000000000000     -0.240149273898                 4
   140   139   146   145     1    180.000000000000     13.675298757543                 2
   140   139   146   165     1    180.000000000000     13.675298757543                 2
   140   141   142   143     1    180.000000000000     13.675298757543                 2
   140   141   142   145     1    180.000000000000     13.675298757543                 2
   140   147   148   149     1    180.000000000000     13.675298757543                 2
   140   147   148   166     1    180.000000000000     13.675298757543                 2
   140   147   152   151     1    180.000000000000     13.675298757543                 2
   140   147   152   169     1    180.000000000000     13.675298757543                 2
   141   140   139   146     1    180.000000000000     13.675298757543                 2
   141   140   147   148     1    180.000000000000      5.177721731788                 2
   141   140   147   152     1    180.000000000000      5.177721731788                 2
   141   142   143   144     1      0.000000000000      0.229401701348                 1
   141   142   143   144     1    180.000000000000      9.741276176229                 2
   141   142   143   144     1      0.000000000000      1.147218311760                 3
   141   142   143   144     1    180.000000000000      0.672212584423                 4
   141   142   145   146     1    180.000000000000     13.675298757543                 2
   141   142   145   164     1    180.000000000000     13.675298757543                 2
   142   141   140   147     1    180.000000000000     13.675298757543                 2
   142   143   144   161     1      0.000000000000      1.100857953953                 3
   142   143   144   162     1      0.000000000000      1.100857953953                 3
   142   143   144   163     1      0.000000000000      1.100857953953                 3
   142   145   146   165     1    180.000000000000     13.675298757543                 2
   143   142   141   160     1    180.000000000000     13.675298757543                 2
   143   142   145   146     1    180.000000000000     13.675298757543                 2
   143   142   145   164     1    180.000000000000     13.675298757543                 2
   144   143   142   145     1      0.000000000000      0.229401701348                 1
   144   143   142   145     1    180.000000000000      9.741276176229                 2
   144   143   142   145     1      0.000000000000      1.147218311760                 3
   144   143   142   145     1    180.000000000000      0.672212584423                 4
   145   142   141   160     1    180.000000000000     13.675298757543                 2
   146   139   138   156     1      0.000000000000      0.337400680958                 1
   146   139   138   156     1    180.000000000000      6.274321422082                 2
   146   139   138   156     1      0.000000000000      0.365860629454                 3
   146   139   138   156     1    180.000000000000      1.982281768675                 4
   146   139   140   147     1    180.000000000000     13.675298757543                 2
   147   140   141   160     1    180.000000000000     13.675298757543                 2
   147   148   149   150     1    180.000000000000     13.675298757543                 2
   147   148   149   167     1    180.000000000000     13.675298757543                 2
   147   152   151   150     1    180.000000000000     13.675298757543                 2
   147   152   151   168     1    180.000000000000     13.675298757543                 2
   148   147   152   151     1    180.000000000000     13.675298757543                 2
   148   147   152   169     1    180.000000000000     13.675298757543                 2
   148   149   150   151     1    180.000000000000     13.675298757543                 2
   148   149   150   153     1    180.000000000000     13.675298757543                 2
   149   148   147   152     1    180.000000000000     13.675298757543                 2
   149   150   151   152     1    180.000000000000     13.675298757543                 2
   149   150   151   168     1    180.000000000000     13.675298757543                 2
   149   150   153   154     1      0.000000000000      0.162144015360                 1
   149   150   153   154     1    180.000000000000      1.044036389904                 2
   149   150   153   154     1      0.000000000000      0.264581673220                 3
   149   150   153   154     1    180.000000000000      0.223317256691                 4
   149   150   153   155     1      0.000000000000     -0.066396337305                 1
   149   150   153   155     1    180.000000000000      0.028593029893                 2
   149   150   153   155     1      0.000000000000      0.272385245649                 3
   149   150   153   155     1    180.000000000000      0.221148479494                 4
   149   150   153   170     1      0.000000000000     -0.096118446485                 1
   149   150   153   170     1    180.000000000000     -0.753986849069                 2
   149   150   153   170     1      0.000000000000      0.266114032785                 3
   149   150   153   170     1    180.000000000000      0.318738592259                 4
   150   149   148   166     1    180.000000000000     13.675298757543                 2
   150   151   152   169     1    180.000000000000     13.675298757543                 2
   150   153   154   171     1      0.000000000000      2.403957629039                 1
   150   153   154   171     1    180.000000000000      1.135632805233                 2
   150   153   154   171     1      0.000000000000      0.474727804138                 3
   150   153   154   171     1    180.000000000000      0.250173798711                 4
   150   153   154   187     1      0.000000000000     -4.791462004633                 1
   150   153   154   187     1    180.000000000000      2.457318751562                 2
   150   153   154   187     1      0.000000000000     -1.192151122504                 3
   150   153   154   187     1    180.000000000000     -0.165361169722                 4
   150   153   155   172     1      0.000000000000      0.602098025234                 3
   150   153   155   173     1      0.000000000000      0.602098025234                 3
   150   153   155   174     1      0.000000000000      0.602098025234                 3
   151   150   149   167     1    180.000000000000     13.675298757543                 2
   151   150   153   154     1      0.000000000000      0.162144015360                 1
   151   150   153   154     1    180.000000000000      1.044036389904                 2
   151   150   153   154     1      0.000000000000      0.264581673220                 3
   151   150   153   154     1    180.000000000000      0.223317256691                 4
   151   150   153   155     1      0.000000000000     -0.066396337305                 1
   151   150   153   155     1    180.000000000000      0.028593029893                 2
   151   150   153   155     1      0.000000000000      0.272385245649                 3
   151   150   153   155     1    180.000000000000      0.221148479494                 4
   151   150   153   170     1      0.000000000000     -0.096118446485                 1
   151   150   153   170     1    180.000000000000     -0.753986849069                 2
   151   150   153   170     1      0.000000000000      0.266114032785                 3
   151   150   153   170     1    180.000000000000      0.318738592259                 4
   152   147   148   166     1    180.000000000000     13.675298757543                 2
   152   151   150   153     1    180.000000000000     13.675298757543                 2
   153   150   149   167     1    180.000000000000     13.675298757543                 2
   153   150   151   168     1    180.000000000000     13.675298757543                 2
   153   154   187   186     1      0.000000000000      1.039750416371                 1
   153   154   187   186     1    180.000000000000      8.311519703568                 2
   153   154   187   186     1      0.000000000000      0.208676170094                 3
   153   154   187   186     1    180.000000000000     -0.430324480291                 4
   153   154   187   188     1      0.000000000000      1.254663584672                 1
   153   154   187   188     1    180.000000000000      7.812569865672                 2
   153   154   187   188     1      0.000000000000      1.543183701982                 3
   153   154   187   188     1    180.000000000000     -1.071796792211                 4
   154   153   155   172     1      0.000000000000      0.602098025234                 3
   154   153   155   173     1      0.000000000000      0.602098025234                 3
   154   153   155   174     1      0.000000000000      0.602098025234                 3
   154   187   186   183     1      0.000000000000      1.677468897821                 1
   154   187   186   183     1    180.000000000000     18.376239236531                 2
   154   187   186   183     1      0.000000000000     -0.195968939541                 3
   154   187   186   183     1    180.000000000000      2.112033823703                 4
   155   153   154   171     1      0.000000000000     -1.459824163242                 1
   155   153   154   171     1    180.000000000000      1.652545291898                 2
   155   153   154   171     1      0.000000000000      0.519590570339                 3
   155   153   154   171     1    180.000000000000     -0.017782897415                 4
   155   153   154   187     1      0.000000000000     -0.651732237448                 1
   155   153   154   187     1    180.000000000000     -0.208539163890                 2
   155   153   154   187     1      0.000000000000     -1.637961495902                 3
   155   153   154   187     1    180.000000000000     -0.431933502242                 4
   156   138   137   159     1    180.000000000000     13.675298757543                 2
   157   135   136   158     1    180.000000000000     13.675298757543                 2
   158   136   137   159     1    180.000000000000     13.675298757543                 2
   164   145   146   165     1    180.000000000000     13.675298757543                 2
   166   148   149   167     1    180.000000000000     13.675298757543                 2
   168   151   152   169     1    180.000000000000     13.675298757543                 2
   170   153   154   171     1      0.000000000000     -1.108653566226                 1
   170   153   154   171     1    180.000000000000      1.433965653894                 2
   170   153   154   171     1      0.000000000000      0.452107868426                 3
   170   153   154   171     1    180.000000000000     -0.048900047468                 4
   170   153   154   187     1      0.000000000000      2.628277103911                 1
   170   153   154   187     1    180.000000000000      0.508217978574                 2
   170   153   154   187     1      0.000000000000     -0.025219741705                 3
   170   153   154   187     1    180.000000000000     -0.076924026475                 4
   170   153   155   172     1      0.000000000000      0.953929629431                 3
   170   153   155   173     1      0.000000000000      0.953929629431                 3
   170   153   155   174     1      0.000000000000      0.953929629431                 3
   171   154   187   186     1      0.000000000000      2.054394011881                 1
   171   154   187   186     1    180.000000000000      8.632504914085                 2
   171   154   187   186     1      0.000000000000     -0.147651793737                 3
   171   154   187   186     1    180.000000000000     -0.972045891981                 4
   171   154   187   188     1      0.000000000000      4.702526581879                 1
   171   154   187   188     1    180.000000000000      2.037859700513                 2
   171   154   187   188     1      0.000000000000      1.231629559732                 3
   171   154   187   188     1    180.000000000000     -1.470144238847                 4
   175   156   157   176     1    180.000000000000     13.675298757543                 2
   182   183   184   192     1      0.000000000000      0.412282083439                 3
   182   183   184   193     1      0.000000000000      0.412282083439                 3
   182   183   184   194     1      0.000000000000      0.412282083439                 3
   182   183   185   195     1      0.000000000000      0.412282083439                 3
   182   183   185   196     1      0.000000000000      0.412282083439                 3
   182   183   185   197     1      0.000000000000      0.412282083439                 3
   182   183   186   187     1      0.000000000000      1.588986065974                 1
   182   183   186   187     1    180.000000000000      0.198248225299                 2
   182   183   186   187     1      0.000000000000     -1.745062000508                 3
   182   183   186   187     1    180.000000000000      1.261889950128                 4
   183   186   187   188     1      0.000000000000      3.879891170292                 1
   183   186   187   188     1    180.000000000000      4.796427815413                 2
   183   186   187   188     1      0.000000000000      0.523395842921                 3
   183   186   187   188     1    180.000000000000      0.675888425561                 4
   184   183   182   189     1      0.000000000000      0.412282083439                 3
   184   183   182   190     1      0.000000000000      0.412282083439                 3
   184   183   182   191     1      0.000000000000      0.412282083439                 3
   184   183   185   195     1      0.000000000000      0.412282083439                 3
   184   183   185   196     1      0.000000000000      0.412282083439                 3
   184   183   185   197     1      0.000000000000      0.412282083439                 3
   184   183   186   187     1      0.000000000000      1.588986065974                 1
   184   183   186   187     1    180.000000000000      0.198248225299                 2
   184   183   186   187     1      0.000000000000     -1.745062000508                 3
   184   183   186   187     1    180.000000000000      1.261889950128                 4
   185   183   182   189     1      0.000000000000      0.412282083439                 3
   185   183   182   190     1      0.000000000000      0.412282083439                 3
   185   183   182   191     1      0.000000000000      0.412282083439                 3
   185   183   184   192     1      0.000000000000      0.412282083439                 3
   185   183   184   193     1      0.000000000000      0.412282083439                 3
   185   183   184   194     1      0.000000000000      0.412282083439                 3
   185   183   186   187     1      0.000000000000      1.588986065974                 1
   185   183   186   187     1    180.000000000000      0.198248225299                 2
   185   183   186   187     1      0.000000000000     -1.745062000508                 3
   185   183   186   187     1    180.000000000000      1.261889950128                 4
   186   183   182   189     1      0.000000000000      0.548667589915                 3
   186   183   182   189     1      0.000000000000      1.826511275305                 1
   186   183   182   190     1      0.000000000000      0.548667589915                 3
   186   183   182   190     1      0.000000000000      1.826511275305                 1
   186   183   182   191     1      0.000000000000      0.548667589915                 3
   186   183   182   191     1      0.000000000000      1.826511275305                 1
   186   183   184   192     1      0.000000000000      0.548667589915                 3
   186   183   184   192     1      0.000000000000      1.826511275305                 1
   186   183   184   193     1      0.000000000000      0.548667589915                 3
   186   183   184   193     1      0.000000000000      1.826511275305                 1
   186   183   184   194     1      0.000000000000      0.548667589915                 3
   186   183   184   194     1      0.000000000000      1.826511275305                 1
   186   183   185   195     1      0.000000000000      0.548667589915                 3
   186   183   185   195     1      0.000000000000      1.826511275305                 1
   186   183   185   196     1      0.000000000000      0.548667589915                 3
   186   183   185   196     1      0.000000000000      1.826511275305                 1
   186   183   185   197     1      0.000000000000      0.548667589915                 3
   186   183   185   197     1      0.000000000000      1.826511275305                 1
   150   149   151   153     4    180.000000000000      7.295209241758                 2
    15     8    16    20     4    180.000000000000      7.295209241758                 2
    94    95   112    93     4    180.000000000000      7.295209241758                 2
     1     3   178     2     4    180.000000000000     18.013091641645                 2
    24    43     6    25     4    180.000000000000      7.295209241758                 2
    92    93   114    91     4    180.000000000000      7.295209241758                 2
    24    25    43     6     4    180.000000000000      7.295209241758                 2
    57    76    54    58     4    180.000000000000      7.295209241758                 2
    63    64    80    62     4    180.000000000000      7.295209241758                 2
     1   178     2     3     4    180.000000000000     18.013091641645                 2
    69    68    88    47     4    180.000000000000      7.295209241758                 2
    22    45    21    39     4    180.000000000000      1.752067434103                 2
   104   103   105   122     4    180.000000000000      7.295209241758                 2
    24     6    25    43     4    180.000000000000      7.295209241758                 2
   187   188   154   186     4    180.000000000000     18.013091641645                 2
   104   105   122   103     4    180.000000000000      7.295209241758                 2
   148   147   149   166     4    180.000000000000      7.295209241758                 2
     5     4     6    27     4    180.000000000000      7.295209241758                 2
    49    48    50    71     4    180.000000000000      7.295209241758                 2
   139   138   140   146     4    180.000000000000      7.295209241758                 2
   139   146   138   140     4    180.000000000000      7.295209241758                 2
    68    50    69    87     4    180.000000000000      7.295209241758                 2
   104   122   103   105     4    180.000000000000      7.295209241758                 2
   154   187   153   171     4    180.000000000000      1.752067434103                 2
   146   139   145   165     4    180.000000000000      7.295209241758                 2
    94    93    95   112     4    180.000000000000      7.295209241758                 2
     3     4    25     1     4    180.000000000000      7.295209241758                 2
    18    21    17    19     4    180.000000000000      7.295209241758                 2
    51    52    58    50     4    180.000000000000      7.295209241758                 2
   137   159   136   138     4    180.000000000000      7.295209241758                 2
   147   140   148   152     4    180.000000000000      7.295209241758                 2
    16    15    17    34     4    180.000000000000      7.295209241758                 2
   157   156   176   135     4    180.000000000000      7.295209241758                 2
   113    91   112   132     4    180.000000000000      7.295209241758                 2
    20    19    37    15     4    180.000000000000      7.295209241758                 2
   106   105   107   109     4    180.000000000000      7.295209241758                 2
     8     9    15     7     4    180.000000000000      7.295209241758                 2
   148   166   147   149     4    180.000000000000      7.295209241758                 2
    61    60    62    79     4    180.000000000000      7.295209241758                 2
    96    97   103    95     4    180.000000000000      7.295209241758                 2
   150   153   149   151     4    180.000000000000      7.295209241758                 2
   135   133   136   157     4    180.000000000000      7.295209241758                 2
   154   171   187   153     4    180.000000000000      1.752067434103                 2
    58    51    57    77     4    180.000000000000      7.295209241758                 2
    68    87    50    69     4    180.000000000000      7.295209241758                 2
   146   145   165   139     4    180.000000000000      7.295209241758                 2
   133   135   110   134     4    180.000000000000      7.295209241758                 2
   149   148   150   167     4    180.000000000000      7.295209241758                 2
    50    51    68    49     4    180.000000000000      7.295209241758                 2
   105   104   106   123     4    180.000000000000      7.295209241758                 2
   136   158   135   137     4    180.000000000000      7.295209241758                 2
   151   168   150   152     4    180.000000000000      7.295209241758                 2
    95    94    96   102     4    180.000000000000      7.295209241758                 2
    49    71    48    50     4    180.000000000000      7.295209241758                 2
     8    15     7     9     4    180.000000000000      7.295209241758                 2
   146   165   139   145     4    180.000000000000      7.295209241758                 2
    51    50    52    58     4    180.000000000000      7.295209241758                 2
     8     7     9    15     4    180.000000000000      7.295209241758                 2
   107   108   124   106     4    180.000000000000      7.295209241758                 2
    58    77    51    57     4    180.000000000000      7.295209241758                 2
   102   101   121    95     4    180.000000000000      7.295209241758                 2
    10     9    11    13     4    180.000000000000      7.295209241758                 2
   187   154   186   188     4    180.000000000000     18.013091641645                 2
   136   137   158   135     4    180.000000000000      7.295209241758                 2
    17    18    35    16     4    180.000000000000      7.295209241758                 2
    61    62    79    60     4    180.000000000000      7.295209241758                 2
   138   139   156   137     4    180.000000000000      7.295209241758                 2
   102    95   101   121     4    180.000000000000      7.295209241758                 2
   101   102   120    98     4    180.000000000000      7.295209241758                 2
   147   148   152   140     4    180.000000000000      7.295209241758                 2
    14    13    33     7     4    180.000000000000      7.295209241758                 2
    19    36    18    20     4    180.000000000000      7.295209241758                 2
     1     2     3   178     4    180.000000000000     18.013091641645                 2
   145   146   164   142     4    180.000000000000      7.295209241758                 2
    48    70    47    49     4    180.000000000000      7.295209241758                 2
   141   142   160   140     4    180.000000000000      7.295209241758                 2
    54    57    53    55     4    180.000000000000      7.295209241758                 2
    59    64    52    60     4    180.000000000000      7.295209241758                 2
    52    51    53    59     4    180.000000000000      7.295209241758                 2
   141   160   140   142     4    180.000000000000      7.295209241758                 2
    22    39    45    21     4    180.000000000000      1.752067434103                 2
    64    59    63    81     4    180.000000000000      7.295209241758                 2
   110   127   133   109     4    180.000000000000      1.752067434103                 2
     9    10    28     8     4    180.000000000000      7.295209241758                 2
    95   102    94    96     4    180.000000000000      7.295209241758                 2
    50    49    51    68     4    180.000000000000      7.295209241758                 2
   147   152   140   148     4    180.000000000000      7.295209241758                 2
   154   153   171   187     4    180.000000000000      1.752067434103                 2
   139   140   146   138     4    180.000000000000      7.295209241758                 2
   149   150   167   148     4    180.000000000000      7.295209241758                 2
    14    33     7    13     4    180.000000000000      7.295209241758                 2
    25     3    24    44     4    180.000000000000      7.295209241758                 2
    93    92    94   115     4    180.000000000000      7.295209241758                 2
    47    48    69    45     4    180.000000000000      7.295209241758                 2
    97    96    98   116     4    180.000000000000      7.295209241758                 2
    50    68    49    51     4    180.000000000000      7.295209241758                 2
    96   103    95    97     4    180.000000000000      7.295209241758                 2
    53    54    72    52     4    180.000000000000      7.295209241758                 2
   152   147   151   169     4    180.000000000000      7.295209241758                 2
    15    16    20     8     4    180.000000000000      7.295209241758                 2
   152   151   169   147     4    180.000000000000      7.295209241758                 2
    94   112    93    95     4    180.000000000000      7.295209241758                 2
   150   151   153   149     4    180.000000000000      7.295209241758                 2
   142   145   141   143     4    180.000000000000      7.295209241758                 2
    13    14    32    10     4    180.000000000000      7.295209241758                 2
     4     5    26     3     4    180.000000000000      7.295209241758                 2
   103   104   108    96     4    180.000000000000      7.295209241758                 2
     4     3     5    26     4    180.000000000000      7.295209241758                 2
   152   169   147   151     4    180.000000000000      7.295209241758                 2
    97    98   116    96     4    180.000000000000      7.295209241758                 2
    91    89    92   113     4    180.000000000000      7.295209241758                 2
    68    69    87    50     4    180.000000000000      7.295209241758                 2
    66    89    65    83     4    180.000000000000      1.752067434103                 2
   133   110   134   135     4    180.000000000000      7.295209241758                 2
    54    53    55    57     4    180.000000000000      7.295209241758                 2
   112   131    94   113     4    180.000000000000      7.295209241758                 2
    16    34    15    17     4    180.000000000000      7.295209241758                 2
   110   109   127   133     4    180.000000000000      1.752067434103                 2
     4    26     3     5     4    180.000000000000      7.295209241758                 2
    64    63    81    59     4    180.000000000000      7.295209241758                 2
    61    79    60    62     4    180.000000000000      7.295209241758                 2
   157   176   135   156     4    180.000000000000      7.295209241758                 2
    10    11    13     9     4    180.000000000000      7.295209241758                 2
    54    55    57    53     4    180.000000000000      7.295209241758                 2
   156   157   175   138     4    180.000000000000      7.295209241758                 2
     9     8    10    28     4    180.000000000000      7.295209241758                 2
    92   114    91    93     4    180.000000000000      7.295209241758                 2
    22    21    39    45     4    180.000000000000      1.752067434103                 2
    63    62    64    80     4    180.000000000000      7.295209241758                 2
    89    66    90    91     4    180.000000000000      7.295209241758                 2
     5     6    27     4     4    180.000000000000      7.295209241758                 2
    59    60    64    52     4    180.000000000000      7.295209241758                 2
   110   133   109   127     4    180.000000000000      1.752067434103                 2
    20    37    15    19     4    180.000000000000      7.295209241758                 2
    49    50    71    48     4    180.000000000000      7.295209241758                 2
    69    88    47    68     4    180.000000000000      7.295209241758                 2
    93    94   115    92     4    180.000000000000      7.295209241758                 2
    45    46    47    22     4    180.000000000000      7.295209241758                 2
   141   140   142   160     4    180.000000000000      7.295209241758                 2
     6    24     5     7     4    180.000000000000      7.295209241758                 2
    60    61    78    59     4    180.000000000000      7.295209241758                 2
    57    58    76    54     4    180.000000000000      7.295209241758                 2
    53    72    52    54     4    180.000000000000      7.295209241758                 2
    17    16    18    35     4    180.000000000000      7.295209241758                 2
    98    99   101    97     4    180.000000000000      7.295209241758                 2
     5    27     4     6     4    180.000000000000      7.295209241758                 2
     7     6     8    14     4    180.000000000000      7.295209241758                 2
   156   175   138   157     4    180.000000000000      7.295209241758                 2
    91   113    89    92     4    180.000000000000      7.295209241758                 2
   145   142   146   164     4    180.000000000000      7.295209241758                 2
    13    10    14    32     4    180.000000000000      7.295209241758                 2
   108   125   103   107     4    180.000000000000      7.295209241758                 2
    96    95    97   103     4    180.000000000000      7.295209241758                 2
    18    17    19    21     4    180.000000000000      7.295209241758                 2
   140   141   147   139     4    180.000000000000      7.295209241758                 2
   137   136   138   159     4    180.000000000000      7.295209241758                 2
    98    97    99   101     4    180.000000000000      7.295209241758                 2
    15    20     8    16     4    180.000000000000      7.295209241758                 2
   148   149   166   147     4    180.000000000000      7.295209241758                 2
    18    19    21    17     4    180.000000000000      7.295209241758                 2
    66    83    89    65     4    180.000000000000      1.752067434103                 2
     6     7    24     5     4    180.000000000000      7.295209241758                 2
   140   139   141   147     4    180.000000000000      7.295209241758                 2
    69    47    68    88     4    180.000000000000      7.295209241758                 2
    97   116    96    98     4    180.000000000000      7.295209241758                 2
    10    13     9    11     4    180.000000000000      7.295209241758                 2
   103   108    96   104     4    180.000000000000      7.295209241758                 2
    60    78    59    61     4    180.000000000000      7.295209241758                 2
    19    18    20    36     4    180.000000000000      7.295209241758                 2
    62    65    61    63     4    180.000000000000      7.295209241758                 2
    25    44     3    24     4    180.000000000000      7.295209241758                 2
    95    96   102    94     4    180.000000000000      7.295209241758                 2
   140   147   139   141     4    180.000000000000      7.295209241758                 2
    13    32    10    14     4    180.000000000000      7.295209241758                 2
   135   157   133   136     4    180.000000000000      7.295209241758                 2
   108   107   125   103     4    180.000000000000      7.295209241758                 2
    62    63    65    61     4    180.000000000000      7.295209241758                 2
   135   136   157   133     4    180.000000000000      7.295209241758                 2
     6     5     7    24     4    180.000000000000      7.295209241758                 2
   113   132    91   112     4    180.000000000000      7.295209241758                 2
    48    47    49    70     4    180.000000000000      7.295209241758                 2
   136   135   137   158     4    180.000000000000      7.295209241758                 2
   106   109   105   107     4    180.000000000000      7.295209241758                 2
   101   120    98   102     4    180.000000000000      7.295209241758                 2
   107   106   108   124     4    180.000000000000      7.295209241758                 2
    52    53    59    51     4    180.000000000000      7.295209241758                 2
    57    54    58    76     4    180.000000000000      7.295209241758                 2
   157   135   156   176     4    180.000000000000      7.295209241758                 2
    93   115    92    94     4    180.000000000000      7.295209241758                 2
   138   137   139   156     4    180.000000000000      7.295209241758                 2
    63    80    62    64     4    180.000000000000      7.295209241758                 2
    47    45    48    69     4    180.000000000000      7.295209241758                 2
   107   124   106   108     4    180.000000000000      7.295209241758                 2
    58    57    77    51     4    180.000000000000      7.295209241758                 2
   142   143   145   141     4    180.000000000000      7.295209241758                 2
    45    47    22    46     4    180.000000000000      7.295209241758                 2
    59    52    60    64     4    180.000000000000      7.295209241758                 2
   142   141   143   145     4    180.000000000000      7.295209241758                 2
   145   164   142   146     4    180.000000000000      7.295209241758                 2
   156   138   157   175     4    180.000000000000      7.295209241758                 2
   112   113   131    94     4    180.000000000000      7.295209241758                 2
    62    61    63    65     4    180.000000000000      7.295209241758                 2
    60    59    61    78     4    180.000000000000      7.295209241758                 2
   149   167   148   150     4    180.000000000000      7.295209241758                 2
    98   101    97    99     4    180.000000000000      7.295209241758                 2
   137   138   159   136     4    180.000000000000      7.295209241758                 2
    51    58    50    52     4    180.000000000000      7.295209241758                 2
   112    94   113   131     4    180.000000000000      7.295209241758                 2
    20    15    19    37     4    180.000000000000      7.295209241758                 2
   105   123   104   106     4    180.000000000000      7.295209241758                 2
    47    69    45    48     4    180.000000000000      7.295209241758                 2
   138   156   137   139     4    180.000000000000      7.295209241758                 2
    53    52    54    72     4    180.000000000000      7.295209241758                 2
     3     1     4    25     4    180.000000000000      7.295209241758                 2
    66    65    83    89     4    180.000000000000      1.752067434103                 2
    17    35    16    18     4    180.000000000000      7.295209241758                 2
   105   106   123   104     4    180.000000000000      7.295209241758                 2
     9    28     8    10     4    180.000000000000      7.295209241758                 2
     7     8    14     6     4    180.000000000000      7.295209241758                 2
   133   134   135   110     4    180.000000000000      7.295209241758                 2
    92    91    93   114     4    180.000000000000      7.295209241758                 2
    25    24    44     3     4    180.000000000000      7.295209241758                 2
     7    14     6     8     4    180.000000000000      7.295209241758                 2
    89    90    91    66     4    180.000000000000      7.295209241758                 2
    91    92   113    89     4    180.000000000000      7.295209241758                 2
    89    91    66    90     4    180.000000000000      7.295209241758                 2
    48    49    70    47     4    180.000000000000      7.295209241758                 2
   103    96   104   108     4    180.000000000000      7.295209241758                 2
   102   121    95   101     4    180.000000000000      7.295209241758                 2
   113   112   132    91     4    180.000000000000      7.295209241758                 2
   108   103   107   125     4    180.000000000000      7.295209241758                 2
   151   150   152   168     4    180.000000000000      7.295209241758                 2
   101    98   102   120     4    180.000000000000      7.295209241758                 2
    19    20    36    18     4    180.000000000000      7.295209241758                 2
    45    22    46    47     4    180.000000000000      7.295209241758                 2
    14     7    13    33     4    180.000000000000      7.295209241758                 2
   151   152   168   150     4    180.000000000000      7.295209241758                 2
    64    81    59    63     4    180.000000000000      7.295209241758                 2
    16    17    34    15     4    180.000000000000      7.295209241758                 2
    52    59    51    53     4    180.000000000000      7.295209241758                 2
   187   186   188   154     4    180.000000000000     18.013091641645                 2
     3    25     1     4     4    180.000000000000      7.295209241758                 2
   106   107   109   105     4    180.000000000000      7.295209241758                 2

[ settles ]
;i  funct   dOH  dHH


[ exclusions ]
;ai    aj

[ moleculetype ]
TCM	         3

[ atoms ]
;index, atom type, resnum, resname, name, cgnr, charge, mass
     1 TCM_0        1 TCM      c1         1      0.224379999936     12.010780000000
     2 TCM_1        1 TCM      cl1        1     -0.114630000293     35.453200000000
     3 TCM_2        1 TCM      cl2        1     -0.114630000293     35.453200000000
     4 TCM_3        1 TCM      h1         1      0.119510000944      1.007947000000
     5 TCM_4        1 TCM      cl3        1     -0.114630000293     35.453200000000

[ pairs ]
;ai    aj   funct

[ bonds ]
;ai    aj   funct r k
     1      2      1      0.179482617418  173885.040698109922 
     1      3      1      0.179482617418  173885.040698109922 
     1      4      1      0.109288837838  317186.185378679947 
     1      5      1      0.179482617418  173885.040698109922 

[ angles ]
;ai    aj   ak   funct theta  k
     2      1      3      1     107.660782175200     425.669014814353 
     2      1      4      1     107.660782175200     425.669014814353 
     2      1      5      1     107.660782175200     425.669014814353 
     3      1      4      1     107.660782175200     425.669014814353 
     3      1      5      1     107.660782175200     425.669014814353 
     4      1      5      1     107.660782175200     425.669014814353 

[ dihedrals ]
;ai    aj   ak   al   funct phi  k

[ settles ]
;i  funct   dOH  dHH


[ exclusions ]
;ai    aj


[ system ]
;name
FOO

[ molecules ]
;name	number
em_pop_tetramer	1
TCM	634

