FOO
 3367
    1PMP     C1    1   1.231   3.687   1.416
    1PMP     O2    2   1.116   3.625   1.474
    1PMP     C3    3   1.092   3.644   1.608
    1PMP     C4    4   0.965   3.611   1.654
    1PMP     C5    5   0.928   3.627   1.789
    1PMP     C6    6   0.793   3.591   1.836
    1PMP     C7    7   0.726   3.673   1.927
    1PMP     C8    8   0.598   3.639   1.973
    1PMP     C9    9   0.534   3.522   1.929
    1PMP    C10   10   0.400   3.484   1.978
    1PMP    O11   11   0.350   3.552   2.067
    1PMP    C12   12   0.603   3.440   1.836
    1PMP    C13   13   0.730   3.475   1.791
    1PMP    C14   14   1.024   3.675   1.878
    1PMP    C15   15   1.155   3.705   1.837
    1PMP    C16   16   1.256   3.745   1.937
    1PMP    C17   17   1.252   3.693   2.067
    1PMP    C18   18   1.348   3.728   2.162
    1PMP    C19   19   1.453   3.816   2.130
    1PMP    C20   20   1.562   3.853   2.230
    1PMP    C21   21   1.531   3.820   2.377
    1PMP    N22   22   1.694   3.798   2.195
    1PMP    C23   23   1.457   3.869   2.000
    1PMP    C24   24   1.360   3.834   1.905
    1PMP    C25   25   1.187   3.691   1.701
    1PMP    H26   26   1.219   3.673   1.308
    1PMP    H27   27   1.229   3.793   1.444
    1PMP    H28   28   1.318   3.633   1.454
    1PMP    H29   29   0.893   3.573   1.583
    1PMP    H30   30   0.771   3.766   1.961
    1PMP    H31   31   0.548   3.706   2.043
    1PMP    H32   32   0.557   3.348   1.800
    1PMP    H33   33   0.781   3.409   1.721
    1PMP    H34   34   0.997   3.687   1.982
    1PMP    H35   35   1.176   3.621   2.096
    1PMP    H36   36   1.340   3.683   2.260
    1PMP    H37   37   1.571   3.962   2.225
    1PMP    H38   38   1.435   3.869   2.399
    1PMP    H39   39   1.527   3.712   2.385
    1PMP    H40   40   1.613   3.863   2.435
    1PMP    H41   41   1.775   3.857   2.214
    1PMP    H42   42   1.536   3.937   1.972
    1PMP    H43   43   1.366   3.878   1.806
    1PMP    H44   44   1.288   3.713   1.669
    2PMP    C45   45   1.094   3.294   1.645
    2PMP    O46   46   1.031   3.297   1.774
    2PMP    C47   47   1.113   3.261   1.877
    2PMP    C48   48   1.226   3.336   1.913
    2PMP    C49   49   1.310   3.297   2.018
    2PMP    C50   50   1.427   3.380   2.054
    2PMP    C51   51   1.493   3.456   1.956
    2PMP    C52   52   1.594   3.546   1.990
    2PMP    C53   53   1.631   3.564   2.124
    2PMP    C54   54   1.727   3.669   2.159
    2PMP    O55   55   1.846   3.654   2.137
    2PMP    C56   56   1.571   3.483   2.222
    2PMP    C57   57   1.470   3.392   2.187
    2PMP    C58   58   1.278   3.179   2.088
    2PMP    C59   59   1.164   3.104   2.055
    2PMP    C60   60   1.131   2.979   2.122
    2PMP    C61   61   1.223   2.874   2.125
    2PMP    C62   62   1.183   2.748   2.170
    2PMP    C63   63   1.053   2.725   2.216
    2PMP    C64   64   1.007   2.583   2.239
    2PMP    C65   65   0.915   2.563   2.361
    2PMP    N66   66   0.955   2.538   2.110
    2PMP    C67   67   0.963   2.834   2.220
    2PMP    C68   68   1.002   2.959   2.172
    2PMP    C69   69   1.082   3.147   1.950
    2PMP    H70   70   1.125   3.191   1.628
    2PMP    H71   71   1.016   3.326   1.576
    2PMP    H72   72   1.177   3.365   1.648
    2PMP    H73   73   1.243   3.429   1.859
    2PMP    H74   74   1.465   3.448   1.851
    2PMP    H75   75   1.640   3.606   1.913
    2PMP    H76   76   1.601   3.493   2.326
    2PMP    H77   77   1.422   3.335   2.265
    2PMP    H78   78   1.341   3.144   2.169
    2PMP    H79   79   1.323   2.888   2.086
    2PMP    H80   80   1.254   2.666   2.164
    2PMP    H81   81   1.096   2.524   2.260
    2PMP    H82   82   0.974   2.595   2.447
    2PMP    H83   83   0.826   2.623   2.347
    2PMP    H84   84   0.893   2.456   2.363
    2PMP    H85   85   1.029   2.523   2.042
    2PMP    H86   86   0.860   2.820   2.251
    2PMP    H87   87   0.929   3.040   2.169
    2PMP    H88   88   0.994   3.090   1.922
    3PMP    C89   89   1.113   2.761   1.219
    3PMP    O90   90   1.070   2.898   1.228
    3PMP    C91   91   0.998   2.938   1.339
    3PMP    C92   92   0.984   2.864   1.457
    3PMP    C93   93   0.906   2.911   1.564
    3PMP    C94   94   0.891   2.831   1.688
    3PMP    C95   95   0.769   2.830   1.758
    3PMP    C96   96   0.755   2.754   1.875
    3PMP    C97   97   0.861   2.676   1.925
    3PMP    C98   98   0.845   2.600   2.051
    3PMP    O99   99   0.739   2.603   2.112
    3PMP   C100  100   0.983   2.680   1.855
    3PMP   C101  101   0.997   2.756   1.738
    3PMP   C102  102   0.842   3.035   1.550
    3PMP   C103  103   0.856   3.113   1.434
    3PMP   C104  104   0.791   3.245   1.422
    3PMP   C105  105   0.666   3.271   1.481
    3PMP   C106  106   0.607   3.397   1.471
    3PMP   C107  107   0.670   3.501   1.402
    3PMP   C108  108   0.604   3.637   1.391
    3PMP   C109  109   0.662   3.729   1.499
    3PMP   N110  110   0.619   3.678   1.251
    3PMP   C111  111   0.796   3.476   1.345
    3PMP   C112  112   0.855   3.350   1.354
    3PMP   C113  113   0.935   3.061   1.329
    3PMP   H114  114   1.024   2.698   1.234
    3PMP   H115  115   1.154   2.751   1.119
    3PMP   H116  116   1.189   2.747   1.297
    3PMP   H117  117   1.033   2.767   1.467
    3PMP   H118  118   0.684   2.887   1.723
    3PMP   H119  119   0.659   2.756   1.927
    3PMP   H120  120   1.070   2.626   1.890
    3PMP   H121  121   1.094   2.757   1.689
    3PMP   H122  122   0.785   3.075   1.633
    3PMP   H123  123   0.614   3.192   1.534
    3PMP   H124  124   0.510   3.414   1.518
    3PMP   H125  125   0.497   3.626   1.411
    3PMP   H126  126   0.647   3.677   1.594
    3PMP   H127  127   0.767   3.744   1.474
    3PMP   H128  128   0.604   3.822   1.494
    3PMP   H129  129   0.604   3.604   1.183
    3PMP   H130  130   0.850   3.556   1.295
    3PMP   H131  131   0.953   3.335   1.309
    3PMP   H132  132   0.946   3.117   1.237
    4PMP   C133  133   0.756   3.966   0.319
    4PMP   O134  134   0.885   3.904   0.319
    4PMP   C135  135   0.926   3.841   0.434
    4PMP   C136  136   0.859   3.843   0.558
    4PMP   C137  137   0.909   3.773   0.668
    4PMP   C138  138   0.841   3.777   0.799
    4PMP   C139  139   0.800   3.899   0.855
    4PMP   C140  140   0.745   3.904   0.984
    4PMP   C141  141   0.728   3.786   1.059
    4PMP   C142  142   0.677   3.792   1.198
    4PMP   O143  143   0.694   3.893   1.265
    4PMP   C144  144   0.766   3.664   1.001
    4PMP   C145  145   0.822   3.659   0.873
    4PMP   C146  146   1.027   3.699   0.654
    4PMP   C147  147   1.098   3.697   0.533
    4PMP   C148  148   1.224   3.624   0.522
    4PMP   C149  149   1.318   3.625   0.626
    4PMP   C150  150   1.439   3.557   0.615
    4PMP   C151  151   1.470   3.484   0.500
    4PMP   C152  152   1.602   3.409   0.492
    4PMP   C153  153   1.591   3.272   0.560
    4PMP   N154  154   1.656   3.410   0.356
    4PMP   C155  155   1.376   3.481   0.396
    4PMP   C156  156   1.255   3.550   0.406
    4PMP   C157  157   1.045   3.768   0.424
    4PMP   H158  158   0.759   4.047   0.393
    4PMP   H159  159   0.743   4.004   0.217
    4PMP   H160  160   0.683   3.888   0.343
    4PMP   H161  161   0.767   3.899   0.570
    4PMP   H162  162   0.815   3.991   0.800
    4PMP   H163  163   0.717   4.000   1.026
    4PMP   H164  164   0.755   3.570   1.055
    4PMP   H165  165   0.853   3.564   0.831
    4PMP   H166  166   1.066   3.645   0.739
    4PMP   H167  167   1.297   3.682   0.717
    4PMP   H168  168   1.509   3.561   0.698
    4PMP   H169  169   1.674   3.465   0.552
    4PMP   H170  170   1.576   3.293   0.667
    4PMP   H171  171   1.505   3.222   0.516
    4PMP   H172  172   1.686   3.221   0.540
    4PMP   H173  173   1.687   3.501   0.322
    4PMP   H174  174   1.394   3.423   0.306
    4PMP   H175  175   1.185   3.545   0.324
    4PMP   H176  176   1.099   3.770   0.330
    5CAP   C177  177   0.209   3.342   1.969
    5CAP   O178  178   0.341   3.375   1.921
    5CAP   H179  179   0.219   3.322   2.076
    5CAP   H180  180   0.179   3.254   1.913
    5CAP   H181  181   0.146   3.429   1.948
    6CAP   C182  182   1.674   3.401  -0.098
    6CAP   C183  183   1.634   3.301   0.012
    6CAP   C184  184   1.482   3.275  -0.002
    6CAP   C185  185   1.715   3.171  -0.007
    6CAP   O186  186   1.670   3.369   0.134
    6CAP   C187  187   1.633   3.321   0.254
    6CAP   O188  188   1.582   3.212   0.276
    6CAP   H189  189   1.649   3.355  -0.194
    6CAP   H190  190   1.616   3.492  -0.080
    6CAP   H191  191   1.782   3.418  -0.086
    6CAP   H192  192   1.433   3.368   0.028
    6CAP   H193  193   1.457   3.192   0.063
    6CAP   H194  194   1.464   3.250  -0.107
    6CAP   H195  195   1.820   3.198   0.007
    6CAP   H196  196   1.679   3.100   0.068
    6CAP   H197  197   1.695   3.137  -0.109
    7TCM     c1  198   4.378   0.382   2.627
    7TCM    cl1  199   4.504   0.353   2.502
    7TCM    cl2  200   4.406   0.542   2.701
    7TCM     h1  201   4.279   0.379   2.581
    7TCM    cl3  202   4.389   0.257   2.755
    8TCM     c1  203   1.599   2.451   4.356
    8TCM    cl1  204   1.439   2.381   4.313
    8TCM    cl2  205   1.609   2.619   4.293
    8TCM     h1  206   1.610   2.453   4.465
    8TCM    cl3  207   1.730   2.352   4.284
    9TCM     c1  208   1.699   1.992   0.779
    9TCM    cl1  209   1.550   2.026   0.686
    9TCM    cl2  210   1.834   2.090   0.713
    9TCM     h1  211   1.683   2.017   0.884
    9TCM    cl3  212   1.738   1.817   0.765
   10TCM     c1  213   2.799   0.429   3.615
   10TCM    cl1  214   2.835   0.341   3.462
   10TCM    cl2  215   2.922   0.385   3.738
   10TCM     h1  216   2.801   0.536   3.597
   10TCM    cl3  217   2.637   0.380   3.674
   11TCM     c1  218   2.172   1.432   2.784
   11TCM    cl1  219   2.049   1.546   2.720
   11TCM    cl2  220   2.146   1.410   2.960
   11TCM     h1  221   2.162   1.336   2.733
   11TCM    cl3  222   2.336   1.499   2.756
   12TCM     c1  223   4.980   1.284   0.193
   12TCM    cl1  224   5.144   1.341   0.147
   12TCM    cl2  225   4.970   1.272   0.371
   12TCM     h1  226   4.904   1.354   0.156
   12TCM    cl3  227   4.951   1.122   0.121
   13TCM     c1  228   2.815   0.587   2.453
   13TCM    cl1  229   2.709   0.731   2.438
   13TCM    cl2  230   2.787   0.477   2.314
   13TCM     h1  231   2.920   0.619   2.454
   13TCM    cl3  232   2.776   0.501   2.606
   14TCM     c1  233   3.494   3.879   4.342
   14TCM    cl1  234   3.410   3.938   4.195
   14TCM    cl2  235   3.488   4.008   4.468
   14TCM     h1  236   3.445   3.789   4.379
   14TCM    cl3  237   3.665   3.844   4.302
   15TCM     c1  238   0.371   3.823   3.418
   15TCM    cl1  239   0.274   3.762   3.557
   15TCM    cl2  240   0.438   3.685   3.326
   15TCM     h1  241   0.308   3.884   3.354
   15TCM    cl3  242   0.507   3.923   3.480
   16TCM     c1  243   3.877   1.090   2.620
   16TCM    cl1  244   3.955   1.155   2.768
   16TCM    cl2  245   4.001   1.017   2.513
   16TCM     h1  246   3.803   1.014   2.648
   16TCM    cl3  247   3.795   1.224   2.532
   17TCM     c1  248   4.935   2.979   4.246
   17TCM    cl1  249   4.827   2.919   4.376
   17TCM    cl2  250   5.070   2.863   4.224
   17TCM     h1  251   4.878   2.988   4.152
   17TCM    cl3  252   5.001   3.139   4.292
   18TCM     c1  253   0.668   2.644   1.450
   18TCM    cl1  254   0.535   2.757   1.491
   18TCM    cl2  255   0.738   2.689   1.292
   18TCM     h1  256   0.745   2.647   1.527
   18TCM    cl3  257   0.602   2.477   1.435
   19TCM     c1  258   1.168   1.701   2.188
   19TCM    cl1  259   1.031   1.596   2.234
   19TCM    cl2  260   1.167   1.728   2.010
   19TCM     h1  261   1.160   1.797   2.239
   19TCM    cl3  262   1.321   1.622   2.236
   20TCM     c1  263   4.538   4.272   0.505
   20TCM    cl1  264   4.661   4.384   0.572
   20TCM    cl2  265   4.598   4.103   0.520
   20TCM     h1  266   4.444   4.282   0.561
   20TCM    cl3  267   4.509   4.310   0.333
   21TCM     c1  268   2.467   4.949   3.842
   21TCM    cl1  269   2.642   4.909   3.841
   21TCM    cl2  270   2.373   4.798   3.866
   21TCM     h1  271   2.446   5.019   3.923
   21TCM    cl3  272   2.421   5.024   3.686
   22TCM     c1  273   2.840   1.549   2.682
   22TCM    cl1  274   2.934   1.396   2.686
   22TCM    cl2  275   2.676   1.517   2.616
   22TCM     h1  276   2.831   1.589   2.783
   22TCM    cl3  277   2.923   1.668   2.578
   23TCM     c1  278   0.827   2.786   4.848
   23TCM    cl1  279   0.979   2.810   4.939
   23TCM    cl2  280   0.861   2.698   4.696
   23TCM     h1  281   0.757   2.729   4.908
   23TCM    cl3  282   0.756   2.947   4.810
   24TCM     c1  283   4.476   3.256   2.193
   24TCM    cl1  284   4.462   3.385   2.070
   24TCM    cl2  285   4.313   3.200   2.241
   24TCM     h1  286   4.532   3.172   2.151
   24TCM    cl3  287   4.563   3.318   2.338
   25TCM     c1  288   0.357   3.624   4.609
   25TCM    cl1  289   0.222   3.514   4.566
   25TCM    cl2  290   0.337   3.685   4.776
   25TCM     h1  291   0.452   3.571   4.600
   25TCM    cl3  292   0.357   3.763   4.495
   26TCM     c1  293   2.389   1.155   3.234
   26TCM    cl1  294   2.454   1.270   3.113
   26TCM    cl2  295   2.387   0.990   3.166
   26TCM     h1  296   2.452   1.157   3.323
   26TCM    cl3  297   2.222   1.205   3.279
   27TCM     c1  298   1.310   1.901   2.539
   27TCM    cl1  299   1.428   1.778   2.596
   27TCM    cl2  300   1.148   1.826   2.520
   27TCM     h1  301   1.304   1.983   2.612
   27TCM    cl3  302   1.365   1.965   2.381
   28TCM     c1  303   3.248   4.361   4.844
   28TCM    cl1  304   3.382   4.266   4.772
   28TCM    cl2  305   3.117   4.251   4.897
   28TCM     h1  306   3.285   4.416   4.930
   28TCM    cl3  307   3.183   4.475   4.721
   29TCM     c1  308   2.595   2.218   2.392
   29TCM    cl1  309   2.635   2.205   2.217
   29TCM    cl2  310   2.576   2.390   2.436
   29TCM     h1  311   2.502   2.164   2.412
   29TCM    cl3  312   2.728   2.146   2.488
   30TCM     c1  313   2.926   2.107   4.903
   30TCM    cl1  314   2.929   1.948   4.986
   30TCM    cl2  315   3.073   2.199   4.948
   30TCM     h1  316   2.924   2.092   4.795
   30TCM    cl3  317   2.780   2.199   4.953
   31TCM     c1  318   0.091   0.028   1.138
   31TCM    cl1  319   0.106  -0.144   1.189
   31TCM    cl2  320   0.118   0.134   1.280
   31TCM     h1  321   0.165   0.049   1.061
   31TCM    cl3  322  -0.074   0.056   1.073
   32TCM     c1  323   3.097   0.487   1.021
   32TCM    cl1  324   2.921   0.501   1.056
   32TCM    cl2  325   3.188   0.595   1.132
   32TCM     h1  326   3.129   0.383   1.035
   32TCM    cl3  327   3.128   0.538   0.852
   33TCM     c1  328   3.871   3.082   1.756
   33TCM    cl1  329   3.789   2.930   1.707
   33TCM    cl2  330   3.754   3.192   1.835
   33TCM     h1  331   3.952   3.058   1.826
   33TCM    cl3  332   3.939   3.163   1.611
   34TCM     c1  333   1.121   0.822   3.483
   34TCM    cl1  334   0.972   0.851   3.388
   34TCM    cl2  335   1.121   0.927   3.629
   34TCM     h1  336   1.125   0.717   3.515
   34TCM    cl3  337   1.266   0.858   3.383
   35TCM     c1  338   0.769   0.171   3.790
   35TCM    cl1  339   0.759   0.234   3.958
   35TCM    cl2  340   0.865   0.019   3.788
   35TCM     h1  341   0.669   0.152   3.751
   35TCM    cl3  342   0.851   0.293   3.686
   36TCM     c1  343   2.764   3.457   3.201
   36TCM    cl1  344   2.846   3.317   3.278
   36TCM    cl2  345   2.887   3.560   3.119
   36TCM     h1  346   2.690   3.423   3.129
   36TCM    cl3  347   2.683   3.554   3.329
   37TCM     c1  348   0.276   0.837   2.458
   37TCM    cl1  349   0.176   0.714   2.541
   37TCM    cl2  350   0.375   0.756   2.332
   37TCM     h1  351   0.211   0.911   2.411
   37TCM    cl3  352   0.384   0.917   2.576
   38TCM     c1  353   4.927   1.771   2.032
   38TCM    cl1  354   5.082   1.736   2.114
   38TCM    cl2  355   4.941   1.926   1.944
   38TCM     h1  356   4.903   1.691   1.962
   38TCM    cl3  357   4.797   1.783   2.155
   39TCM     c1  358   1.182   3.325   2.506
   39TCM    cl1  359   1.346   3.264   2.547
   39TCM    cl2  360   1.098   3.205   2.404
   39TCM     h1  361   1.125   3.342   2.598
   39TCM    cl3  362   1.198   3.479   2.416
   40TCM     c1  363   3.724   1.336   2.031
   40TCM    cl1  364   3.663   1.211   1.918
   40TCM    cl2  365   3.651   1.312   2.192
   40TCM     h1  366   3.833   1.329   2.038
   40TCM    cl3  367   3.680   1.499   1.969
   41TCM     c1  368   0.807   1.908   1.861
   41TCM    cl1  369   0.858   2.077   1.891
   41TCM    cl2  370   0.643   1.909   1.788
   41TCM     h1  371   0.877   1.859   1.792
   41TCM    cl3  372   0.806   1.819   2.017
   42TCM     c1  373   2.222   3.490   1.758
   42TCM    cl1  374   2.386   3.544   1.706
   42TCM    cl2  375   2.115   3.481   1.614
   42TCM     h1  376   2.230   3.392   1.805
   42TCM    cl3  377   2.156   3.609   1.875
   43TCM     c1  378   0.823   4.314   1.041
   43TCM    cl1  379   0.654   4.310   0.983
   43TCM    cl2  380   0.932   4.246   0.916
   43TCM     h1  381   0.852   4.418   1.062
   43TCM    cl3  382   0.837   4.217   1.191
   44TCM     c1  383   0.334   1.086   4.748
   44TCM    cl1  384   0.171   1.076   4.824
   44TCM    cl2  385   0.409   1.243   4.790
   44TCM     h1  386   0.396   1.004   4.785
   44TCM    cl3  387   0.317   1.073   4.570
   45TCM     c1  388   1.294   3.530   4.788
   45TCM    cl1  389   1.412   3.659   4.752
   45TCM    cl2  390   1.319   3.393   4.676
   45TCM     h1  391   1.308   3.496   4.891
   45TCM    cl3  392   1.126   3.593   4.770
   46TCM     c1  393   0.225   0.420   4.500
   46TCM    cl1  394   0.401   0.436   4.535
   46TCM    cl2  395   0.188   0.247   4.467
   46TCM     h1  396   0.167   0.454   4.586
   46TCM    cl3  397   0.184   0.517   4.356
   47TCM     c1  398   0.983   3.898   2.297
   47TCM    cl1  399   0.891   3.752   2.246
   47TCM    cl2  400   1.053   3.977   2.152
   47TCM     h1  401   0.916   3.967   2.348
   47TCM    cl3  402   1.115   3.849   2.409
   48TCM     c1  403   3.389   3.912   4.803
   48TCM    cl1  404   3.387   3.755   4.715
   48TCM    cl2  405   3.548   3.934   4.883
   48TCM     h1  406   3.372   3.993   4.732
   48TCM    cl3  407   3.259   3.913   4.926
   49TCM     c1  408   1.350   1.400   1.411
   49TCM    cl1  409   1.227   1.387   1.541
   49TCM    cl2  410   1.503   1.464   1.480
   49TCM     h1  411   1.368   1.301   1.368
   49TCM    cl3  412   1.291   1.511   1.284
   50TCM     c1  413   3.310   0.480   2.206
   50TCM    cl1  414   3.140   0.533   2.187
   50TCM    cl2  415   3.313   0.314   2.273
   50TCM     h1  416   3.360   0.481   2.108
   50TCM    cl3  417   3.395   0.592   2.317
   51TCM     c1  418   0.106   0.365   1.775
   51TCM    cl1  419  -0.015   0.389   1.906
   51TCM    cl2  420   0.265   0.426   1.830
   51TCM     h1  421   0.113   0.258   1.752
   51TCM    cl3  422   0.055   0.455   1.629
   52TCM     c1  423   3.553   2.199   1.173
   52TCM    cl1  424   3.595   2.038   1.240
   52TCM    cl2  425   3.697   2.269   1.092
   52TCM     h1  426   3.472   2.188   1.100
   52TCM    cl3  427   3.499   2.307   1.305
   53TCM     c1  428   4.103   4.946   0.472
   53TCM    cl1  429   3.991   4.806   0.462
   53TCM    cl2  430   4.024   5.090   0.400
   53TCM     h1  431   4.126   4.966   0.577
   53TCM    cl3  432   4.254   4.910   0.383
   54TCM     c1  433   4.931   1.555   3.130
   54TCM    cl1  434   4.798   1.674   3.109
   54TCM    cl2  435   4.863   1.389   3.120
   54TCM     h1  436   5.005   1.569   3.051
   54TCM    cl3  437   5.008   1.578   3.290
   55TCM     c1  438   2.104   3.158   2.423
   55TCM    cl1  439   2.195   3.071   2.295
   55TCM    cl2  440   2.095   3.333   2.383
   55TCM     h1  441   2.004   3.116   2.432
   55TCM    cl3  442   2.191   3.140   2.579
   56TCM     c1  443   0.471   0.020   4.552
   56TCM    cl1  444   0.395   0.066   4.708
   56TCM    cl2  445   0.516  -0.154   4.558
   56TCM     h1  446   0.401   0.036   4.470
   56TCM    cl3  447   0.619   0.119   4.526
   57TCM     c1  448   4.576   0.379   4.411
   57TCM    cl1  449   4.613   0.418   4.583
   57TCM    cl2  450   4.404   0.331   4.396
   57TCM     h1  451   4.595   0.468   4.350
   57TCM    cl3  452   4.682   0.246   4.356
   58TCM     c1  453   3.576   4.222   1.499
   58TCM    cl1  454   3.656   4.378   1.535
   58TCM    cl2  455   3.465   4.243   1.360
   58TCM     h1  456   3.651   4.147   1.474
   58TCM    cl3  457   3.483   4.169   1.643
   59TCM     c1  458   4.636   4.329   4.726
   59TCM    cl1  459   4.609   4.347   4.902
   59TCM    cl2  460   4.771   4.214   4.697
   59TCM     h1  461   4.545   4.291   4.678
   59TCM    cl3  462   4.677   4.489   4.655
   60TCM     c1  463   3.888   3.924   1.621
   60TCM    cl1  464   3.767   3.886   1.495
   60TCM    cl2  465   3.885   3.796   1.747
   60TCM     h1  466   3.988   3.929   1.576
   60TCM    cl3  467   3.849   4.082   1.696
   61TCM     c1  468   3.635   3.738   3.222
   61TCM    cl1  469   3.584   3.637   3.361
   61TCM    cl2  470   3.760   3.854   3.276
   61TCM     h1  471   3.676   3.675   3.143
   61TCM    cl3  472   3.492   3.828   3.159
   62TCM     c1  473   0.372   0.795   3.138
   62TCM    cl1  474   0.319   0.918   3.019
   62TCM    cl2  475   0.274   0.808   3.287
   62TCM     h1  476   0.360   0.695   3.095
   62TCM    cl3  477   0.545   0.823   3.179
   63TCM     c1  478   3.109   2.457   2.797
   63TCM    cl1  479   3.133   2.420   2.971
   63TCM    cl2  480   3.048   2.625   2.781
   63TCM     h1  481   3.204   2.448   2.744
   63TCM    cl3  482   2.990   2.343   2.727
   64TCM     c1  483   3.790   2.076   2.354
   64TCM    cl1  484   3.695   1.983   2.234
   64TCM    cl2  485   3.701   2.081   2.510
   64TCM     h1  486   3.888   2.029   2.369
   64TCM    cl3  487   3.812   2.244   2.293
   65TCM     c1  488   0.028   0.426   2.274
   65TCM    cl1  489   0.025   0.380   2.448
   65TCM    cl2  490   0.198   0.441   2.218
   65TCM     h1  491  -0.022   0.349   2.216
   65TCM    cl3  492  -0.055   0.583   2.251
   66TCM     c1  493   0.231   0.160   2.905
   66TCM    cl1  494   0.251  -0.018   2.888
   66TCM    cl2  495   0.152   0.224   2.757
   66TCM     h1  496   0.167   0.181   2.991
   66TCM    cl3  497   0.391   0.237   2.927
   67TCM     c1  498   0.297   3.493   1.115
   67TCM    cl1  499   0.356   3.644   1.039
   67TCM    cl2  500   0.223   3.531   1.274
   67TCM     h1  501   0.222   3.446   1.050
   67TCM    cl3  502   0.435   3.381   1.140
   68TCM     c1  503   1.299   3.050   0.347
   68TCM    cl1  504   1.189   3.192   0.348
   68TCM    cl2  505   1.235   2.928   0.232
   68TCM     h1  506   1.399   3.081   0.316
   68TCM    cl3  507   1.306   2.979   0.512
   69TCM     c1  508   2.745   4.355   3.945
   69TCM    cl1  509   2.600   4.461   3.945
   69TCM    cl2  510   2.872   4.428   3.842
   69TCM     h1  511   2.782   4.344   4.047
   69TCM    cl3  512   2.701   4.194   3.880
   70TCM     c1  513   4.642   1.425   0.485
   70TCM    cl1  514   4.496   1.322   0.503
   70TCM    cl2  515   4.618   1.576   0.578
   70TCM     h1  516   4.729   1.372   0.524
   70TCM    cl3  517   4.666   1.465   0.312
   71TCM     c1  518   2.874   4.554   4.415
   71TCM    cl1  519   2.971   4.407   4.447
   71TCM    cl2  520   2.801   4.540   4.252
   71TCM     h1  521   2.796   4.564   4.491
   71TCM    cl3  522   2.981   4.698   4.419
   72TCM     c1  523   3.725   3.943   2.047
   72TCM    cl1  524   3.700   4.120   2.037
   72TCM    cl2  525   3.611   3.873   2.168
   72TCM     h1  526   3.708   3.897   1.950
   72TCM    cl3  527   3.894   3.910   2.099
   73TCM     c1  528   0.941   0.207   3.320
   73TCM    cl1  529   0.863   0.062   3.390
   73TCM    cl2  530   0.837   0.272   3.189
   73TCM     h1  531   0.954   0.283   3.398
   73TCM    cl3  532   1.101   0.163   3.252
   74TCM     c1  533   0.798   1.241   2.531
   74TCM    cl1  534   0.894   1.392   2.510
   74TCM    cl2  535   0.673   1.267   2.656
   74TCM     h1  536   0.750   1.216   2.436
   74TCM    cl3  537   0.907   1.109   2.582
   75TCM     c1  538   1.048   0.551   2.135
   75TCM    cl1  539   0.887   0.502   2.195
   75TCM    cl2  540   1.038   0.585   1.959
   75TCM     h1  541   1.082   0.640   2.188
   75TCM    cl3  542   1.164   0.416   2.163
   76TCM     c1  543   2.951   0.885   3.788
   76TCM    cl1  544   2.867   1.016   3.878
   76TCM    cl2  545   2.898   0.889   3.617
   76TCM     h1  546   3.059   0.899   3.794
   76TCM    cl3  547   2.907   0.726   3.860
   77TCM     c1  548   4.609   4.745   0.954
   77TCM    cl1  549   4.581   4.920   0.929
   77TCM    cl2  550   4.722   4.720   1.091
   77TCM     h1  551   4.514   4.696   0.976
   77TCM    cl3  552   4.680   4.674   0.805
   78TCM     c1  553   0.605   4.379   0.218
   78TCM    cl1  554   0.497   4.522   0.221
   78TCM    cl2  555   0.554   4.267   0.088
   78TCM     h1  556   0.708   4.412   0.200
   78TCM    cl3  557   0.595   4.295   0.376
   79TCM     c1  558   2.403   3.046   1.974
   79TCM    cl1  559   2.444   3.205   1.901
   79TCM    cl2  560   2.530   3.000   2.093
   79TCM     h1  561   2.306   3.054   2.025
   79TCM    cl3  562   2.394   2.921   1.846
   80TCM     c1  563   0.681   2.879   0.922
   80TCM    cl1  564   0.764   2.721   0.940
   80TCM    cl2  565   0.757   2.971   0.788
   80TCM     h1  566   0.575   2.863   0.899
   80TCM    cl3  567   0.696   2.974   1.073
   81TCM     c1  568   3.336   3.479   0.968
   81TCM    cl1  569   3.205   3.437   1.084
   81TCM    cl2  570   3.338   3.656   0.942
   81TCM     h1  571   3.432   3.446   1.008
   81TCM    cl3  572   3.305   3.397   0.811
   82TCM     c1  573   3.060   2.990   4.800
   82TCM    cl1  574   3.063   2.864   4.928
   82TCM    cl2  575   3.002   3.145   4.871
   82TCM     h1  576   3.160   3.004   4.759
   82TCM    cl3  577   2.948   2.938   4.669
   83TCM     c1  578   1.087   1.127   1.866
   83TCM    cl1  579   1.263   1.143   1.838
   83TCM    cl2  580   1.052   0.968   1.941
   83TCM     h1  581   1.053   1.207   1.933
   83TCM    cl3  582   1.000   1.139   1.710
   84TCM     c1  583   1.913   2.400   4.646
   84TCM    cl1  584   1.858   2.556   4.577
   84TCM    cl2  585   2.037   2.328   4.537
   84TCM     h1  586   1.956   2.416   4.745
   84TCM    cl3  587   1.773   2.288   4.658
   85TCM     c1  588   2.246   3.891   3.879
   85TCM    cl1  589   2.092   3.823   3.817
   85TCM    cl2  590   2.385   3.801   3.810
   85TCM     h1  591   2.253   3.997   3.851
   85TCM    cl3  592   2.249   3.876   4.058
   86TCM     c1  593   0.790   0.114   4.848
   86TCM    cl1  594   0.951   0.112   4.770
   86TCM    cl2  595   0.805   0.183   5.012
   86TCM     h1  596   0.721   0.175   4.789
   86TCM    cl3  597   0.727  -0.054   4.859
   87TCM     c1  598   1.188   0.452   3.005
   87TCM    cl1  599   1.252   0.588   2.908
   87TCM    cl2  600   1.055   0.374   2.915
   87TCM     h1  601   1.268   0.380   3.023
   87TCM    cl3  602   1.127   0.516   3.161
   88TCM     c1  603   4.641   2.895   3.043
   88TCM    cl1  604   4.487   2.912   2.952
   88TCM    cl2  605   4.778   2.947   2.940
   88TCM     h1  606   4.637   2.957   3.133
   88TCM    cl3  607   4.663   2.723   3.090
   89TCM     c1  608   3.169   4.463   0.382
   89TCM    cl1  609   3.064   4.609   0.386
   89TCM    cl2  610   3.336   4.511   0.338
   89TCM     h1  611   3.169   4.416   0.481
   89TCM    cl3  612   3.104   4.348   0.261
   90TCM     c1  613   1.865   0.019   3.463
   90TCM    cl1  614   1.750   0.040   3.327
   90TCM    cl2  615   1.776   0.031   3.618
   90TCM     h1  616   1.912  -0.079   3.456
   90TCM    cl3  617   1.992   0.146   3.455
   91TCM     c1  618   0.831   0.665   3.855
   91TCM    cl1  619   0.936   0.567   3.963
   91TCM    cl2  620   0.662   0.607   3.871
   91TCM     h1  621   0.836   0.771   3.884
   91TCM    cl3  622   0.885   0.645   3.685
   92TCM     c1  623   2.175   0.122   2.451
   92TCM    cl1  624   2.102   0.282   2.487
   92TCM    cl2  625   2.218   0.115   2.277
   92TCM     h1  626   2.265   0.109   2.512
   92TCM    cl3  627   2.058  -0.008   2.490
   93TCM     c1  628   1.112   1.209   2.281
   93TCM    cl1  629   1.182   1.050   2.328
   93TCM    cl2  630   0.948   1.184   2.213
   93TCM     h1  631   1.107   1.274   2.369
   93TCM    cl3  632   1.216   1.284   2.156
   94TCM     c1  633   1.336   1.478   0.096
   94TCM    cl1  634   1.409   1.636   0.138
   94TCM    cl2  635   1.406   1.351   0.202
   94TCM     h1  636   1.228   1.482   0.110
   94TCM    cl3  637   1.371   1.439  -0.076
   95TCM     c1  638   4.384   2.829   2.255
   95TCM    cl1  639   4.525   2.915   2.326
   95TCM    cl2  640   4.276   2.771   2.386
   95TCM     h1  641   4.329   2.897   2.190
   95TCM    cl3  642   4.444   2.689   2.161
   96TCM     c1  643   3.027   4.805   1.433
   96TCM    cl1  644   2.890   4.894   1.360
   96TCM    cl2  645   3.071   4.668   1.325
   96TCM     h1  646   3.112   4.871   1.446
   96TCM    cl3  647   2.977   4.740   1.593
   97TCM     c1  648   4.396   2.246   2.817
   97TCM    cl1  649   4.554   2.287   2.892
   97TCM    cl2  650   4.306   2.136   2.927
   97TCM     h1  651   4.338   2.337   2.801
   97TCM    cl3  652   4.421   2.164   2.660
   98TCM     c1  653   4.205   0.485   3.608
   98TCM    cl1  654   4.281   0.383   3.735
   98TCM    cl2  655   4.281   0.449   3.450
   98TCM     h1  656   4.098   0.464   3.603
   98TCM    cl3  657   4.230   0.658   3.648
   99TCM     c1  658   4.187   0.839   3.114
   99TCM    cl1  659   4.036   0.931   3.081
   99TCM    cl2  660   4.158   0.720   3.244
   99TCM     h1  661   4.219   0.787   3.023
   99TCM    cl3  662   4.316   0.954   3.164
  100TCM     c1  663   2.090   0.222   2.947
  100TCM    cl1  664   1.969   0.327   2.865
  100TCM    cl2  665   2.163   0.109   2.828
  100TCM     h1  666   2.169   0.285   2.989
  100TCM    cl3  667   2.011   0.128   3.077
  101TCM     c1  668   0.198   4.329   3.426
  101TCM    cl1  669   0.275   4.407   3.568
  101TCM    cl2  670   0.240   4.155   3.425
  101TCM     h1  671   0.090   4.341   3.431
  101TCM    cl3  672   0.259   4.405   3.275
  102TCM     c1  673   0.282   1.685   4.762
  102TCM    cl1  674   0.309   1.624   4.928
  102TCM    cl2  675   0.228   1.549   4.658
  102TCM     h1  676   0.205   1.763   4.764
  102TCM    cl3  677   0.435   1.753   4.697
  103TCM     c1  678   1.101   4.879   0.099
  103TCM    cl1  679   1.141   5.054   0.095
  103TCM    cl2  680   1.131   4.807  -0.063
  103TCM     h1  681   1.164   4.829   0.173
  103TCM    cl3  682   0.929   4.857   0.142
  104TCM     c1  683   0.762   2.250   1.059
  104TCM    cl1  684   0.676   2.195   1.207
  104TCM    cl2  685   0.876   2.122   1.008
  104TCM     h1  686   0.690   2.271   0.980
  104TCM    cl3  687   0.855   2.399   1.096
  105TCM     c1  688   4.889   1.456   2.381
  105TCM    cl1  689   5.013   1.575   2.435
  105TCM    cl2  690   4.912   1.303   2.471
  105TCM     h1  691   4.789   1.496   2.401
  105TCM    cl3  692   4.907   1.426   2.205
  106TCM     c1  693   3.048   1.007   2.492
  106TCM    cl1  694   2.882   1.060   2.447
  106TCM    cl2  695   3.166   1.133   2.443
  106TCM     h1  696   3.053   0.993   2.600
  106TCM    cl3  697   3.087   0.853   2.409
  107TCM     c1  698   3.131   0.333   2.618
  107TCM    cl1  699   3.057   0.320   2.781
  107TCM    cl2  700   3.152   0.506   2.576
  107TCM     h1  701   3.228   0.282   2.617
  107TCM    cl3  702   3.022   0.257   2.497
  108TCM     c1  703   2.396   4.419   0.895
  108TCM    cl1  704   2.434   4.547   1.015
  108TCM    cl2  705   2.359   4.495   0.736
  108TCM     h1  706   2.482   4.352   0.885
  108TCM    cl3  707   2.253   4.326   0.950
  109TCM     c1  708   0.213   3.002   3.935
  109TCM    cl1  709   0.293   3.120   4.044
  109TCM    cl2  710   0.304   2.991   3.781
  109TCM     h1  711   0.211   2.904   3.982
  109TCM    cl3  712   0.045   3.056   3.901
  110TCM     c1  713   2.426   4.788   1.713
  110TCM    cl1  714   2.333   4.864   1.846
  110TCM    cl2  715   2.368   4.620   1.689
  110TCM     h1  716   2.411   4.845   1.621
  110TCM    cl3  717   2.600   4.785   1.756
  111TCM     c1  718   2.548   4.691   3.468
  111TCM    cl1  719   2.373   4.724   3.484
  111TCM    cl2  720   2.612   4.629   3.624
  111TCM     h1  721   2.565   4.617   3.389
  111TCM    cl3  722   2.634   4.843   3.427
  112TCM     c1  723   3.412   3.376   4.644
  112TCM    cl1  724   3.393   3.474   4.495
  112TCM    cl2  725   3.573   3.298   4.643
  112TCM     h1  726   3.402   3.440   4.732
  112TCM    cl3  727   3.286   3.248   4.648
  113TCM     c1  728   1.815   4.774   4.517
  113TCM    cl1  729   1.673   4.666   4.536
  113TCM    cl2  730   1.884   4.755   4.353
  113TCM     h1  731   1.784   4.878   4.533
  113TCM    cl3  732   1.940   4.729   4.638
  114TCM     c1  733   3.438   3.673   1.831
  114TCM    cl1  734   3.293   3.719   1.927
  114TCM    cl2  735   3.558   3.593   1.938
  114TCM     h1  736   3.409   3.605   1.751
  114TCM    cl3  737   3.512   3.821   1.761
  115TCM     c1  738   0.139   2.435   2.049
  115TCM    cl1  739   0.231   2.589   2.039
  115TCM    cl2  740   0.164   2.340   1.899
  115TCM     h1  741   0.174   2.377   2.136
  115TCM    cl3  742  -0.036   2.471   2.067
  116TCM     c1  743   1.989   0.667   3.370
  116TCM    cl1  744   2.063   0.765   3.240
  116TCM    cl2  745   2.043   0.496   3.353
  116TCM     h1  746   2.021   0.706   3.467
  116TCM    cl3  747   1.810   0.674   3.358
  117TCM     c1  748   1.643   4.533   3.536
  117TCM    cl1  749   1.466   4.505   3.542
  117TCM    cl2  750   1.675   4.705   3.497
  117TCM     h1  751   1.687   4.509   3.634
  117TCM    cl3  752   1.716   4.429   3.410
  118TCM     c1  753   1.201   3.057   2.913
  118TCM    cl1  754   1.269   3.028   3.076
  118TCM    cl2  755   1.309   2.983   2.791
  118TCM     h1  756   1.101   3.013   2.906
  118TCM    cl3  757   1.192   3.234   2.882
  119TCM     c1  758   4.956   2.076   2.307
  119TCM    cl1  759   4.895   2.224   2.389
  119TCM    cl2  760   4.996   1.952   2.430
  119TCM     h1  761   4.880   2.037   2.239
  119TCM    cl3  762   5.105   2.116   2.214
  120TCM     c1  763   2.427   1.250   2.005
  120TCM    cl1  764   2.475   1.213   2.174
  120TCM    cl2  765   2.320   1.394   2.005
  120TCM     h1  766   2.516   1.271   1.945
  120TCM    cl3  767   2.338   1.110   1.936
  121TCM     c1  768   1.386   4.988   3.515
  121TCM    cl1  769   1.213   4.980   3.563
  121TCM    cl2  770   1.442   5.158   3.526
  121TCM     h1  771   1.446   4.925   3.582
  121TCM    cl3  772   1.402   4.931   3.346
  122TCM     c1  773   4.304   3.583   2.509
  122TCM    cl1  774   4.458   3.561   2.599
  122TCM    cl2  775   4.207   3.432   2.521
  122TCM     h1  776   4.248   3.666   2.551
  122TCM    cl3  777   4.343   3.617   2.337
  123TCM     c1  778   4.171   1.026   3.870
  123TCM    cl1  779   4.318   0.977   3.778
  123TCM    cl2  780   4.210   1.029   4.045
  123TCM     h1  781   4.140   1.125   3.838
  123TCM    cl3  782   4.039   0.908   3.840
  124TCM     c1  783   3.747   1.646   2.504
  124TCM    cl1  784   3.658   1.713   2.644
  124TCM    cl2  785   3.880   1.758   2.459
  124TCM     h1  786   3.787   1.548   2.529
  124TCM    cl3  787   3.633   1.632   2.365
  125TCM     c1  788   4.874   3.981   3.228
  125TCM    cl1  789   4.955   3.901   3.367
  125TCM    cl2  790   4.885   3.874   3.084
  125TCM     h1  791   4.769   3.999   3.252
  125TCM    cl3  792   4.954   4.137   3.193
  126TCM     c1  793   0.487   1.695   0.288
  126TCM    cl1  794   0.537   1.702   0.460
  126TCM    cl2  795   0.322   1.764   0.274
  126TCM     h1  796   0.556   1.753   0.226
  126TCM    cl3  797   0.485   1.525   0.232
  127TCM     c1  798   3.470   1.489   3.435
  127TCM    cl1  799   3.321   1.496   3.536
  127TCM    cl2  800   3.426   1.447   3.267
  127TCM     h1  801   3.520   1.586   3.437
  127TCM    cl3  802   3.579   1.362   3.500
  128TCM     c1  803   1.578   2.228   2.641
  128TCM    cl1  804   1.429   2.287   2.559
  128TCM    cl2  805   1.536   2.090   2.747
  128TCM     h1  806   1.651   2.197   2.566
  128TCM    cl3  807   1.647   2.360   2.741
  129TCM     c1  808   0.439   2.659   4.998
  129TCM    cl1  809   0.554   2.769   5.081
  129TCM    cl2  810   0.387   2.531   5.112
  129TCM     h1  811   0.352   2.716   4.965
  129TCM    cl3  812   0.520   2.585   4.856
  130TCM     c1  813   0.847   4.594   4.855
  130TCM    cl1  814   0.885   4.518   5.013
  130TCM    cl2  815   0.673   4.571   4.818
  130TCM     h1  816   0.870   4.701   4.859
  130TCM    cl3  817   0.946   4.516   4.727
  131TCM     c1  818   4.929   4.570   0.110
  131TCM    cl1  819   4.934   4.526  -0.063
  131TCM    cl2  820   5.095   4.596   0.171
  131TCM     h1  821   4.871   4.662   0.123
  131TCM    cl3  822   4.851   4.437   0.203
  132TCM     c1  823   0.707   1.324   0.610
  132TCM    cl1  824   0.838   1.222   0.679
  132TCM    cl2  825   0.744   1.360   0.439
  132TCM     h1  826   0.613   1.269   0.616
  132TCM    cl3  827   0.695   1.477   0.703
  133TCM     c1  828   2.352   0.174   3.330
  133TCM    cl1  829   2.317   0.302   3.210
  133TCM    cl2  830   2.523   0.188   3.381
  133TCM     h1  831   2.286   0.185   3.416
  133TCM    cl3  832   2.325   0.013   3.254
  134TCM     c1  833   0.535   1.216   3.094
  134TCM    cl1  834   0.427   1.266   3.229
  134TCM    cl2  835   0.702   1.195   3.156
  134TCM     h1  836   0.499   1.122   3.051
  134TCM    cl3  837   0.534   1.343   2.968
  135TCM     c1  838   0.139   4.207   4.993
  135TCM    cl1  839   0.245   4.098   4.899
  135TCM    cl2  840   0.196   4.215   5.163
  135TCM     h1  841   0.140   4.307   4.949
  135TCM    cl3  842  -0.029   4.143   4.991
  136TCM     c1  843   4.187   1.154   2.128
  136TCM    cl1  844   4.251   1.317   2.091
  136TCM    cl2  845   4.017   1.168   2.183
  136TCM     h1  846   4.192   1.091   2.039
  136TCM    cl3  847   4.285   1.081   2.260
  137TCM     c1  848   1.424   0.485   1.900
  137TCM    cl1  849   1.473   0.330   1.976
  137TCM    cl2  850   1.351   0.452   1.739
  137TCM     h1  851   1.351   0.536   1.963
  137TCM    cl3  852   1.569   0.589   1.880
  138TCM     c1  853   2.162   1.736   3.130
  138TCM    cl1  854   2.040   1.783   3.008
  138TCM    cl2  855   2.161   1.854   3.265
  138TCM     h1  856   2.140   1.636   3.168
  138TCM    cl3  857   2.325   1.736   3.053
  139TCM     c1  858   2.633   3.407   3.652
  139TCM    cl1  859   2.677   3.566   3.723
  139TCM    cl2  860   2.514   3.325   3.757
  139TCM     h1  861   2.590   3.422   3.553
  139TCM    cl3  862   2.780   3.305   3.638
  140TCM     c1  863   0.636   1.392   3.644
  140TCM    cl1  864   0.693   1.356   3.477
  140TCM    cl2  865   0.459   1.419   3.643
  140TCM     h1  866   0.660   1.307   3.709
  140TCM    cl3  867   0.719   1.539   3.703
  141TCM     c1  868   0.818   4.048   1.542
  141TCM    cl1  869   0.836   4.227   1.548
  141TCM    cl2  870   0.773   3.988   1.705
  141TCM     h1  871   0.740   4.021   1.469
  141TCM    cl3  872   0.974   3.975   1.493
  142TCM     c1  873   3.646   4.095   2.501
  142TCM    cl1  874   3.795   4.104   2.402
  142TCM    cl2  875   3.611   3.924   2.542
  142TCM     h1  876   3.660   4.153   2.593
  142TCM    cl3  877   3.509   4.165   2.408
  143TCM     c1  878   0.465   2.509   3.369
  143TCM    cl1  879   0.508   2.601   3.221
  143TCM    cl2  880   0.583   2.376   3.394
  143TCM     h1  881   0.468   2.577   3.456
  143TCM    cl3  882   0.300   2.441   3.351
  144TCM     c1  883   1.893   3.702   1.391
  144TCM    cl1  884   1.964   3.815   1.270
  144TCM    cl2  885   1.889   3.537   1.321
  144TCM     h1  886   1.954   3.702   1.481
  144TCM    cl3  887   1.726   3.754   1.430
  145TCM     c1  888   1.428   1.434   2.522
  145TCM    cl1  889   1.251   1.448   2.551
  145TCM    cl2  890   1.459   1.299   2.409
  145TCM     h1  891   1.465   1.527   2.479
  145TCM    cl3  892   1.513   1.401   2.677
  146TCM     c1  893   3.996   4.905   3.761
  146TCM    cl1  894   4.016   4.831   3.599
  146TCM    cl2  895   4.152   4.976   3.814
  146TCM     h1  896   3.920   4.984   3.756
  146TCM    cl3  897   3.944   4.780   3.879
  147TCM     c1  898   0.123   4.458   4.511
  147TCM    cl1  899   0.286   4.532   4.509
  147TCM    cl2  900  -0.001   4.587   4.504
  147TCM     h1  901   0.111   4.392   4.425
  147TCM    cl3  902   0.102   4.363   4.662
  148TCM     c1  903   1.146   1.463   0.907
  148TCM    cl1  904   1.015   1.445   1.029
  148TCM    cl2  905   1.073   1.489   0.746
  148TCM     h1  906   1.209   1.549   0.934
  148TCM    cl3  907   1.246   1.314   0.903
  149TCM     c1  908   2.736   2.752   0.067
  149TCM    cl1  909   2.689   2.843  -0.080
  149TCM    cl2  910   2.654   2.593   0.067
  149TCM     h1  911   2.845   2.737   0.068
  149TCM    cl3  912   2.686   2.845   0.212
  150TCM     c1  913   3.634   1.164   3.157
  150TCM    cl1  914   3.524   1.213   3.024
  150TCM    cl2  915   3.790   1.251   3.141
  150TCM     h1  916   3.589   1.188   3.253
  150TCM    cl3  917   3.664   0.988   3.146
  151TCM     c1  918   3.414   0.194   1.942
  151TCM    cl1  919   3.554   0.296   1.991
  151TCM    cl2  920   3.468   0.072   1.821
  151TCM     h1  921   3.374   0.143   2.030
  151TCM    cl3  922   3.287   0.298   1.870
  152TCM     c1  923   3.781   2.472   1.472
  152TCM    cl1  924   3.872   2.544   1.610
  152TCM    cl2  925   3.840   2.304   1.444
  152TCM     h1  926   3.675   2.470   1.496
  152TCM    cl3  927   3.807   2.569   1.324
  153TCM     c1  928   2.979   4.113   2.576
  153TCM    cl1  929   2.924   4.150   2.743
  153TCM    cl2  930   3.140   4.034   2.582
  153TCM     h1  931   2.907   4.046   2.528
  153TCM    cl3  932   2.991   4.265   2.481
  154TCM     c1  933   4.386   0.928   2.709
  154TCM    cl1  934   4.226   0.864   2.759
  154TCM    cl2  935   4.422   0.872   2.542
  154TCM     h1  936   4.385   1.037   2.711
  154TCM    cl3  937   4.513   0.867   2.821
  155TCM     c1  938   1.234   1.884   4.813
  155TCM    cl1  939   1.125   2.026   4.812
  155TCM    cl2  940   1.151   1.744   4.888
  155TCM     h1  941   1.263   1.859   4.711
  155TCM    cl3  942   1.381   1.922   4.909
  156TCM     c1  943   2.359   4.422   4.487
  156TCM    cl1  944   2.534   4.461   4.486
  156TCM    cl2  945   2.322   4.319   4.345
  156TCM     h1  946   2.333   4.368   4.579
  156TCM    cl3  947   2.264   4.574   4.477
  157TCM     c1  948   2.219   4.880   0.146
  157TCM    cl1  949   2.202   5.056   0.121
  157TCM    cl2  950   2.374   4.825   0.074
  157TCM     h1  951   2.218   4.857   0.253
  157TCM    cl3  952   2.083   4.795   0.065
  158TCM     c1  953   2.113   0.964   2.857
  158TCM    cl1  954   2.034   1.041   2.999
  158TCM    cl2  955   2.187   0.808   2.905
  158TCM     h1  956   2.038   0.946   2.779
  158TCM    cl3  957   2.240   1.074   2.794
  159TCM     c1  958   1.898   2.205   0.094
  159TCM    cl1  959   1.886   2.350   0.199
  159TCM    cl2  960   2.009   2.241  -0.043
  159TCM     h1  961   1.937   2.121   0.151
  159TCM    cl3  962   1.735   2.164   0.030
  160TCM     c1  963   1.987   1.437   1.715
  160TCM    cl1  964   1.980   1.476   1.890
  160TCM    cl2  965   2.132   1.336   1.684
  160TCM     h1  966   1.897   1.382   1.687
  160TCM    cl3  967   1.998   1.588   1.620
  161TCM     c1  968   2.690   2.495   0.615
  161TCM    cl1  969   2.817   2.370   0.634
  161TCM    cl2  970   2.718   2.585   0.462
  161TCM     h1  971   2.592   2.448   0.611
  161TCM    cl3  972   2.697   2.609   0.753
  162TCM     c1  973   2.880   1.914   2.219
  162TCM    cl1  974   2.741   1.833   2.298
  162TCM    cl2  975   2.846   1.936   2.045
  162TCM     h1  976   2.898   2.011   2.266
  162TCM    cl3  977   3.026   1.811   2.238
  163TCM     c1  978   4.645   4.380   2.461
  163TCM    cl1  979   4.619   4.284   2.611
  163TCM    cl2  980   4.762   4.295   2.355
  163TCM     h1  981   4.550   4.391   2.409
  163TCM    cl3  982   4.710   4.542   2.504
  164TCM     c1  983   3.234   4.875   4.621
  164TCM    cl1  984   3.270   5.050   4.599
  164TCM    cl2  985   3.089   4.858   4.726
  164TCM     h1  986   3.216   4.829   4.524
  164TCM    cl3  987   3.373   4.794   4.701
  165TCM     c1  988   3.548   3.929   3.796
  165TCM    cl1  989   3.673   3.867   3.910
  165TCM    cl2  990   3.391   3.851   3.830
  165TCM     h1  991   3.539   4.037   3.807
  165TCM    cl3  992   3.599   3.891   3.627
  166TCM     c1  993   1.923   1.090   2.478
  166TCM    cl1  994   1.938   0.914   2.511
  166TCM    cl2  995   1.922   1.180   2.633
  166TCM     h1  996   2.007   1.122   2.417
  166TCM    cl3  997   1.770   1.121   2.390
  167TCM     c1  998   2.705   0.083   4.917
  167TCM    cl1  999   2.730  -0.095   4.922
  167TCM    cl2 1000   2.846   0.164   4.992
  167TCM     h1 1001   2.694   0.116   4.813
  167TCM    cl3 1002   2.557   0.125   5.008
  168TCM     c1 1003   2.385   2.589   2.187
  168TCM    cl1 1004   2.273   2.728   2.187
  168TCM    cl2 1005   2.513   2.615   2.064
  168TCM     h1 1006   2.431   2.579   2.286
  168TCM    cl3 1007   2.295   2.438   2.150
  169TCM     c1 1008   1.035   4.659   1.418
  169TCM    cl1 1009   0.956   4.809   1.476
  169TCM    cl2 1010   1.184   4.701   1.326
  169TCM     h1 1011   1.062   4.597   1.504
  169TCM    cl3 1012   0.923   4.568   1.312
  170TCM     c1 1013   4.096   2.184   4.453
  170TCM    cl1 1014   3.991   2.283   4.559
  170TCM    cl2 1015   4.023   2.022   4.430
  170TCM     h1 1016   4.106   2.233   4.355
  170TCM    cl3 1017   4.259   2.168   4.528
  171TCM     c1 1018   1.841   4.560   4.935
  171TCM    cl1 1019   1.748   4.446   4.833
  171TCM    cl2 1020   1.863   4.490   5.099
  171TCM     h1 1021   1.938   4.579   4.890
  171TCM    cl3 1022   1.749   4.714   4.948
  172TCM     c1 1023   3.241   3.484   0.353
  172TCM    cl1 1024   3.119   3.394   0.258
  172TCM    cl2 1025   3.365   3.368   0.413
  172TCM     h1 1026   3.289   3.558   0.290
  172TCM    cl3 1027   3.163   3.566   0.492
  173TCM     c1 1028   4.745   0.957   0.588
  173TCM    cl1 1029   4.785   1.120   0.653
  173TCM    cl2 1030   4.842   0.928   0.440
  173TCM     h1 1031   4.769   0.881   0.663
  173TCM    cl3 1032   4.570   0.950   0.548
  174TCM     c1 1033   4.012   1.659   2.116
  174TCM    cl1 1034   4.049   1.601   1.950
  174TCM    cl2 1035   4.158   1.734   2.187
  174TCM     h1 1036   3.931   1.731   2.113
  174TCM    cl3 1037   3.964   1.518   2.216
  175TCM     c1 1038   3.870   1.526   0.051
  175TCM    cl1 1039   3.797   1.473  -0.104
  175TCM    cl2 1040   3.763   1.479   0.187
  175TCM     h1 1041   3.968   1.479   0.064
  175TCM    cl3 1042   3.889   1.704   0.049
  176TCM     c1 1043   3.765   3.050   4.830
  176TCM    cl1 1044   3.758   3.189   4.944
  176TCM    cl2 1045   3.760   2.897   4.924
  176TCM     h1 1046   3.680   3.054   4.762
  176TCM    cl3 1047   3.918   3.058   4.737
  177TCM     c1 1048   1.302   0.471   3.619
  177TCM    cl1 1049   1.235   0.574   3.750
  177TCM    cl2 1050   1.423   0.565   3.526
  177TCM     h1 1051   1.349   0.382   3.663
  177TCM    cl3 1052   1.169   0.421   3.510
  178TCM     c1 1053   3.503   4.936   1.277
  178TCM    cl1 1054   3.397   4.869   1.406
  178TCM    cl2 1055   3.402   5.026   1.159
  178TCM     h1 1056   3.577   5.003   1.321
  178TCM    cl3 1057   3.586   4.801   1.192
  179TCM     c1 1058   1.123   0.249   4.002
  179TCM    cl1 1059   1.192   0.214   3.840
  179TCM    cl2 1060   1.233   0.359   4.091
  179TCM     h1 1061   1.025   0.297   3.990
  179TCM    cl3 1062   1.104   0.095   4.093
  180TCM     c1 1063   3.263   0.104   3.240
  180TCM    cl1 1064   3.290   0.247   3.136
  180TCM    cl2 1065   3.170   0.151   3.385
  180TCM     h1 1066   3.208   0.028   3.183
  180TCM    cl3 1067   3.422   0.037   3.290
  181TCM     c1 1068   2.134   0.661   4.183
  181TCM    cl1 1069   2.230   0.778   4.086
  181TCM    cl2 1070   1.992   0.744   4.254
  181TCM     h1 1071   2.100   0.579   4.119
  181TCM    cl3 1072   2.237   0.595   4.315
  182TCM     c1 1073   3.180   0.288   0.069
  182TCM    cl1 1074   3.298   0.422   0.070
  182TCM    cl2 1075   3.167   0.218   0.234
  182TCM     h1 1076   3.083   0.325   0.038
  182TCM    cl3 1077   3.236   0.161  -0.044
  183TCM     c1 1078   1.827   1.837   2.544
  183TCM    cl1 1079   1.856   1.903   2.708
  183TCM    cl2 1080   1.985   1.804   2.465
  183TCM     h1 1081   1.770   1.744   2.552
  183TCM    cl3 1082   1.735   1.956   2.447
  184TCM     c1 1083   4.931   3.785   4.565
  184TCM    cl1 1084   5.005   3.772   4.402
  184TCM    cl2 1085   4.770   3.862   4.551
  184TCM     h1 1086   4.920   3.685   4.609
  184TCM    cl3 1087   5.036   3.885   4.672
  185TCM     c1 1088   0.807   0.852   2.814
  185TCM    cl1 1089   0.686   0.967   2.878
  185TCM    cl2 1090   0.746   0.788   2.657
  185TCM     h1 1091   0.902   0.903   2.798
  185TCM    cl3 1092   0.829   0.716   2.929
  186TCM     c1 1093   4.644   0.727   3.509
  186TCM    cl1 1094   4.598   0.647   3.663
  186TCM    cl2 1095   4.499   0.744   3.405
  186TCM     h1 1096   4.686   0.826   3.530
  186TCM    cl3 1097   4.766   0.626   3.424
  187TCM     c1 1098   0.026   4.533   0.542
  187TCM    cl1 1099  -0.009   4.492   0.713
  187TCM    cl2 1100   0.192   4.601   0.530
  187TCM     h1 1101   0.018   4.443   0.480
  187TCM    cl3 1102  -0.092   4.655   0.486
  188TCM     c1 1103   0.509   3.303   0.204
  188TCM    cl1 1104   0.540   3.256   0.374
  188TCM    cl2 1105   0.333   3.329   0.180
  188TCM     h1 1106   0.563   3.396   0.181
  188TCM    cl3 1107   0.566   3.173   0.095
  189TCM     c1 1108   1.362   2.311   4.737
  189TCM    cl1 1109   1.411   2.283   4.907
  189TCM    cl2 1110   1.414   2.172   4.635
  189TCM     h1 1111   1.253   2.321   4.731
  189TCM    cl3 1112   1.439   2.461   4.676
  190TCM     c1 1113   0.811   2.995   0.379
  190TCM    cl1 1114   0.947   2.953   0.487
  190TCM    cl2 1115   0.679   2.875   0.400
  190TCM     h1 1116   0.773   3.095   0.405
  190TCM    cl3 1117   0.866   2.993   0.209
  191TCM     c1 1118   4.192   1.370   2.479
  191TCM    cl1 1119   4.316   1.483   2.414
  191TCM    cl2 1120   4.067   1.463   2.567
  191TCM     h1 1121   4.146   1.315   2.396
  191TCM    cl3 1122   4.271   1.255   2.591
  192TCM     c1 1123   2.192   0.190   4.147
  192TCM    cl1 1124   2.176   0.105   3.990
  192TCM    cl2 1125   2.049   0.295   4.173
  192TCM     h1 1126   2.200   0.117   4.228
  192TCM    cl3 1127   2.340   0.292   4.144
  193TCM     c1 1128   0.487   4.956   2.520
  193TCM    cl1 1129   0.530   4.784   2.546
  193TCM    cl2 1130   0.556   5.054   2.654
  193TCM     h1 1131   0.528   4.990   2.425
  193TCM    cl3 1132   0.308   4.974   2.518
  194TCM     c1 1133   1.894   4.372   4.494
  194TCM    cl1 1134   1.966   4.373   4.329
  194TCM    cl2 1135   2.023   4.344   4.615
  194TCM     h1 1136   1.847   4.468   4.513
  194TCM    cl3 1137   1.772   4.241   4.506
  195TCM     c1 1138   4.194   4.217   1.296
  195TCM    cl1 1139   4.189   4.228   1.117
  195TCM    cl2 1140   4.343   4.128   1.344
  195TCM     h1 1141   4.196   4.318   1.339
  195TCM    cl3 1142   4.049   4.130   1.355
  196TCM     c1 1143   1.112   2.548   0.398
  196TCM    cl1 1144   1.277   2.535   0.329
  196TCM    cl2 1145   1.039   2.385   0.409
  196TCM     h1 1146   1.117   2.594   0.497
  196TCM    cl3 1147   1.010   2.650   0.291
  197TCM     c1 1148   1.242   0.742   4.240
  197TCM    cl1 1149   1.082   0.676   4.289
  197TCM    cl2 1150   1.252   0.750   4.062
  197TCM     h1 1151   1.254   0.843   4.282
  197TCM    cl3 1152   1.373   0.636   4.302
  198TCM     c1 1153   1.634   1.436   0.506
  198TCM    cl1 1154   1.641   1.604   0.441
  198TCM    cl2 1155   1.571   1.440   0.674
  198TCM     h1 1156   1.569   1.375   0.443
  198TCM    cl3 1157   1.800   1.366   0.506
  199TCM     c1 1158   1.176   4.232   1.335
  199TCM    cl1 1159   1.300   4.103   1.328
  199TCM    cl2 1160   1.189   4.335   1.188
  199TCM     h1 1161   1.076   4.187   1.340
  199TCM    cl3 1162   1.202   4.334   1.481
  200TCM     c1 1163   0.194   2.393   2.556
  200TCM    cl1 1164   0.258   2.229   2.520
  200TCM    cl2 1165   0.150   2.476   2.403
  200TCM     h1 1166   0.105   2.384   2.620
  200TCM    cl3 1167   0.320   2.489   2.641
  201TCM     c1 1168   0.843   2.096   0.259
  201TCM    cl1 1169   0.873   2.077   0.083
  201TCM    cl2 1170   0.748   1.955   0.316
  201TCM     h1 1171   0.938   2.101   0.312
  201TCM    cl3 1172   0.747   2.244   0.289
  202TCM     c1 1173   3.585   4.336   3.379
  202TCM    cl1 1174   3.701   4.407   3.261
  202TCM    cl2 1175   3.575   4.158   3.354
  202TCM     h1 1176   3.619   4.357   3.480
  202TCM    cl3 1177   3.423   4.408   3.353
  203TCM     c1 1178   2.377   0.879   2.427
  203TCM    cl1 1179   2.468   1.011   2.508
  203TCM    cl2 1180   2.251   0.950   2.321
  203TCM     h1 1181   2.446   0.819   2.367
  203TCM    cl3 1182   2.299   0.775   2.550
  204TCM     c1 1183   0.677   4.397   4.333
  204TCM    cl1 1184   0.662   4.531   4.451
  204TCM    cl2 1185   0.704   4.464   4.169
  204TCM     h1 1186   0.762   4.333   4.361
  204TCM    cl3 1187   0.526   4.300   4.333
  205TCM     c1 1188   2.058   4.670   3.738
  205TCM    cl1 1189   1.940   4.688   3.872
  205TCM    cl2 1190   2.079   4.829   3.658
  205TCM     h1 1191   2.154   4.635   3.777
  205TCM    cl3 1192   1.993   4.551   3.620
  206TCM     c1 1193   1.123   4.940   1.045
  206TCM    cl1 1194   1.018   4.802   1.001
  206TCM    cl2 1195   1.054   5.026   1.187
  206TCM     h1 1196   1.223   4.904   1.070
  206TCM    cl3 1197   1.132   5.054   0.906
  207TCM     c1 1198   2.640   3.033   0.960
  207TCM    cl1 1199   2.628   3.081   1.132
  207TCM    cl2 1200   2.769   2.909   0.943
  207TCM     h1 1201   2.545   2.992   0.926
  207TCM    cl3 1202   2.683   3.176   0.860
  208TCM     c1 1203   1.048   3.235   0.712
  208TCM    cl1 1204   1.220   3.288   0.711
  208TCM    cl2 1205   0.955   3.333   0.594
  208TCM     h1 1206   1.042   3.130   0.685
  208TCM    cl3 1207   0.980   3.261   0.876
  209TCM     c1 1208   3.939   2.173   1.953
  209TCM    cl1 1209   4.051   2.297   2.018
  209TCM    cl2 1210   3.985   2.011   2.015
  209TCM     h1 1211   3.836   2.196   1.984
  209TCM    cl3 1212   3.948   2.173   1.774
  210TCM     c1 1213   2.402   2.212   0.832
  210TCM    cl1 1214   2.426   2.218   0.655
  210TCM    cl2 1215   2.480   2.355   0.908
  210TCM     h1 1216   2.295   2.212   0.855
  210TCM    cl3 1217   2.478   2.063   0.897
  211TCM     c1 1218   2.742   3.197   4.061
  211TCM    cl1 1219   2.812   3.355   4.012
  211TCM    cl2 1220   2.769   3.077   3.930
  211TCM     h1 1221   2.791   3.162   4.152
  211TCM    cl3 1222   2.566   3.215   4.090
  212TCM     c1 1223   1.114   2.693   4.239
  212TCM    cl1 1224   1.255   2.710   4.349
  212TCM    cl2 1225   0.962   2.717   4.330
  212TCM     h1 1226   1.121   2.769   4.160
  212TCM    cl3 1227   1.115   2.530   4.164
  213TCM     c1 1228   1.582   2.755   2.894
  213TCM    cl1 1229   1.496   2.714   3.046
  213TCM    cl2 1230   1.496   2.678   2.757
  213TCM     h1 1231   1.583   2.863   2.881
  213TCM    cl3 1232   1.750   2.693   2.901
  214TCM     c1 1233   3.774   4.424   3.781
  214TCM    cl1 1234   3.695   4.267   3.745
  214TCM    cl2 1235   3.668   4.521   3.889
  214TCM     h1 1236   3.871   4.406   3.830
  214TCM    cl3 1237   3.801   4.513   3.627
  215TCM     c1 1238   0.286   2.952   0.542
  215TCM    cl1 1239   0.436   3.002   0.627
  215TCM    cl2 1240   0.321   2.816   0.431
  215TCM     h1 1241   0.211   2.921   0.616
  215TCM    cl3 1242   0.223   3.092   0.448
  216TCM     c1 1243   1.418   2.102   0.235
  216TCM    cl1 1244   1.481   1.948   0.304
  216TCM    cl2 1245   1.501   2.240   0.313
  216TCM     h1 1246   1.437   2.104   0.127
  216TCM    cl3 1247   1.241   2.112   0.265
  217TCM     c1 1248   0.306   1.863   2.592
  217TCM    cl1 1249   0.342   1.791   2.432
  217TCM    cl2 1250   0.455   1.935   2.662
  217TCM     h1 1251   0.230   1.941   2.581
  217TCM    cl3 1252   0.245   1.735   2.702
  218TCM     c1 1253   3.641   0.124   4.793
  218TCM    cl1 1254   3.650   0.049   4.630
  218TCM    cl2 1255   3.568   0.007   4.909
  218TCM     h1 1256   3.741   0.151   4.826
  218TCM    cl3 1257   3.539   0.272   4.785
  219TCM     c1 1258   1.575   2.545   1.860
  219TCM    cl1 1259   1.680   2.525   2.003
  219TCM    cl2 1260   1.631   2.686   1.765
  219TCM     h1 1261   1.580   2.455   1.798
  219TCM    cl3 1262   1.405   2.572   1.913
  220TCM     c1 1263   3.855   0.394   3.916
  220TCM    cl1 1264   3.909   0.252   3.821
  220TCM    cl2 1265   3.676   0.394   3.924
  220TCM     h1 1266   3.896   0.388   4.018
  220TCM    cl3 1267   3.913   0.543   3.836
  221TCM     c1 1268   0.260   3.735   1.674
  221TCM    cl1 1269   0.410   3.813   1.735
  221TCM    cl2 1270   0.135   3.737   1.803
  221TCM     h1 1271   0.223   3.790   1.587
  221TCM    cl3 1272   0.295   3.565   1.629
  222TCM     c1 1273   0.222   1.320   0.632
  222TCM    cl1 1274   0.078   1.377   0.723
  222TCM    cl2 1275   0.356   1.287   0.748
  222TCM     h1 1276   0.197   1.228   0.578
  222TCM    cl3 1277   0.276   1.446   0.517
  223TCM     c1 1278   3.527   2.343   2.711
  223TCM    cl1 1279   3.577   2.433   2.564
  223TCM    cl2 1280   3.380   2.247   2.675
  223TCM     h1 1281   3.607   2.277   2.743
  223TCM    cl3 1282   3.490   2.460   2.842
  224TCM     c1 1283   0.312   4.612   2.788
  224TCM    cl1 1284   0.403   4.464   2.743
  224TCM    cl2 1285   0.215   4.580   2.936
  224TCM     h1 1286   0.382   4.694   2.806
  224TCM    cl3 1287   0.202   4.656   2.654
  225TCM     c1 1288   0.242   4.384   2.390
  225TCM    cl1 1289   0.096   4.479   2.346
  225TCM    cl2 1290   0.388   4.489   2.379
  225TCM     h1 1291   0.232   4.347   2.493
  225TCM    cl3 1292   0.260   4.246   2.277
  226TCM     c1 1293   0.621   2.370   2.292
  226TCM    cl1 1294   0.625   2.301   2.458
  226TCM    cl2 1295   0.455   2.359   2.226
  226TCM     h1 1296   0.652   2.474   2.295
  226TCM    cl3 1297   0.734   2.276   2.187
  227TCM     c1 1298   0.553   3.759   2.521
  227TCM    cl1 1299   0.573   3.619   2.631
  227TCM    cl2 1300   0.541   3.701   2.352
  227TCM     h1 1301   0.462   3.814   2.547
  227TCM    cl3 1302   0.695   3.868   2.537
  228TCM     c1 1303   2.295   0.507   3.728
  228TCM    cl1 1304   2.206   0.485   3.881
  228TCM    cl2 1305   2.237   0.655   3.647
  228TCM     h1 1306   2.403   0.515   3.748
  228TCM    cl3 1307   2.263   0.365   3.622
  229TCM     c1 1308   1.701   1.680   2.147
  229TCM    cl1 1309   1.600   1.826   2.120
  229TCM    cl2 1310   1.668   1.614   2.310
  229TCM     h1 1311   1.677   1.605   2.071
  229TCM    cl3 1312   1.874   1.725   2.135
  230TCM     c1 1313   0.917   2.938   2.557
  230TCM    cl1 1314   1.058   2.832   2.589
  230TCM    cl2 1315   0.912   3.067   2.682
  230TCM     h1 1316   0.927   2.983   2.458
  230TCM    cl3 1317   0.767   2.841   2.565
  231TCM     c1 1318   4.734   3.591   2.893
  231TCM    cl1 1319   4.796   3.701   2.766
  231TCM    cl2 1320   4.718   3.426   2.824
  231TCM     h1 1321   4.804   3.589   2.977
  231TCM    cl3 1322   4.574   3.649   2.949
  232TCM     c1 1323   4.240   0.665   4.393
  232TCM    cl1 1324   4.210   0.616   4.563
  232TCM    cl2 1325   4.414   0.705   4.373
  232TCM     h1 1326   4.213   0.583   4.326
  232TCM    cl3 1327   4.141   0.810   4.355
  233TCM     c1 1328   0.199   2.856   4.551
  233TCM    cl1 1329   0.347   2.923   4.473
  233TCM    cl2 1330   0.101   2.990   4.616
  233TCM     h1 1331   0.141   2.800   4.477
  233TCM    cl3 1332   0.246   2.747   4.686
  234TCM     c1 1333   0.972   1.646   0.291
  234TCM    cl1 1334   0.917   1.677   0.459
  234TCM    cl2 1335   1.076   1.782   0.237
  234TCM     h1 1336   1.030   1.553   0.289
  234TCM    cl3 1337   0.831   1.633   0.182
  235TCM     c1 1338   1.720   1.848   1.727
  235TCM    cl1 1339   1.582   1.959   1.760
  235TCM    cl2 1340   1.677   1.681   1.777
  235TCM     h1 1341   1.742   1.850   1.620
  235TCM    cl3 1342   1.864   1.903   1.818
  236TCM     c1 1343   2.452   4.300   3.639
  236TCM    cl1 1344   2.323   4.420   3.675
  236TCM    cl2 1345   2.518   4.330   3.475
  236TCM     h1 1346   2.532   4.310   3.712
  236TCM    cl3 1347   2.382   4.135   3.646
  237TCM     c1 1348   3.241   0.264   1.478
  237TCM    cl1 1349   3.147   0.128   1.547
  237TCM    cl2 1350   3.196   0.284   1.305
  237TCM     h1 1351   3.219   0.356   1.533
  237TCM    cl3 1352   3.416   0.226   1.488
  238TCM     c1 1353   2.388   4.533   4.877
  238TCM    cl1 1354   2.218   4.564   4.829
  238TCM    cl2 1355   2.497   4.641   4.783
  238TCM     h1 1356   2.400   4.554   4.984
  238TCM    cl3 1357   2.430   4.362   4.844
  239TCM     c1 1358   2.653   1.575   3.079
  239TCM    cl1 1359   2.686   1.624   3.249
  239TCM    cl2 1360   2.770   1.449   3.031
  239TCM     h1 1361   2.551   1.537   3.071
  239TCM    cl3 1362   2.673   1.717   2.971
  240TCM     c1 1363   0.764   1.598   4.753
  240TCM    cl1 1364   0.662   1.504   4.867
  240TCM    cl2 1365   0.918   1.510   4.724
  240TCM     h1 1366   0.710   1.609   4.658
  240TCM    cl3 1367   0.799   1.759   4.822
  241TCM     c1 1368   3.000   0.686   2.901
  241TCM    cl1 1369   3.176   0.655   2.918
  241TCM    cl2 1370   2.969   0.770   2.746
  241TCM     h1 1371   2.946   0.590   2.903
  241TCM    cl3 1372   2.944   0.790   3.036
  242TCM     c1 1373   3.548   0.559   1.512
  242TCM    cl1 1374   3.658   0.700   1.497
  242TCM    cl2 1375   3.380   0.609   1.474
  242TCM     h1 1376   3.580   0.482   1.442
  242TCM    cl3 1377   3.555   0.496   1.679
  243TCM     c1 1378   0.622   0.225   0.321
  243TCM    cl1 1379   0.685   0.292   0.474
  243TCM    cl2 1380   0.450   0.274   0.301
  243TCM     h1 1381   0.681   0.263   0.237
  243TCM    cl3 1382   0.632   0.046   0.323
  244TCM     c1 1383   0.588   3.743   3.795
  244TCM    cl1 1384   0.733   3.763   3.900
  244TCM    cl2 1385   0.453   3.675   3.891
  244TCM     h1 1386   0.559   3.840   3.754
  244TCM    cl3 1387   0.628   3.630   3.661
  245TCM     c1 1388   0.138   4.103   4.332
  245TCM    cl1 1389   0.251   4.099   4.471
  245TCM    cl2 1390   0.191   4.231   4.218
  245TCM     h1 1391   0.139   4.006   4.281
  245TCM    cl3 1392  -0.027   4.141   4.389
  246TCM     c1 1393   3.570   1.675   0.450
  246TCM    cl1 1394   3.422   1.759   0.393
  246TCM    cl2 1395   3.557   1.645   0.626
  246TCM     h1 1396   3.581   1.580   0.397
  246TCM    cl3 1397   3.713   1.779   0.418
  247TCM     c1 1398   3.264   4.252   3.791
  247TCM    cl1 1399   3.121   4.147   3.819
  247TCM    cl2 1400   3.349   4.199   3.643
  247TCM     h1 1401   3.231   4.356   3.780
  247TCM    cl3 1402   3.376   4.239   3.931
  248TCM     c1 1403   1.863   4.663   3.175
  248TCM    cl1 1404   1.927   4.514   3.097
  248TCM    cl2 1405   1.832   4.787   3.050
  248TCM     h1 1406   1.770   4.639   3.227
  248TCM    cl3 1407   1.983   4.725   3.293
  249TCM     c1 1408   2.626   0.160   2.478
  249TCM    cl1 1409   2.693   0.127   2.641
  249TCM    cl2 1410   2.503   0.292   2.489
  249TCM     h1 1411   2.706   0.190   2.410
  249TCM    cl3 1412   2.546   0.013   2.416
  250TCM     c1 1413   3.249   1.895   3.998
  250TCM    cl1 1414   3.320   1.897   4.162
  250TCM    cl2 1415   3.380   1.884   3.876
  250TCM     h1 1416   3.182   1.809   3.987
  250TCM    cl3 1417   3.156   2.047   3.973
  251TCM     c1 1418   3.058   2.485   0.299
  251TCM    cl1 1419   3.048   2.652   0.235
  251TCM    cl2 1420   3.219   2.416   0.260
  251TCM     h1 1421   3.044   2.486   0.407
  251TCM    cl3 1422   2.931   2.385   0.222
  252TCM     c1 1423   1.441  -0.000   4.818
  252TCM    cl1 1424   1.589  -0.037   4.723
  252TCM    cl2 1425   1.316   0.069   4.709
  252TCM     h1 1426   1.403  -0.092   4.864
  252TCM    cl3 1427   1.481   0.120   4.944
  253TCM     c1 1428   0.834   1.477   1.754
  253TCM    cl1 1429   0.680   1.553   1.805
  253TCM    cl2 1430   0.941   1.458   1.896
  253TCM     h1 1431   0.814   1.380   1.709
  253TCM    cl3 1432   0.914   1.584   1.634
  254TCM     c1 1433   4.956   2.872   0.344
  254TCM    cl1 1434   4.996   2.704   0.295
  254TCM    cl2 1435   4.947   2.882   0.523
  254TCM     h1 1436   5.033   2.940   0.307
  254TCM    cl3 1437   4.797   2.918   0.276
  255TCM     c1 1438   0.515   1.608   3.997
  255TCM    cl1 1439   0.650   1.514   4.067
  255TCM    cl2 1440   0.487   1.755   4.096
  255TCM     h1 1441   0.540   1.637   3.895
  255TCM    cl3 1442   0.366   1.507   3.997
  256TCM     c1 1443   0.886   0.551   0.242
  256TCM    cl1 1444   0.730   0.527   0.156
  256TCM    cl2 1445   0.964   0.391   0.268
  256TCM     h1 1446   0.952   0.614   0.182
  256TCM    cl3 1447   0.855   0.629   0.400
  257TCM     c1 1448   3.587   4.637   0.027
  257TCM    cl1 1449   3.686   4.684   0.169
  257TCM    cl2 1450   3.543   4.464   0.040
  257TCM     h1 1451   3.497   4.699   0.023
  257TCM    cl3 1452   3.682   4.662  -0.123
  258TCM     c1 1453   3.156   3.651   3.444
  258TCM    cl1 1454   3.005   3.574   3.505
  258TCM    cl2 1455   3.204   3.573   3.289
  258TCM     h1 1456   3.139   3.757   3.428
  258TCM    cl3 1457   3.286   3.628   3.565
  259TCM     c1 1458   2.830   4.203   3.091
  259TCM    cl1 1459   2.834   4.376   3.044
  259TCM    cl2 1460   2.703   4.179   3.215
  259TCM     h1 1461   2.807   4.142   3.003
  259TCM    cl3 1462   2.989   4.157   3.158
  260TCM     c1 1463   3.393   0.922   2.773
  260TCM    cl1 1464   3.358   0.807   2.639
  260TCM    cl2 1465   3.254   1.033   2.793
  260TCM     h1 1466   3.411   0.866   2.865
  260TCM    cl3 1467   3.538   1.018   2.730
  261TCM     c1 1468   4.479   1.839   0.139
  261TCM    cl1 1469   4.469   1.781   0.308
  261TCM    cl2 1470   4.332   1.789   0.050
  261TCM     h1 1471   4.487   1.948   0.138
  261TCM    cl3 1472   4.625   1.770   0.060
  262TCM     c1 1473   3.057   2.032   0.321
  262TCM    cl1 1474   3.219   2.049   0.248
  262TCM    cl2 1475   3.045   2.137   0.465
  262TCM     h1 1476   2.980   2.060   0.248
  262TCM    cl3 1477   3.033   1.861   0.370
  263TCM     c1 1478   4.492   4.530   1.326
  263TCM    cl1 1479   4.616   4.400   1.326
  263TCM    cl2 1480   4.376   4.501   1.459
  263TCM     h1 1481   4.541   4.627   1.340
  263TCM    cl3 1482   4.404   4.529   1.170
  264TCM     c1 1483   4.529   0.458   3.166
  264TCM    cl1 1484   4.426   0.313   3.143
  264TCM    cl2 1485   4.467   0.591   3.063
  264TCM     h1 1486   4.528   0.489   3.271
  264TCM    cl3 1487   4.697   0.419   3.117
  265TCM     c1 1488   3.532   2.190   0.170
  265TCM    cl1 1489   3.669   2.304   0.190
  265TCM    cl2 1490   3.595   2.022   0.166
  265TCM     h1 1491   3.463   2.202   0.254
  265TCM    cl3 1492   3.447   2.226   0.016
  266TCM     c1 1493   1.726   0.035   2.719
  266TCM    cl1 1494   1.693   0.089   2.887
  266TCM    cl2 1495   1.760   0.178   2.615
  266TCM     h1 1496   1.812  -0.032   2.718
  266TCM    cl3 1497   1.581  -0.050   2.654
  267TCM     c1 1498   1.319   4.489   4.766
  267TCM    cl1 1499   1.420   4.630   4.813
  267TCM    cl2 1500   1.252   4.412   4.914
  267TCM     h1 1501   1.237   4.522   4.702
  267TCM    cl3 1502   1.421   4.371   4.678
  268TCM     c1 1503   0.041   4.968   4.301
  268TCM    cl1 1504   0.042   4.911   4.131
  268TCM    cl2 1505   0.172   4.887   4.392
  268TCM     h1 1506   0.056   5.076   4.304
  268TCM    cl3 1507  -0.117   4.928   4.377
  269TCM     c1 1508   4.527   4.616   0.149
  269TCM    cl1 1509   4.349   4.629   0.140
  269TCM    cl2 1510   4.584   4.685   0.305
  269TCM     h1 1511   4.557   4.511   0.142
  269TCM    cl3 1512   4.601   4.708   0.014
  270TCM     c1 1513   0.289   2.317   3.691
  270TCM    cl1 1514   0.416   2.436   3.733
  270TCM    cl2 1515   0.188   2.283   3.835
  270TCM     h1 1516   0.226   2.357   3.611
  270TCM    cl3 1517   0.367   2.165   3.635
  271TCM     c1 1518   3.921   1.274   1.660
  271TCM    cl1 1519   4.028   1.237   1.521
  271TCM    cl2 1520   3.867   1.445   1.650
  271TCM     h1 1521   3.834   1.208   1.658
  271TCM    cl3 1522   4.012   1.250   1.813
  272TCM     c1 1523   1.533   4.684   0.235
  272TCM    cl1 1524   1.474   4.686   0.404
  272TCM    cl2 1525   1.449   4.813   0.143
  272TCM     h1 1526   1.641   4.701   0.233
  272TCM    cl3 1527   1.495   4.526   0.160
  273TCM     c1 1528   3.531   0.796   3.602
  273TCM    cl1 1529   3.549   0.784   3.424
  273TCM    cl2 1530   3.589   0.643   3.676
  273TCM     h1 1531   3.590   0.880   3.639
  273TCM    cl3 1532   3.357   0.819   3.642
  274TCM     c1 1533   4.522   3.276   3.249
  274TCM    cl1 1534   4.663   3.250   3.141
  274TCM    cl2 1535   4.433   3.121   3.267
  274TCM     h1 1536   4.557   3.309   3.347
  274TCM    cl3 1537   4.413   3.400   3.178
  275TCM     c1 1538   1.398   0.659   0.413
  275TCM    cl1 1539   1.222   0.639   0.386
  275TCM    cl2 1540   1.468   0.501   0.462
  275TCM     h1 1541   1.445   0.693   0.320
  275TCM    cl3 1542   1.425   0.781   0.542
  276TCM     c1 1543   1.121   1.869   1.093
  276TCM    cl1 1544   1.044   1.781   1.229
  276TCM    cl2 1545   1.050   1.813   0.938
  276TCM     h1 1546   1.104   1.977   1.105
  276TCM    cl3 1547   1.297   1.836   1.093
  277TCM     c1 1548   3.326   2.792   2.268
  277TCM    cl1 1549   3.315   2.867   2.106
  277TCM    cl2 1550   3.354   2.919   2.391
  277TCM     h1 1551   3.233   2.740   2.291
  277TCM    cl3 1552   3.462   2.675   2.270
  278TCM     c1 1553   3.123   3.128   2.598
  278TCM    cl1 1554   3.205   3.283   2.635
  278TCM    cl2 1555   2.945   3.153   2.599
  278TCM     h1 1556   3.154   3.093   2.499
  278TCM    cl3 1557   3.167   3.006   2.722
  279TCM     c1 1558   1.193   1.004   0.137
  279TCM    cl1 1559   1.099   0.852   0.130
  279TCM    cl2 1560   1.220   1.066  -0.029
  279TCM     h1 1561   1.139   1.078   0.195
  279TCM    cl3 1562   1.352   0.972   0.215
  280TCM     c1 1563   3.119   0.035   0.571
  280TCM    cl1 1564   3.134   0.160   0.699
  280TCM    cl2 1565   3.017  -0.101   0.630
  280TCM     h1 1566   3.074   0.079   0.482
  280TCM    cl3 1567   3.283  -0.027   0.530
  281TCM     c1 1568   2.038   3.393   0.807
  281TCM    cl1 1569   2.169   3.314   0.713
  281TCM    cl2 1570   2.074   3.378   0.983
  281TCM     h1 1571   2.030   3.498   0.779
  281TCM    cl3 1572   1.883   3.310   0.772
  282TCM     c1 1573   2.830   3.539   1.725
  282TCM    cl1 1574   2.963   3.659   1.744
  282TCM    cl2 1575   2.713   3.558   1.859
  282TCM     h1 1576   2.779   3.555   1.629
  282TCM    cl3 1577   2.899   3.373   1.728
  283TCM     c1 1578   4.600   0.097   3.943
  283TCM    cl1 1579   4.702   0.022   4.070
  283TCM    cl2 1580   4.675   0.250   3.889
  283TCM     h1 1581   4.592   0.028   3.859
  283TCM    cl3 1582   4.437   0.130   4.010
  284TCM     c1 1583   4.870   2.616   4.684
  284TCM    cl1 1584   4.954   2.595   4.526
  284TCM    cl2 1585   4.932   2.494   4.800
  284TCM     h1 1586   4.889   2.716   4.723
  284TCM    cl3 1587   4.694   2.593   4.660
  285TCM     c1 1588   0.841   4.605   2.437
  285TCM    cl1 1589   0.861   4.584   2.260
  285TCM    cl2 1590   1.002   4.595   2.517
  285TCM     h1 1591   0.796   4.703   2.457
  285TCM    cl3 1592   0.735   4.475   2.501
  286TCM     c1 1593   0.177   0.023   0.290
  286TCM    cl1 1594   0.009  -0.035   0.315
  286TCM    cl2 1595   0.201   0.068   0.117
  286TCM     h1 1596   0.196   0.110   0.353
  286TCM    cl3 1597   0.292  -0.108   0.334
  287TCM     c1 1598   4.509   0.159   3.474
  287TCM    cl1 1599   4.613   0.062   3.364
  287TCM    cl2 1600   4.599   0.305   3.527
  287TCM     h1 1601   4.419   0.189   3.421
  287TCM    cl3 1602   4.465   0.060   3.616
  288TCM     c1 1603   3.567   4.877   4.049
  288TCM    cl1 1604   3.525   4.890   4.223
  288TCM    cl2 1605   3.657   5.023   3.997
  288TCM     h1 1606   3.628   4.788   4.033
  288TCM    cl3 1607   3.415   4.864   3.953
  289TCM     c1 1608   1.224   1.787   1.552
  289TCM    cl1 1609   1.339   1.887   1.458
  289TCM    cl2 1610   1.094   1.893   1.617
  289TCM     h1 1611   1.180   1.711   1.487
  289TCM    cl3 1612   1.311   1.708   1.687
  290TCM     c1 1613   0.468   0.051   1.478
  290TCM    cl1 1614   0.354   0.132   1.591
  290TCM    cl2 1615   0.489   0.151   1.331
  290TCM     h1 1616   0.564   0.037   1.527
  290TCM    cl3 1617   0.401  -0.109   1.431
  291TCM     c1 1618   3.285   1.462   2.608
  291TCM    cl1 1619   3.236   1.506   2.441
  291TCM    cl2 1620   3.297   1.611   2.706
  291TCM     h1 1621   3.211   1.395   2.652
  291TCM    cl3 1622   3.445   1.379   2.603
  292TCM     c1 1623   3.650   0.159   0.361
  292TCM    cl1 1624   3.550   0.191   0.215
  292TCM    cl2 1625   3.654  -0.018   0.391
  292TCM     h1 1626   3.751   0.196   0.344
  292TCM    cl3 1627   3.577   0.242   0.502
  293TCM     c1 1628   0.616   1.160   2.009
  293TCM    cl1 1629   0.652   1.165   1.833
  293TCM    cl2 1630   0.444   1.115   2.034
  293TCM     h1 1631   0.681   1.087   2.058
  293TCM    cl3 1632   0.646   1.322   2.080
  294TCM     c1 1633   2.866   3.546   1.196
  294TCM    cl1 1634   2.734   3.435   1.146
  294TCM    cl2 1635   2.898   3.526   1.372
  294TCM     h1 1636   2.956   3.524   1.140
  294TCM    cl3 1637   2.816   3.715   1.163
  295TCM     c1 1638   2.505   2.375   4.240
  295TCM    cl1 1639   2.504   2.281   4.087
  295TCM    cl2 1640   2.675   2.405   4.290
  295TCM     h1 1641   2.454   2.471   4.224
  295TCM    cl3 1642   2.420   2.283   4.368
  296TCM     c1 1643   0.603   2.016   0.677
  296TCM    cl1 1644   0.776   2.060   0.656
  296TCM    cl2 1645   0.503   2.109   0.560
  296TCM     h1 1646   0.589   1.909   0.660
  296TCM    cl3 1647   0.550   2.059   0.843
  297TCM     c1 1648   2.647   0.151   1.619
  297TCM    cl1 1649   2.803   0.074   1.662
  297TCM    cl2 1650   2.546   0.168   1.767
  297TCM     h1 1651   2.665   0.250   1.576
  297TCM    cl3 1652   2.560   0.050   1.499
  298TCM     c1 1653   2.340   3.638   4.896
  298TCM    cl1 1654   2.217   3.642   4.764
  298TCM    cl2 1655   2.375   3.468   4.941
  298TCM     h1 1656   2.432   3.686   4.862
  298TCM    cl3 1657   2.276   3.727   5.038
  299TCM     c1 1658   0.376   3.202   4.725
  299TCM    cl1 1659   0.416   3.044   4.800
  299TCM    cl2 1660   0.526   3.298   4.705
  299TCM     h1 1661   0.330   3.186   4.627
  299TCM    cl3 1662   0.264   3.290   4.833
  300TCM     c1 1663   3.910   1.800   1.602
  300TCM    cl1 1664   3.801   1.796   1.745
  300TCM    cl2 1665   4.077   1.836   1.657
  300TCM     h1 1666   3.908   1.704   1.551
  300TCM    cl3 1667   3.855   1.929   1.489
  301TCM     c1 1668   2.177   2.681   2.634
  301TCM    cl1 1669   2.088   2.793   2.526
  301TCM    cl2 1670   2.301   2.594   2.538
  301TCM     h1 1671   2.227   2.739   2.713
  301TCM    cl3 1672   2.065   2.563   2.709
  302TCM     c1 1673   4.638   2.700   0.558
  302TCM    cl1 1674   4.756   2.565   0.544
  302TCM    cl2 1675   4.657   2.780   0.718
  302TCM     h1 1676   4.657   2.772   0.478
  302TCM    cl3 1677   4.472   2.635   0.543
  303TCM     c1 1678   0.261   4.223   1.692
  303TCM    cl1 1679   0.181   4.082   1.614
  303TCM    cl2 1680   0.267   4.359   1.575
  303TCM     h1 1681   0.204   4.253   1.780
  303TCM    cl3 1682   0.428   4.178   1.740
  304TCM     c1 1683   3.022   1.305   3.618
  304TCM    cl1 1684   3.136   1.170   3.651
  304TCM    cl2 1685   2.973   1.380   3.774
  304TCM     h1 1686   3.071   1.379   3.556
  304TCM    cl3 1687   2.877   1.242   3.534
  305TCM     c1 1688   0.768   3.384   2.178
  305TCM    cl1 1689   0.940   3.417   2.138
  305TCM    cl2 1690   0.753   3.368   2.356
  305TCM     h1 1691   0.706   3.466   2.142
  305TCM    cl3 1692   0.717   3.230   2.100
  306TCM     c1 1693   2.928   3.891   2.089
  306TCM    cl1 1694   2.817   3.944   1.958
  306TCM    cl2 1695   2.916   3.714   2.112
  306TCM     h1 1696   3.031   3.917   2.062
  306TCM    cl3 1697   2.883   3.973   2.242
  307TCM     c1 1698   1.451   2.745   2.423
  307TCM    cl1 1699   1.329   2.616   2.449
  307TCM    cl2 1700   1.373   2.906   2.433
  307TCM     h1 1701   1.528   2.737   2.499
  307TCM    cl3 1702   1.525   2.725   2.261
  308TCM     c1 1703   4.843   4.968   4.812
  308TCM    cl1 1704   4.806   4.821   4.716
  308TCM    cl2 1705   4.973   5.061   4.732
  308TCM     h1 1706   4.753   5.030   4.819
  308TCM    cl3 1707   4.896   4.918   4.976
  309TCM     c1 1708   4.412   4.653   2.304
  309TCM    cl1 1709   4.334   4.570   2.443
  309TCM    cl2 1710   4.294   4.764   2.227
  309TCM     h1 1711   4.499   4.710   2.340
  309TCM    cl3 1712   4.467   4.531   2.185
  310TCM     c1 1713   1.297   4.992   2.990
  310TCM    cl1 1714   1.328   5.123   2.871
  310TCM    cl2 1715   1.416   4.860   2.967
  310TCM     h1 1716   1.305   5.032   3.091
  310TCM    cl3 1717   1.131   4.929   2.963
  311TCM     c1 1718   3.516   4.784   3.566
  311TCM    cl1 1719   3.645   4.839   3.679
  311TCM    cl2 1720   3.432   4.642   3.637
  311TCM     h1 1721   3.444   4.865   3.550
  311TCM    cl3 1722   3.591   4.737   3.410
  312TCM     c1 1723   3.645   2.061   4.745
  312TCM    cl1 1724   3.673   2.055   4.568
  312TCM    cl2 1725   3.748   2.189   4.818
  312TCM     h1 1726   3.540   2.083   4.764
  312TCM    cl3 1727   3.688   1.903   4.816
  313TCM     c1 1728   4.587   3.885   2.477
  313TCM    cl1 1729   4.760   3.932   2.466
  313TCM    cl2 1730   4.491   3.981   2.359
  313TCM     h1 1731   4.577   3.778   2.454
  313TCM    cl3 1732   4.526   3.918   2.642
  314TCM     c1 1733   4.879   2.832   2.313
  314TCM    cl1 1734   5.046   2.829   2.248
  314TCM    cl2 1735   4.873   2.933   2.461
  314TCM     h1 1736   4.812   2.875   2.238
  314TCM    cl3 1737   4.826   2.665   2.351
  315TCM     c1 1738   1.161   2.209   0.732
  315TCM    cl1 1739   1.229   2.147   0.887
  315TCM    cl2 1740   1.294   2.274   0.631
  315TCM     h1 1741   1.111   2.128   0.679
  315TCM    cl3 1742   1.044   2.340   0.767
  316TCM     c1 1743   0.971   1.753   3.894
  316TCM    cl1 1744   0.994   1.595   3.975
  316TCM    cl2 1745   1.101   1.866   3.947
  316TCM     h1 1746   0.976   1.740   3.786
  316TCM    cl3 1747   0.811   1.820   3.939
  317TCM     c1 1748   4.188   3.355   1.239
  317TCM    cl1 1749   4.079   3.483   1.176
  317TCM    cl2 1750   4.092   3.208   1.275
  317TCM     h1 1751   4.264   3.332   1.164
  317TCM    cl3 1752   4.268   3.412   1.389
  318TCM     c1 1753   0.362   4.717   2.068
  318TCM    cl1 1754   0.531   4.714   2.126
  318TCM    cl2 1755   0.256   4.783   2.197
  318TCM     h1 1756   0.355   4.781   1.980
  318TCM    cl3 1757   0.309   4.551   2.025
  319TCM     c1 1758   1.175   2.205   1.778
  319TCM    cl1 1759   1.298   2.273   1.665
  319TCM    cl2 1760   1.105   2.338   1.876
  319TCM     h1 1761   1.096   2.156   1.720
  319TCM    cl3 1762   1.254   2.085   1.886
  320TCM     c1 1763   0.712   2.189   4.053
  320TCM    cl1 1764   0.625   2.146   3.902
  320TCM    cl2 1765   0.889   2.173   4.028
  320TCM     h1 1766   0.689   2.292   4.080
  320TCM    cl3 1767   0.661   2.079   4.186
  321TCM     c1 1768   0.971   0.646   4.803
  321TCM    cl1 1769   0.855   0.754   4.887
  321TCM    cl2 1770   1.002   0.501   4.903
  321TCM     h1 1771   0.929   0.615   4.707
  321TCM    cl3 1772   1.125   0.734   4.775
  322TCM     c1 1773   3.546   2.521   0.856
  322TCM    cl1 1774   3.410   2.449   0.948
  322TCM    cl2 1775   3.501   2.688   0.807
  322TCM     h1 1776   3.636   2.524   0.919
  322TCM    cl3 1777   3.578   2.423   0.709
  323TCM     c1 1778   3.599   4.667   2.903
  323TCM    cl1 1779   3.624   4.773   3.046
  323TCM    cl2 1780   3.502   4.754   2.780
  323TCM     h1 1781   3.695   4.638   2.861
  323TCM    cl3 1782   3.510   4.520   2.955
  324TCM     c1 1783   4.738   3.111   4.824
  324TCM    cl1 1784   4.750   2.955   4.737
  324TCM    cl2 1785   4.577   3.184   4.793
  324TCM     h1 1786   4.750   3.095   4.932
  324TCM    cl3 1787   4.867   3.222   4.765
  325TCM     c1 1788   4.542   2.606   2.581
  325TCM    cl1 1789   4.630   2.740   2.663
  325TCM    cl2 1790   4.390   2.574   2.670
  325TCM     h1 1791   4.520   2.634   2.478
  325TCM    cl3 1792   4.644   2.459   2.583
  326TCM     c1 1793   2.154   4.276   3.295
  326TCM    cl1 1794   2.288   4.160   3.266
  326TCM    cl2 1795   2.220   4.442   3.314
  326TCM     h1 1796   2.085   4.274   3.210
  326TCM    cl3 1797   2.067   4.229   3.445
  327TCM     c1 1798   3.434   2.005   0.671
  327TCM    cl1 1799   3.475   2.087   0.825
  327TCM    cl2 1800   3.440   2.123   0.536
  327TCM     h1 1801   3.507   1.925   0.652
  327TCM    cl3 1802   3.270   1.935   0.682
  328TCM     c1 1803   2.393   1.821   2.584
  328TCM    cl1 1804   2.256   1.856   2.694
  328TCM    cl2 1805   2.547   1.868   2.664
  328TCM     h1 1806   2.395   1.715   2.559
  328TCM    cl3 1807   2.373   1.917   2.433
  329TCM     c1 1808   2.930   2.691   3.169
  329TCM    cl1 1809   2.908   2.866   3.139
  329TCM    cl2 1810   2.815   2.598   3.066
  329TCM     h1 1811   3.033   2.662   3.144
  329TCM    cl3 1812   2.897   2.653   3.341
  330TCM     c1 1813   0.203   1.611   1.394
  330TCM    cl1 1814   0.219   1.624   1.216
  330TCM    cl2 1815   0.180   1.439   1.440
  330TCM     h1 1816   0.293   1.650   1.442
  330TCM    cl3 1817   0.061   1.707   1.450
  331TCM     c1 1818   1.684   1.001   3.425
  331TCM    cl1 1819   1.563   1.133   3.439
  331TCM    cl2 1820   1.728   0.944   3.589
  331TCM     h1 1821   1.641   0.919   3.367
  331TCM    cl3 1822   1.831   1.063   3.342
  332TCM     c1 1823   3.276   4.131   2.130
  332TCM    cl1 1824   3.249   3.981   2.225
  332TCM    cl2 1825   3.118   4.211   2.098
  332TCM     h1 1826   3.341   4.199   2.185
  332TCM    cl3 1827   3.352   4.089   1.973
  333TCM     c1 1828   1.994   3.381   0.245
  333TCM    cl1 1829   2.154   3.307   0.208
  333TCM    cl2 1830   1.976   3.533   0.152
  333TCM     h1 1831   1.914   3.311   0.217
  333TCM    cl3 1832   1.984   3.416   0.420
  334TCM     c1 1833   4.755   1.915   2.813
  334TCM    cl1 1834   4.854   1.783   2.743
  334TCM    cl2 1835   4.582   1.868   2.809
  334TCM     h1 1836   4.786   1.934   2.916
  334TCM    cl3 1837   4.779   2.064   2.715
  335TCM     c1 1838   2.431   3.610   1.231
  335TCM    cl1 1839   2.522   3.639   1.383
  335TCM    cl2 1840   2.459   3.747   1.119
  335TCM     h1 1841   2.466   3.517   1.185
  335TCM    cl3 1842   2.256   3.599   1.267
  336TCM     c1 1843   1.027   4.789   4.451
  336TCM    cl1 1844   1.167   4.769   4.561
  336TCM    cl2 1845   0.881   4.826   4.548
  336TCM     h1 1846   1.047   4.870   4.381
  336TCM    cl3 1847   1.001   4.636   4.361
  337TCM     c1 1848   3.526   3.008   3.489
  337TCM    cl1 1849   3.434   2.938   3.626
  337TCM    cl2 1850   3.469   2.935   3.335
  337TCM     h1 1851   3.511   3.116   3.486
  337TCM    cl3 1852   3.700   2.972   3.510
  338TCM     c1 1853   3.664   3.679   1.094
  338TCM    cl1 1854   3.703   3.527   1.008
  338TCM    cl2 1855   3.814   3.751   1.160
  338TCM     h1 1856   3.617   3.750   1.024
  338TCM    cl3 1857   3.551   3.644   1.229
  339TCM     c1 1858   2.548   0.923   3.692
  339TCM    cl1 1859   2.412   0.958   3.803
  339TCM    cl2 1860   2.502   0.968   3.524
  339TCM     h1 1861   2.636   0.980   3.722
  339TCM    cl3 1862   2.584   0.747   3.698
  340TCM     c1 1863   2.169   3.276   4.375
  340TCM    cl1 1864   2.095   3.127   4.441
  340TCM    cl2 1865   2.348   3.260   4.377
  340TCM     h1 1866   2.135   3.290   4.272
  340TCM    cl3 1867   2.121   3.418   4.473
  341TCM     c1 1868   4.204   3.627   2.969
  341TCM    cl1 1869   4.236   3.737   2.830
  341TCM    cl2 1870   4.039   3.559   2.953
  341TCM     h1 1871   4.278   3.546   2.969
  341TCM    cl3 1872   4.215   3.721   3.122
  342TCM     c1 1873   2.272   4.920   4.653
  342TCM    cl1 1874   2.436   4.985   4.688
  342TCM    cl2 1875   2.233   4.948   4.480
  342TCM     h1 1876   2.270   4.813   4.674
  342TCM    cl3 1877   2.153   5.004   4.756
  343TCM     c1 1878   3.206   1.819   4.582
  343TCM    cl1 1879   3.179   1.715   4.438
  343TCM    cl2 1880   3.049   1.880   4.642
  343TCM     h1 1881   3.254   1.760   4.661
  343TCM    cl3 1882   3.312   1.957   4.537
  344TCM     c1 1883   0.367   0.473   3.711
  344TCM    cl1 1884   0.285   0.570   3.839
  344TCM    cl2 1885   0.249   0.432   3.583
  344TCM     h1 1886   0.449   0.531   3.669
  344TCM    cl3 1887   0.431   0.322   3.784
  345TCM     c1 1888   3.419   0.777   1.925
  345TCM    cl1 1889   3.485   0.868   1.786
  345TCM    cl2 1890   3.549   0.679   2.000
  345TCM     h1 1891   3.378   0.847   1.999
  345TCM    cl3 1892   3.288   0.667   1.869
  346TCM     c1 1893   2.993   4.841   2.475
  346TCM    cl1 1894   3.157   4.903   2.511
  346TCM    cl2 1895   3.004   4.677   2.402
  346TCM     h1 1896   2.935   4.836   2.568
  346TCM    cl3 1897   2.910   4.952   2.360
  347TCM     c1 1898   2.557   4.197   2.336
  347TCM    cl1 1899   2.624   4.130   2.489
  347TCM    cl2 1900   2.521   4.063   2.223
  347TCM     h1 1901   2.466   4.253   2.358
  347TCM    cl3 1902   2.679   4.306   2.262
  348TCM     c1 1903   0.726   0.833   2.276
  348TCM    cl1 1904   0.898   0.831   2.327
  348TCM    cl2 1905   0.718   0.819   2.098
  348TCM     h1 1906   0.673   0.750   2.323
  348TCM    cl3 1907   0.652   0.989   2.326
  349TCM     c1 1908   2.426   4.330   2.830
  349TCM    cl1 1909   2.308   4.360   2.962
  349TCM    cl2 1910   2.339   4.268   2.686
  349TCM     h1 1911   2.477   4.423   2.805
  349TCM    cl3 1912   2.547   4.208   2.883
  350TCM     c1 1913   4.111   1.826   4.768
  350TCM    cl1 1914   4.265   1.825   4.676
  350TCM    cl2 1915   3.983   1.747   4.671
  350TCM     h1 1916   4.124   1.772   4.861
  350TCM    cl3 1917   4.064   1.995   4.804
  351TCM     c1 1918   0.340   0.387   4.972
  351TCM    cl1 1919   0.331   0.555   5.033
  351TCM    cl2 1920   0.501   0.360   4.896
  351TCM     h1 1921   0.327   0.317   5.055
  351TCM    cl3 1922   0.211   0.359   4.851
  352TCM     c1 1923   3.600   3.616   0.072
  352TCM    cl1 1924   3.635   3.559  -0.095
  352TCM    cl2 1925   3.650   3.491   0.190
  352TCM     h1 1926   3.656   3.709   0.091
  352TCM    cl3 1927   3.425   3.648   0.088
  353TCM     c1 1928   2.081   2.149   2.486
  353TCM    cl1 1929   2.049   2.133   2.310
  353TCM    cl2 1930   1.943   2.232   2.564
  353TCM     h1 1931   2.092   2.049   2.530
  353TCM    cl3 1932   2.231   2.243   2.512
  354TCM     c1 1933   2.280   3.986   1.522
  354TCM    cl1 1934   2.393   3.978   1.383
  354TCM    cl2 1935   2.369   4.034   1.670
  354TCM     h1 1936   2.202   4.059   1.501
  354TCM    cl3 1937   2.207   3.824   1.546
  355TCM     c1 1938   4.045   3.431   1.859
  355TCM    cl1 1939   4.117   3.283   1.931
  355TCM    cl2 1940   4.177   3.543   1.811
  355TCM     h1 1941   3.986   3.404   1.771
  355TCM    cl3 1942   3.939   3.510   1.980
  356TCM     c1 1943   2.471   4.180   0.515
  356TCM    cl1 1944   2.293   4.187   0.535
  356TCM    cl2 1945   2.548   4.180   0.678
  356TCM     h1 1946   2.500   4.090   0.461
  356TCM    cl3 1947   2.527   4.325   0.425
  357TCM     c1 1948   2.952   2.221   4.463
  357TCM    cl1 1949   2.808   2.144   4.538
  357TCM    cl2 1950   3.022   2.113   4.338
  357TCM     h1 1951   2.922   2.316   4.417
  357TCM    cl3 1952   3.074   2.252   4.590
  358TCM     c1 1953   1.662   3.103   2.497
  358TCM    cl1 1954   1.759   2.980   2.410
  358TCM    cl2 1955   1.755   3.256   2.505
  358TCM     h1 1956   1.568   3.119   2.444
  358TCM    cl3 1957   1.629   3.043   2.663
  359TCM     c1 1958   0.586   4.140   4.747
  359TCM    cl1 1959   0.753   4.193   4.786
  359TCM    cl2 1960   0.592   4.017   4.616
  359TCM     h1 1961   0.538   4.097   4.836
  359TCM    cl3 1962   0.491   4.281   4.691
  360TCM     c1 1963   0.338   2.169   1.594
  360TCM    cl1 1964   0.249   2.025   1.533
  360TCM    cl2 1965   0.270   2.318   1.521
  360TCM     h1 1966   0.329   2.174   1.703
  360TCM    cl3 1967   0.510   2.153   1.548
  361TCM     c1 1968   4.420   0.630   3.980
  361TCM    cl1 1969   4.249   0.661   4.025
  361TCM    cl2 1970   4.484   0.495   4.078
  361TCM     h1 1971   4.426   0.605   3.874
  361TCM    cl3 1972   4.518   0.777   4.012
  362TCM     c1 1973   3.930   0.991   0.264
  362TCM    cl1 1974   3.999   0.829   0.296
  362TCM    cl2 1975   3.850   1.052   0.413
  362TCM     h1 1976   4.010   1.059   0.235
  362TCM    cl3 1977   3.809   0.979   0.132
  363TCM     c1 1978   1.995   1.447   3.450
  363TCM    cl1 1979   2.014   1.614   3.513
  363TCM    cl2 1980   1.950   1.455   3.276
  363TCM     h1 1981   2.089   1.393   3.461
  363TCM    cl3 1982   1.865   1.364   3.542
  364TCM     c1 1983   0.277   1.564   1.814
  364TCM    cl1 1984   0.099   1.547   1.794
  364TCM    cl2 1985   0.335   1.700   1.713
  364TCM     h1 1986   0.300   1.582   1.919
  364TCM    cl3 1987   0.358   1.412   1.762
  365TCM     c1 1988   1.573   0.389   3.237
  365TCM    cl1 1989   1.464   0.259   3.181
  365TCM    cl2 1990   1.509   0.547   3.180
  365TCM     h1 1991   1.579   0.388   3.346
  365TCM    cl3 1992   1.737   0.364   3.168
  366TCM     c1 1993   2.178   3.904   0.972
  366TCM    cl1 1994   2.309   3.969   0.869
  366TCM    cl2 1995   2.142   3.736   0.921
  366TCM     h1 1996   2.209   3.905   1.077
  366TCM    cl3 1997   2.031   4.005   0.952
  367TCM     c1 1998   3.377   1.548   4.173
  367TCM    cl1 1999   3.224   1.536   4.080
  367TCM    cl2 2000   3.516   1.556   4.059
  367TCM     h1 2001   3.376   1.638   4.235
  367TCM    cl3 2002   3.395   1.404   4.279
  368TCM     c1 2003   2.238   3.414   3.971
  368TCM    cl1 2004   2.207   3.240   4.002
  368TCM    cl2 2005   2.149   3.512   4.093
  368TCM     h1 2006   2.345   3.434   3.979
  368TCM    cl3 2007   2.181   3.458   3.807
  369TCM     c1 2008   2.959   0.264   4.566
  369TCM    cl1 2009   2.864   0.116   4.600
  369TCM    cl2 2010   3.029   0.327   4.719
  369TCM     h1 2011   3.039   0.242   4.496
  369TCM    cl3 2012   2.850   0.389   4.496
  370TCM     c1 2013   3.096   2.430   2.331
  370TCM    cl1 2014   3.200   2.505   2.456
  370TCM    cl2 2015   3.132   2.504   2.172
  370TCM     h1 2016   3.116   2.323   2.326
  370TCM    cl3 2017   2.924   2.458   2.372
  371TCM     c1 2018   4.878   4.127   0.772
  371TCM    cl1 2019   4.960   4.134   0.613
  371TCM    cl2 2020   4.994   4.173   0.902
  371TCM     h1 2021   4.794   4.197   0.773
  371TCM    cl3 2022   4.818   3.961   0.802
  372TCM     c1 2023   2.073   2.502   4.205
  372TCM    cl1 2024   1.951   2.614   4.137
  372TCM    cl2 2025   2.178   2.592   4.319
  372TCM     h1 2026   2.023   2.420   4.257
  372TCM    cl3 2027   2.174   2.437   4.071
  373TCM     c1 2028   2.583   4.048   4.182
  373TCM    cl1 2029   2.660   4.198   4.244
  373TCM    cl2 2030   2.478   3.980   4.311
  373TCM     h1 2031   2.523   4.071   4.094
  373TCM    cl3 2032   2.709   3.928   4.139
  374TCM     c1 2033   4.512   4.994   2.513
  374TCM    cl1 2034   4.529   4.849   2.617
  374TCM    cl2 2035   4.338   5.024   2.483
  374TCM     h1 2036   4.556   5.080   2.564
  374TCM    cl3 2037   4.596   4.966   2.357
  375TCM     c1 2038   1.936   3.347   2.039
  375TCM    cl1 2039   1.867   3.361   1.873
  375TCM    cl2 2040   2.104   3.287   2.027
  375TCM     h1 2041   1.935   3.445   2.087
  375TCM    cl3 2042   1.838   3.231   2.134
  376TCM     c1 2043   3.497   0.450   1.005
  376TCM    cl1 2044   3.532   0.404   1.175
  376TCM    cl2 2045   3.406   0.318   0.926
  376TCM     h1 2046   3.438   0.542   1.003
  376TCM    cl3 2047   3.651   0.476   0.916
  377TCM     c1 2048   0.154   3.527   3.033
  377TCM    cl1 2049   0.135   3.646   2.900
  377TCM    cl2 2050   0.042   3.390   3.005
  377TCM     h1 2051   0.257   3.491   3.036
  377TCM    cl3 2052   0.113   3.606   3.189
  378TCM     c1 2053   2.809   2.580   4.700
  378TCM    cl1 2054   2.929   2.534   4.825
  378TCM    cl2 2055   2.672   2.465   4.702
  378TCM     h1 2056   2.772   2.681   4.720
  378TCM    cl3 2057   2.887   2.577   4.539
  379TCM     c1 2058   2.396   0.329   0.247
  379TCM    cl1 2059   2.278   0.359   0.379
  379TCM    cl2 2060   2.561   0.374   0.301
  379TCM     h1 2061   2.394   0.223   0.220
  379TCM    cl3 2062   2.351   0.427   0.103
  380TCM     c1 2063   2.803   0.147   2.021
  380TCM    cl1 2064   2.809  -0.032   2.012
  380TCM    cl2 2065   2.954   0.211   2.095
  380TCM     h1 2066   2.792   0.188   1.921
  380TCM    cl3 2067   2.662   0.196   2.121
  381TCM     c1 2068   1.769   3.405   4.493
  381TCM    cl1 2069   1.601   3.404   4.429
  381TCM    cl2 2070   1.797   3.253   4.583
  381TCM     h1 2071   1.840   3.413   4.411
  381TCM    cl3 2072   1.790   3.546   4.603
  382TCM     c1 2073   0.719   2.474   0.574
  382TCM    cl1 2074   0.820   2.619   0.603
  382TCM    cl2 2075   0.572   2.519   0.482
  382TCM     h1 2076   0.776   2.400   0.517
  382TCM    cl3 2077   0.672   2.403   0.732
  383TCM     c1 2078   2.822   0.052   3.202
  383TCM    cl1 2079   2.915   0.174   3.110
  383TCM    cl2 2080   2.926  -0.092   3.229
  383TCM     h1 2081   2.791   0.094   3.298
  383TCM    cl3 2082   2.677   0.005   3.107
  384TCM     c1 2083   2.097   2.993   0.913
  384TCM    cl1 2084   2.089   2.964   0.736
  384TCM    cl2 2085   2.262   3.052   0.956
  384TCM     h1 2086   2.023   3.068   0.942
  384TCM    cl3 2087   2.064   2.839   0.998
  385TCM     c1 2088   3.065   4.923   4.035
  385TCM    cl1 2089   3.026   5.078   3.955
  385TCM    cl2 2090   2.914   4.829   4.063
  385TCM     h1 2091   3.133   4.865   3.972
  385TCM    cl3 2092   3.143   4.954   4.194
  386TCM     c1 2093   0.108   0.328   4.044
  386TCM    cl1 2094   0.251   0.233   4.096
  386TCM    cl2 2095  -0.029   0.291   4.153
  386TCM     h1 2096   0.131   0.435   4.049
  386TCM    cl3 2097   0.063   0.283   3.877
  387TCM     c1 2098   2.487   2.432   3.732
  387TCM    cl1 2099   2.615   2.532   3.810
  387TCM    cl2 2100   2.562   2.288   3.656
  387TCM     h1 2101   2.415   2.400   3.808
  387TCM    cl3 2102   2.404   2.530   3.607
  388TCM     c1 2103   0.850   1.244   0.038
  388TCM    cl1 2104   0.850   1.155  -0.117
  388TCM    cl2 2105   0.999   1.345   0.050
  388TCM     h1 2106   0.762   1.309   0.044
  388TCM    cl3 2107   0.848   1.127   0.174
  389TCM     c1 2108   4.709   2.965   1.934
  389TCM    cl1 2109   4.752   2.797   1.978
  389TCM    cl2 2110   4.784   3.079   2.050
  389TCM     h1 2111   4.745   2.987   1.833
  389TCM    cl3 2112   4.530   2.985   1.940
  390TCM     c1 2113   2.900   3.233   0.557
  390TCM    cl1 2114   2.864   3.405   0.591
  390TCM    cl2 2115   3.074   3.200   0.585
  390TCM     h1 2116   2.840   3.170   0.623
  390TCM    cl3 2117   2.858   3.198   0.386
  391TCM     c1 2118   2.710   4.553   1.412
  391TCM    cl1 2119   2.579   4.673   1.394
  391TCM    cl2 2120   2.688   4.423   1.291
  391TCM     h1 2121   2.807   4.602   1.396
  391TCM    cl3 2122   2.706   4.482   1.577
  392TCM     c1 2123   2.663   3.761   4.654
  392TCM    cl1 2124   2.757   3.787   4.504
  392TCM    cl2 2125   2.658   3.586   4.694
  392TCM     h1 2126   2.709   3.816   4.737
  392TCM    cl3 2127   2.495   3.818   4.629
  393TCM     c1 2128   3.947   3.766   2.447
  393TCM    cl1 2129   4.089   3.875   2.455
  393TCM    cl2 2130   3.926   3.685   2.606
  393TCM     h1 2131   3.857   3.823   2.422
  393TCM    cl3 2132   3.975   3.640   2.323
  394TCM     c1 2133   2.159   1.418   2.335
  394TCM    cl1 2134   2.224   1.293   2.447
  394TCM    cl2 2135   2.251   1.570   2.360
  394TCM     h1 2136   2.170   1.384   2.232
  394TCM    cl3 2137   1.986   1.445   2.371
  395TCM     c1 2138   0.144   2.219   0.489
  395TCM    cl1 2139   0.115   2.080   0.379
  395TCM    cl2 2140  -0.011   2.264   0.567
  395TCM     h1 2141   0.217   2.190   0.565
  395TCM    cl3 2142   0.205   2.359   0.395
  396TCM     c1 2143   4.103   0.371   2.978
  396TCM    cl1 2144   4.060   0.368   3.152
  396TCM    cl2 2145   4.125   0.541   2.926
  396TCM     h1 2146   4.196   0.315   2.963
  396TCM    cl3 2147   3.971   0.297   2.882
  397TCM     c1 2148   0.015   2.094   0.035
  397TCM    cl1 2149   0.113   1.945   0.018
  397TCM    cl2 2150  -0.116   2.094  -0.088
  397TCM     h1 2151  -0.029   2.098   0.135
  397TCM    cl3 2152   0.121   2.237   0.009
  398TCM     c1 2153   3.417   0.875   1.078
  398TCM    cl1 2154   3.389   0.812   0.913
  398TCM    cl2 2155   3.472   1.046   1.069
  398TCM     h1 2156   3.324   0.870   1.136
  398TCM    cl3 2157   3.543   0.775   1.158
  399TCM     c1 2158   2.794   4.183   4.671
  399TCM    cl1 2159   2.785   4.346   4.745
  399TCM    cl2 2160   2.635   4.143   4.599
  399TCM     h1 2161   2.871   4.181   4.594
  399TCM    cl3 2162   2.832   4.062   4.797
  400TCM     c1 2163   1.435   0.131   0.488
  400TCM    cl1 2164   1.598   0.098   0.554
  400TCM    cl2 2165   1.322   0.001   0.539
  400TCM     h1 2166   1.399   0.227   0.525
  400TCM    cl3 2167   1.444   0.135   0.309
  401TCM     c1 2168   1.526   3.032   4.497
  401TCM    cl1 2169   1.581   2.881   4.577
  401TCM    cl2 2170   1.347   3.038   4.495
  401TCM     h1 2171   1.564   3.119   4.552
  401TCM    cl3 2172   1.587   3.036   4.328
  402TCM     c1 2173   1.085   2.219   2.256
  402TCM    cl1 2174   1.076   2.220   2.435
  402TCM    cl2 2175   1.060   2.052   2.197
  402TCM     h1 2176   1.008   2.284   2.215
  402TCM    cl3 2177   1.247   2.279   2.206
  403TCM     c1 2178   1.162   1.187   0.526
  403TCM    cl1 2179   1.107   1.305   0.403
  403TCM    cl2 2180   1.342   1.184   0.529
  403TCM     h1 2181   1.125   1.216   0.624
  403TCM    cl3 2182   1.100   1.024   0.483
  404TCM     c1 2183   0.483   0.289   3.287
  404TCM    cl1 2184   0.573   0.302   3.442
  404TCM    cl2 2185   0.433   0.453   3.234
  404TCM     h1 2186   0.547   0.244   3.211
  404TCM    cl3 2187   0.338   0.186   3.311
  405TCM     c1 2188   2.654   3.505   0.298
  405TCM    cl1 2189   2.739   3.652   0.355
  405TCM    cl2 2190   2.712   3.462   0.134
  405TCM     h1 2191   2.673   3.423   0.367
  405TCM    cl3 2192   2.477   3.539   0.293
  406TCM     c1 2193   0.222   1.723   0.770
  406TCM    cl1 2194   0.365   1.747   0.876
  406TCM    cl2 2195   0.229   1.841   0.635
  406TCM     h1 2196   0.222   1.622   0.730
  406TCM    cl3 2197   0.072   1.750   0.864
  407TCM     c1 2198   3.139   4.543   4.106
  407TCM    cl1 2199   3.186   4.582   3.937
  407TCM    cl2 2200   3.275   4.582   4.215
  407TCM     h1 2201   3.052   4.602   4.134
  407TCM    cl3 2202   3.100   4.368   4.118
  408TCM     c1 2203   0.503   3.207   3.301
  408TCM    cl1 2204   0.548   3.036   3.272
  408TCM    cl2 2205   0.381   3.258   3.180
  408TCM     h1 2206   0.462   3.217   3.402
  408TCM    cl3 2207   0.649   3.311   3.286
  409TCM     c1 2208   2.915   0.519   1.873
  409TCM    cl1 2209   2.933   0.674   1.785
  409TCM    cl2 2210   2.960   0.383   1.765
  409TCM     h1 2211   2.980   0.519   1.961
  409TCM    cl3 2212   2.744   0.499   1.923
  410TCM     c1 2213   4.816   4.611   4.192
  410TCM    cl1 2214   4.788   4.663   4.022
  410TCM    cl2 2215   4.851   4.435   4.195
  410TCM     h1 2216   4.902   4.666   4.233
  410TCM    cl3 2217   4.670   4.646   4.290
  411TCM     c1 2218   3.864   0.828   1.858
  411TCM    cl1 2219   3.884   0.659   1.802
  411TCM    cl2 2220   3.839   0.936   1.717
  411TCM     h1 2221   3.777   0.834   1.924
  411TCM    cl3 2222   4.011   0.880   1.947
  412TCM     c1 2223   2.527   4.716   2.114
  412TCM    cl1 2224   2.674   4.708   2.216
  412TCM    cl2 2225   2.384   4.750   2.217
  412TCM     h1 2226   2.538   4.794   2.039
  412TCM    cl3 2227   2.505   4.557   2.034
  413TCM     c1 2228   2.157   2.585   0.710
  413TCM    cl1 2229   2.108   2.431   0.790
  413TCM    cl2 2230   2.053   2.612   0.566
  413TCM     h1 2231   2.145   2.668   0.780
  413TCM    cl3 2232   2.328   2.572   0.657
  414TCM     c1 2233   2.235   4.543   0.377
  414TCM    cl1 2234   2.077   4.626   0.392
  414TCM    cl2 2235   2.367   4.662   0.405
  414TCM     h1 2236   2.242   4.463   0.451
  414TCM    cl3 2237   2.251   4.475   0.212
  415TCM     c1 2238   3.618   0.977   2.310
  415TCM    cl1 2239   3.722   0.954   2.166
  415TCM    cl2 2240   3.664   0.856   2.433
  415TCM     h1 2241   3.632   1.078   2.349
  415TCM    cl3 2242   3.446   0.954   2.263
  416TCM     c1 2243   3.512   3.841   0.586
  416TCM    cl1 2244   3.505   3.718   0.456
  416TCM    cl2 2245   3.609   3.779   0.723
  416TCM     h1 2246   3.557   3.933   0.547
  416TCM    cl3 2247   3.345   3.877   0.643
  417TCM     c1 2248   1.914   3.890   1.917
  417TCM    cl1 2249   2.062   3.957   1.843
  417TCM    cl2 2250   1.823   3.797   1.792
  417TCM     h1 2251   1.940   3.824   2.000
  417TCM    cl3 2252   1.813   4.026   1.976
  418TCM     c1 2253   4.917   2.595   2.840
  418TCM    cl1 2254   5.008   2.646   2.986
  418TCM    cl2 2255   4.923   2.416   2.826
  418TCM     h1 2256   4.813   2.627   2.849
  418TCM    cl3 2257   4.991   2.668   2.694
  419TCM     c1 2258   1.508   0.852   2.133
  419TCM    cl1 2259   1.499   1.029   2.159
  419TCM    cl2 2260   1.345   0.791   2.089
  419TCM     h1 2261   1.579   0.831   2.052
  419TCM    cl3 2262   1.565   0.772   2.283
  420TCM     c1 2263   1.095   4.113   0.199
  420TCM    cl1 2264   1.052   4.053   0.036
  420TCM    cl2 2265   0.985   4.248   0.244
  420TCM     h1 2266   1.086   4.032   0.272
  420TCM    cl3 2267   1.265   4.172   0.198
  421TCM     c1 2268   3.147   2.595   0.715
  421TCM    cl1 2269   3.043   2.689   0.603
  421TCM    cl2 2270   3.196   2.441   0.636
  421TCM     h1 2271   3.236   2.654   0.739
  421TCM    cl3 2272   3.056   2.559   0.865
  422TCM     c1 2273   0.750   1.706   2.442
  422TCM    cl1 2274   0.738   1.883   2.416
  422TCM    cl2 2275   0.667   1.620   2.308
  422TCM     h1 2276   0.855   1.677   2.445
  422TCM    cl3 2277   0.671   1.661   2.597
  423TCM     c1 2278   2.434   0.356   4.542
  423TCM    cl1 2279   2.523   0.237   4.442
  423TCM    cl2 2280   2.509   0.362   4.705
  423TCM     h1 2281   2.439   0.455   4.495
  423TCM    cl3 2282   2.262   0.305   4.556
  424TCM     c1 2283   0.456   4.176   3.806
  424TCM    cl1 2284   0.451   4.252   3.968
  424TCM    cl2 2285   0.339   4.041   3.799
  424TCM     h1 2286   0.432   4.251   3.730
  424TCM    cl3 2287   0.622   4.113   3.776
  425TCM     c1 2288   4.958   3.920   1.250
  425TCM    cl1 2289   5.003   4.090   1.284
  425TCM    cl2 2290   4.991   3.818   1.394
  425TCM     h1 2291   4.851   3.915   1.226
  425TCM    cl3 2292   5.053   3.860   1.110
  426TCM     c1 2293   2.558   2.101   0.297
  426TCM    cl1 2294   2.463   2.117   0.145
  426TCM    cl2 2295   2.615   2.262   0.348
  426TCM     h1 2296   2.495   2.057   0.375
  426TCM    cl3 2297   2.700   1.995   0.268
  427TCM     c1 2298   3.394   2.191   2.140
  427TCM    cl1 2299   3.439   2.337   2.045
  427TCM    cl2 2300   3.224   2.146   2.105
  427TCM     h1 2301   3.460   2.108   2.113
  427TCM    cl3 2302   3.412   2.227   2.314
  428TCM     c1 2303   4.065   1.048   4.864
  428TCM    cl1 2304   4.058   1.187   4.977
  428TCM    cl2 2305   4.137   0.907   4.949
  428TCM     h1 2306   3.964   1.023   4.830
  428TCM    cl3 2307   4.168   1.091   4.723
  429TCM     c1 2308   0.819   1.756   4.313
  429TCM    cl1 2309   0.724   1.815   4.453
  429TCM    cl2 2310   0.872   1.587   4.346
  429TCM     h1 2311   0.757   1.758   4.223
  429TCM    cl3 2312   0.963   1.860   4.291
  430TCM     c1 2313   0.380   0.151   2.043
  430TCM    cl1 2314   0.465   0.033   1.937
  430TCM    cl2 2315   0.440   0.132   2.211
  430TCM     h1 2316   0.399   0.253   2.008
  430TCM    cl3 2317   0.204   0.117   2.038
  431TCM     c1 2318   3.689   0.113   0.825
  431TCM    cl1 2319   3.735   0.118   0.999
  431TCM    cl2 2320   3.564  -0.013   0.799
  431TCM     h1 2321   3.649   0.211   0.795
  431TCM    cl3 2322   3.834   0.075   0.726
  432TCM     c1 2323   2.926   1.753   3.581
  432TCM    cl1 2324   3.036   1.756   3.723
  432TCM    cl2 2325   2.759   1.714   3.636
  432TCM     h1 2326   2.927   1.851   3.532
  432TCM    cl3 2327   2.980   1.627   3.466
  433TCM     c1 2328   3.549   2.585   3.707
  433TCM    cl1 2329   3.681   2.694   3.760
  433TCM    cl2 2330   3.587   2.417   3.757
  433TCM     h1 2331   3.455   2.617   3.753
  433TCM    cl3 2332   3.534   2.593   3.529
  434TCM     c1 2333   3.125   4.162   1.668
  434TCM    cl1 2334   2.985   4.250   1.738
  434TCM    cl2 2335   3.114   4.164   1.489
  434TCM     h1 2336   3.218   4.210   1.700
  434TCM    cl3 2337   3.123   3.992   1.725
  435TCM     c1 2338   0.483   1.017   3.985
  435TCM    cl1 2339   0.633   0.935   4.041
  435TCM    cl2 2340   0.404   0.916   3.860
  435TCM     h1 2341   0.415   1.031   4.069
  435TCM    cl3 2342   0.525   1.176   3.915
  436TCM     c1 2343   0.581   1.821   1.433
  436TCM    cl1 2344   0.751   1.875   1.427
  436TCM    cl2 2345   0.576   1.642   1.450
  436TCM     h1 2346   0.530   1.867   1.518
  436TCM    cl3 2347   0.497   1.867   1.281
  437TCM     c1 2348   0.367   2.562   1.159
  437TCM    cl1 2349   0.494   2.479   1.063
  437TCM    cl2 2350   0.206   2.527   1.089
  437TCM     h1 2351   0.371   2.526   1.263
  437TCM    cl3 2352   0.396   2.739   1.155
  438TCM     c1 2353   1.004   3.194   4.915
  438TCM    cl1 2354   0.872   3.308   4.873
  438TCM    cl2 2355   1.133   3.283   5.003
  438TCM     h1 2356   0.965   3.114   4.978
  438TCM    cl3 2357   1.073   3.125   4.764
  439TCM     c1 2358   3.564   1.123   1.412
  439TCM    cl1 2359   3.438   0.998   1.437
  439TCM    cl2 2360   3.723   1.044   1.385
  439TCM     h1 2361   3.539   1.184   1.325
  439TCM    cl3 2362   3.574   1.228   1.558
  440TCM     c1 2363   3.642   1.652   4.553
  440TCM    cl1 2364   3.719   1.495   4.510
  440TCM    cl2 2365   3.499   1.621   4.658
  440TCM     h1 2366   3.713   1.715   4.605
  440TCM    cl3 2367   3.587   1.734   4.403
  441TCM     c1 2368   0.559   3.931   4.240
  441TCM    cl1 2369   0.403   3.930   4.151
  441TCM    cl2 2370   0.678   4.031   4.151
  441TCM     h1 2371   0.543   3.973   4.340
  441TCM    cl3 2372   0.621   3.763   4.254
  442TCM     c1 2373   3.414   3.112   0.054
  442TCM    cl1 2374   3.410   3.014  -0.096
  442TCM    cl2 2375   3.280   3.061   0.162
  442TCM     h1 2376   3.509   3.097   0.105
  442TCM    cl3 2377   3.393   3.285   0.011
  443TCM     c1 2378   0.942   2.296   1.422
  443TCM    cl1 2379   0.884   2.184   1.550
  443TCM    cl2 2380   1.074   2.216   1.331
  443TCM     h1 2381   0.859   2.319   1.355
  443TCM    cl3 2382   1.003   2.448   1.497
  444TCM     c1 2383   4.377   0.005   0.035
  444TCM    cl1 2384   4.262   0.137   0.077
  444TCM    cl2 2385   4.538   0.076  -0.001
  444TCM     h1 2386   4.386  -0.064   0.119
  444TCM    cl3 2387   4.318  -0.082  -0.109
  445TCM     c1 2388   4.454   1.047   0.146
  445TCM    cl1 2389   4.427   1.135  -0.008
  445TCM    cl2 2390   4.311   1.068   0.252
  445TCM     h1 2391   4.470   0.941   0.125
  445TCM    cl3 2392   4.600   1.115   0.226
  446TCM     c1 2393   3.148   0.517   3.343
  446TCM    cl1 2394   3.026   0.497   3.214
  446TCM    cl2 2395   3.084   0.627   3.470
  446TCM     h1 2396   3.172   0.420   3.387
  446TCM    cl3 2397   3.296   0.589   3.273
  447TCM     c1 2398   4.316   1.427   4.789
  447TCM    cl1 2399   4.466   1.509   4.843
  447TCM    cl2 2400   4.297   1.446   4.612
  447TCM     h1 2401   4.321   1.321   4.814
  447TCM    cl3 2402   4.175   1.501   4.871
  448TCM     c1 2403   0.078   2.010   3.441
  448TCM    cl1 2404  -0.065   1.928   3.370
  448TCM    cl2 2405   0.052   2.188   3.437
  448TCM     h1 2406   0.092   1.977   3.544
  448TCM    cl3 2407   0.224   1.969   3.345
  449TCM     c1 2408   4.910   4.641   3.634
  449TCM    cl1 2409   4.969   4.605   3.468
  449TCM    cl2 2410   5.051   4.670   3.741
  449TCM     h1 2411   4.847   4.731   3.632
  449TCM    cl3 2412   4.815   4.502   3.694
  450TCM     c1 2413   3.449   0.323   3.626
  450TCM    cl1 2414   3.291   0.399   3.665
  450TCM    cl2 2415   3.489   0.357   3.454
  450TCM     h1 2416   3.527   0.366   3.690
  450TCM    cl3 2417   3.440   0.146   3.653
  451TCM     c1 2418   3.789   3.522   1.462
  451TCM    cl1 2419   3.956   3.527   1.524
  451TCM    cl2 2420   3.674   3.514   1.600
  451TCM     h1 2421   3.769   3.612   1.403
  451TCM    cl3 2422   3.768   3.377   1.358
  452TCM     c1 2423   0.638   4.937   1.067
  452TCM    cl1 2424   0.703   4.853   1.212
  452TCM    cl2 2425   0.660   4.832   0.923
  452TCM     h1 2426   0.532   4.957   1.082
  452TCM    cl3 2427   0.726   5.091   1.043
  453TCM     c1 2428   2.205   3.677   3.502
  453TCM    cl1 2429   2.366   3.598   3.508
  453TCM    cl2 2430   2.103   3.596   3.379
  453TCM     h1 2431   2.157   3.669   3.600
  453TCM    cl3 2432   2.225   3.851   3.459
  454TCM     c1 2433   4.514   3.712   1.036
  454TCM    cl1 2434   4.444   3.552   1.078
  454TCM    cl2 2435   4.666   3.735   1.128
  454TCM     h1 2436   4.535   3.716   0.929
  454TCM    cl3 2437   4.397   3.841   1.079
  455TCM     c1 2438   3.122   4.004   4.419
  455TCM    cl1 2439   2.962   4.051   4.354
  455TCM    cl2 2440   3.136   3.826   4.424
  455TCM     h1 2441   3.201   4.046   4.355
  455TCM    cl3 2442   3.138   4.069   4.585
  456TCM     c1 2443   1.729   1.782   4.981
  456TCM    cl1 2444   1.723   1.605   4.951
  456TCM    cl2 2445   1.841   1.858   4.863
  456TCM     h1 2446   1.629   1.824   4.970
  456TCM    cl3 2447   1.789   1.812   5.148
  457TCM     c1 2448   1.539   3.061   1.881
  457TCM    cl1 2449   1.678   3.058   1.768
  457TCM    cl2 2450   1.589   2.988   2.038
  457TCM     h1 2451   1.507   3.164   1.898
  457TCM    cl3 2452   1.403   2.966   1.811
  458TCM     c1 2453   2.027   4.682   1.559
  458TCM    cl1 2454   2.121   4.833   1.529
  458TCM    cl2 2455   1.893   4.672   1.441
  458TCM     h1 2456   2.093   4.595   1.547
  458TCM    cl3 2457   1.961   4.685   1.726
  459TCM     c1 2458   3.953   4.011   3.530
  459TCM    cl1 2459   3.924   4.177   3.470
  459TCM    cl2 2460   3.975   4.015   3.708
  459TCM     h1 2461   3.868   3.947   3.505
  459TCM    cl3 2462   4.102   3.945   3.453
  460TCM     c1 2463   0.624   0.928   3.520
  460TCM    cl1 2464   0.484   1.041   3.515
  460TCM    cl2 2465   0.564   0.761   3.546
  460TCM     h1 2466   0.679   0.934   3.426
  460TCM    cl3 2467   0.731   0.975   3.657
  461TCM     c1 2468   1.590   4.276   0.392
  461TCM    cl1 2469   1.720   4.396   0.424
  461TCM    cl2 2470   1.453   4.307   0.504
  461TCM     h1 2471   1.555   4.286   0.289
  461TCM    cl3 2472   1.654   4.111   0.419
  462TCM     c1 2473   3.210   4.835   0.066
  462TCM    cl1 2474   3.051   4.874   0.140
  462TCM    cl2 2475   3.219   4.660   0.031
  462TCM     h1 2476   3.222   4.891  -0.027
  462TCM    cl3 2477   3.341   4.877   0.180
  463TCM     c1 2478   3.643   0.568   3.145
  463TCM    cl1 2479   3.550   0.658   3.020
  463TCM    cl2 2480   3.804   0.643   3.165
  463TCM     h1 2481   3.589   0.570   3.240
  463TCM    cl3 2482   3.664   0.397   3.093
  464TCM     c1 2483   4.971   4.215   3.851
  464TCM    cl1 2484   4.987   4.162   3.680
  464TCM    cl2 2485   5.099   4.335   3.887
  464TCM     h1 2486   4.873   4.260   3.866
  464TCM    cl3 2487   4.989   4.073   3.959
  465TCM     c1 2488   4.206   1.462   0.326
  465TCM    cl1 2489   4.129   1.623   0.312
  465TCM    cl2 2490   4.320   1.438   0.190
  465TCM     h1 2491   4.260   1.456   0.421
  465TCM    cl3 2492   4.079   1.336   0.320
  466TCM     c1 2493   0.531   0.434   2.585
  466TCM    cl1 2494   0.618   0.525   2.458
  466TCM    cl2 2495   0.393   0.347   2.511
  466TCM     h1 2496   0.599   0.362   2.632
  466TCM    cl3 2497   0.470   0.548   2.710
  467TCM     c1 2498   0.384   1.907   2.092
  467TCM    cl1 2499   0.449   1.743   2.060
  467TCM    cl2 2500   0.316   1.976   1.941
  467TCM     h1 2501   0.306   1.902   2.168
  467TCM    cl3 2502   0.518   2.011   2.151
  468TCM     c1 2503   3.603   2.111   1.694
  468TCM    cl1 2504   3.560   2.285   1.684
  468TCM    cl2 2505   3.484   2.014   1.601
  468TCM     h1 2506   3.703   2.095   1.653
  468TCM    cl3 2507   3.600   2.061   1.867
  469TCM     c1 2508   2.647   0.654   4.114
  469TCM    cl1 2509   2.550   0.558   3.998
  469TCM    cl2 2510   2.608   0.600   4.281
  469TCM     h1 2511   2.753   0.639   4.094
  469TCM    cl3 2512   2.606   0.828   4.096
  470TCM     c1 2513   4.525   2.231   4.780
  470TCM    cl1 2514   4.586   2.344   4.906
  470TCM    cl2 2515   4.497   2.070   4.854
  470TCM     h1 2516   4.432   2.269   4.739
  470TCM    cl3 2517   4.647   2.217   4.649
  471TCM     c1 2518   3.826   0.627   2.743
  471TCM    cl1 2519   3.664   0.585   2.680
  471TCM    cl2 2520   3.822   0.792   2.813
  471TCM     h1 2521   3.855   0.556   2.821
  471TCM    cl3 2522   3.946   0.623   2.610
  472TCM     c1 2523   3.034   1.714   3.129
  472TCM    cl1 2524   3.037   1.698   2.950
  472TCM    cl2 2525   2.957   1.869   3.174
  472TCM     h1 2526   2.978   1.631   3.172
  472TCM    cl3 2527   3.202   1.711   3.192
  473TCM     c1 2528   3.638   1.524   1.263
  473TCM    cl1 2529   3.638   1.629   1.408
  473TCM    cl2 2530   3.479   1.441   1.250
  473TCM     h1 2531   3.655   1.584   1.174
  473TCM    cl3 2532   3.768   1.401   1.278
  474TCM     c1 2533   0.292   3.202   1.452
  474TCM    cl1 2534   0.114   3.188   1.433
  474TCM    cl2 2535   0.373   3.071   1.360
  474TCM     h1 2536   0.326   3.299   1.414
  474TCM    cl3 2537   0.334   3.188   1.626
  475TCM     c1 2538   2.553   3.621   4.259
  475TCM    cl1 2539   2.392   3.630   4.336
  475TCM    cl2 2540   2.533   3.598   4.082
  475TCM     h1 2541   2.608   3.714   4.277
  475TCM    cl3 2542   2.645   3.483   4.327
  476TCM     c1 2543   1.575   1.307   1.944
  476TCM    cl1 2544   1.703   1.322   2.069
  476TCM    cl2 2545   1.650   1.302   1.781
  476TCM     h1 2546   1.518   1.215   1.961
  476TCM    cl3 2547   1.465   1.448   1.953
  477TCM     c1 2548   4.712   2.307   0.292
  477TCM    cl1 2549   4.856   2.378   0.210
  477TCM    cl2 2550   4.680   2.145   0.222
  477TCM     h1 2551   4.732   2.298   0.399
  477TCM    cl3 2552   4.570   2.412   0.264
  478TCM     c1 2553   2.981   4.403   3.434
  478TCM    cl1 2554   2.876   4.539   3.381
  478TCM    cl2 2555   2.881   4.279   3.517
  478TCM     h1 2556   3.030   4.359   3.347
  478TCM    cl3 2557   3.105   4.465   3.548
  479TCM     c1 2558   0.092   3.597   0.018
  479TCM    cl1 2559   0.012   3.511   0.154
  479TCM    cl2 2560   0.073   3.774   0.040
  479TCM     h1 2561   0.198   3.571   0.016
  479TCM    cl3 2562   0.014   3.548  -0.136
  480TCM     c1 2563   1.181   2.518   2.783
  480TCM    cl1 2564   1.152   2.656   2.894
  480TCM    cl2 2565   1.025   2.462   2.716
  480TCM     h1 2566   1.246   2.551   2.701
  480TCM    cl3 2567   1.261   2.384   2.872
  481TCM     c1 2568   2.397   2.665   1.138
  481TCM    cl1 2569   2.431   2.723   0.972
  481TCM    cl2 2570   2.257   2.553   1.134
  481TCM     h1 2571   2.484   2.613   1.178
  481TCM    cl3 2572   2.359   2.807   1.243
  482TCM     c1 2573   4.930   3.321   3.527
  482TCM    cl1 2574   4.963   3.314   3.351
  482TCM    cl2 2575   4.773   3.241   3.559
  482TCM     h1 2576   5.009   3.270   3.582
  482TCM    cl3 2577   4.922   3.493   3.579
  483TCM     c1 2578   2.385   4.764   2.994
  483TCM    cl1 2579   2.464   4.662   3.119
  483TCM    cl2 2580   2.207   4.760   3.017
  483TCM     h1 2581   2.421   4.867   3.002
  483TCM    cl3 2582   2.423   4.699   2.831
  484TCM     c1 2583   4.996   2.579   3.963
  484TCM    cl1 2584   5.157   2.644   3.919
  484TCM    cl2 2585   4.875   2.711   3.956
  484TCM     h1 2586   4.968   2.500   3.893
  484TCM    cl3 2587   5.002   2.512   4.129
  485TCM     c1 2588   2.569   2.023   3.350
  485TCM    cl1 2589   2.491   1.880   3.424
  485TCM    cl2 2590   2.576   2.001   3.172
  485TCM     h1 2591   2.512   2.114   3.373
  485TCM    cl3 2592   2.736   2.038   3.415
  486TCM     c1 2593   1.891   0.420   3.671
  486TCM    cl1 2594   1.893   0.316   3.817
  486TCM    cl2 2595   1.895   0.593   3.719
  486TCM     h1 2596   1.979   0.397   3.610
  486TCM    cl3 2597   1.742   0.388   3.576
  487TCM     c1 2598   0.931   4.964   0.600
  487TCM    cl1 2599   0.842   5.080   0.703
  487TCM    cl2 2600   0.975   5.044   0.445
  487TCM     h1 2601   1.022   4.932   0.651
  487TCM    cl3 2602   0.827   4.822   0.566
  488TCM     c1 2603   3.922   0.927   3.433
  488TCM    cl1 2604   3.795   1.039   3.492
  488TCM    cl2 2605   3.903   0.768   3.513
  488TCM     h1 2606   3.913   0.915   3.324
  488TCM    cl3 2607   4.083   0.995   3.473
  489TCM     c1 2608   3.270   4.665   3.173
  489TCM    cl1 2609   3.155   4.534   3.131
  489TCM    cl2 2610   3.226   4.734   3.333
  489TCM     h1 2611   3.371   4.626   3.176
  489TCM    cl3 2612   3.259   4.795   3.049
  490TCM     c1 2613   2.249   2.105   2.944
  490TCM    cl1 2614   2.091   2.153   2.875
  490TCM    cl2 2615   2.262   2.169   3.111
  490TCM     h1 2616   2.257   1.996   2.945
  490TCM    cl3 2617   2.382   2.174   2.844
  491TCM     c1 2618   1.433   0.481   0.023
  491TCM    cl1 2619   1.584   0.437   0.109
  491TCM    cl2 2620   1.410   0.659   0.030
  491TCM     h1 2621   1.439   0.448  -0.081
  491TCM    cl3 2622   1.294   0.401   0.104
  492TCM     c1 2623   2.178   4.307   4.024
  492TCM    cl1 2624   2.063   4.261   3.894
  492TCM    cl2 2625   2.203   4.484   4.024
  492TCM     h1 2626   2.138   4.275   4.121
  492TCM    cl3 2627   2.335   4.225   3.995
  493TCM     c1 2628   0.749   3.656   4.860
  493TCM    cl1 2629   0.707   3.648   4.686
  493TCM    cl2 2630   0.625   3.567   4.955
  493TCM     h1 2631   0.847   3.610   4.876
  493TCM    cl3 2632   0.753   3.827   4.912
  494TCM     c1 2633   0.222   2.819   1.767
  494TCM    cl1 2634   0.197   2.837   1.590
  494TCM    cl2 2635   0.093   2.908   1.854
  494TCM     h1 2636   0.219   2.713   1.793
  494TCM    cl3 2637   0.383   2.886   1.813
  495TCM     c1 2638   3.254   0.953   3.309
  495TCM    cl1 2639   3.345   1.096   3.366
  495TCM    cl2 2640   3.295   0.923   3.137
  495TCM     h1 2641   3.279   0.865   3.369
  495TCM    cl3 2642   3.078   0.985   3.323
  496TCM     c1 2643   0.107   1.167   1.755
  496TCM    cl1 2644   0.247   1.057   1.731
  496TCM    cl2 2645   0.090   1.206   1.929
  496TCM     h1 2646   0.123   1.258   1.698
  496TCM    cl3 2647  -0.043   1.086   1.698
  497TCM     c1 2648   1.528   4.969   1.050
  497TCM    cl1 2649   1.478   4.935   0.881
  497TCM    cl2 2650   1.484   4.829   1.153
  497TCM     h1 2651   1.636   4.985   1.054
  497TCM    cl3 2652   1.442   5.115   1.109
  498TCM     c1 2653   2.695   2.855   3.566
  498TCM    cl1 2654   2.839   2.828   3.669
  498TCM    cl2 2655   2.730   2.986   3.448
  498TCM     h1 2656   2.671   2.763   3.513
  498TCM    cl3 2657   2.556   2.904   3.668
  499TCM     c1 2658   0.189   3.007   1.022
  499TCM    cl1 2659   0.107   2.932   0.882
  499TCM    cl2 2660   0.102   3.156   1.071
  499TCM     h1 2661   0.191   2.937   1.106
  499TCM    cl3 2662   0.357   3.051   0.975
  500TCM     c1 2663   1.786   0.111   0.138
  500TCM    cl1 2664   1.780  -0.042   0.231
  500TCM    cl2 2665   1.853   0.079  -0.025
  500TCM     h1 2666   1.685   0.153   0.130
  500TCM    cl3 2667   1.891   0.229   0.224
  501TCM     c1 2668   0.878   1.506   2.859
  501TCM    cl1 2669   0.954   1.347   2.890
  501TCM    cl2 2670   0.999   1.620   2.792
  501TCM     h1 2671   0.796   1.494   2.787
  501TCM    cl3 2672   0.812   1.572   3.013
  502TCM     c1 2673   2.692   3.410   2.199
  502TCM    cl1 2674   2.771   3.284   2.099
  502TCM    cl2 2675   2.771   3.416   2.360
  502TCM     h1 2676   2.701   3.508   2.150
  502TCM    cl3 2677   2.518   3.369   2.220
  503TCM     c1 2678   1.551   0.455   2.669
  503TCM    cl1 2679   1.409   0.369   2.601
  503TCM    cl2 2680   1.564   0.420   2.844
  503TCM     h1 2681   1.643   0.423   2.618
  503TCM    cl3 2682   1.530   0.632   2.647
  504TCM     c1 2683   4.951   4.921   2.613
  504TCM    cl1 2684   4.942   4.834   2.455
  504TCM    cl2 2685   4.884   4.817   2.743
  504TCM     h1 2686   5.055   4.945   2.635
  504TCM    cl3 2687   4.854   5.071   2.602
  505TCM     c1 2688   2.460   3.874   3.112
  505TCM    cl1 2689   2.350   3.930   2.981
  505TCM    cl2 2690   2.629   3.867   3.050
  505TCM     h1 2691   2.455   3.941   3.197
  505TCM    cl3 2692   2.410   3.709   3.161
  506TCM     c1 2693   0.340   4.690   4.841
  506TCM    cl1 2694   0.183   4.759   4.789
  506TCM    cl2 2695   0.316   4.522   4.900
  506TCM     h1 2696   0.410   4.689   4.757
  506TCM    cl3 2697   0.408   4.790   4.973
  507TCM     c1 2698   1.579   4.086   4.879
  507TCM    cl1 2699   1.403   4.053   4.866
  507TCM    cl2 2700   1.668   3.930   4.877
  507TCM     h1 2701   1.611   4.148   4.795
  507TCM    cl3 2702   1.611   4.170   5.034
  508TCM     c1 2703   0.460   1.643   3.174
  508TCM    cl1 2704   0.311   1.598   3.085
  508TCM    cl2 2705   0.427   1.646   3.350
  508TCM     h1 2706   0.539   1.569   3.153
  508TCM    cl3 2707   0.514   1.805   3.119
  509TCM     c1 2708   4.524   4.911   4.500
  509TCM    cl1 2709   4.535   5.045   4.619
  509TCM    cl2 2710   4.435   4.966   4.354
  509TCM     h1 2711   4.624   4.878   4.472
  509TCM    cl3 2712   4.435   4.773   4.574
  510TCM     c1 2713   4.179   2.314   2.368
  510TCM    cl1 2714   4.177   2.136   2.344
  510TCM    cl2 2715   4.347   2.376   2.350
  510TCM     h1 2716   4.115   2.362   2.293
  510TCM    cl3 2717   4.119   2.353   2.532
  511TCM     c1 2718   3.263   4.561   1.728
  511TCM    cl1 2719   3.273   4.483   1.568
  511TCM    cl2 2720   3.381   4.696   1.736
  511TCM     h1 2721   3.162   4.600   1.744
  511TCM    cl3 2722   3.300   4.441   1.856
  512TCM     c1 2723   0.076   4.931   0.677
  512TCM    cl1 2724   0.125   5.100   0.643
  512TCM    cl2 2725  -0.098   4.931   0.719
  512TCM     h1 2726   0.093   4.869   0.589
  512TCM    cl3 2727   0.170   4.868   0.816
  513TCM     c1 2728   3.906   4.925   0.004
  513TCM    cl1 2729   4.031   4.837   0.098
  513TCM    cl2 2730   3.947   4.919  -0.170
  513TCM     h1 2731   3.809   4.877   0.020
  513TCM    cl3 2732   3.898   5.096   0.058
  514TCM     c1 2733   0.838   0.108   2.264
  514TCM    cl1 2734   0.762   0.210   2.390
  514TCM    cl2 2735   0.795   0.170   2.101
  514TCM     h1 2736   0.946   0.108   2.277
  514TCM    cl3 2737   0.776  -0.060   2.281
  515TCM     c1 2738   2.571   4.819   4.238
  515TCM    cl1 2739   2.478   4.967   4.198
  515TCM    cl2 2740   2.468   4.676   4.203
  515TCM     h1 2741   2.661   4.815   4.176
  515TCM    cl3 2742   2.615   4.821   4.412
  516TCM     c1 2743   4.272   3.755   1.502
  516TCM    cl1 2744   4.156   3.787   1.369
  516TCM    cl2 2745   4.250   3.877   1.631
  516TCM     h1 2746   4.255   3.655   1.543
  516TCM    cl3 2747   4.440   3.764   1.438
  517TCM     c1 2748   3.006   3.562   4.787
  517TCM    cl1 2749   3.159   3.517   4.870
  517TCM    cl2 2750   3.005   3.489   4.623
  517TCM     h1 2751   2.921   3.526   4.845
  517TCM    cl3 2752   2.998   3.741   4.771
  518TCM     c1 2753   2.748   0.266   4.159
  518TCM    cl1 2754   2.810   0.121   4.244
  518TCM    cl2 2755   2.676   0.217   4.003
  518TCM     h1 2756   2.672   0.315   4.221
  518TCM    cl3 2757   2.883   0.380   4.129
  519TCM     c1 2758   3.388   3.240   1.527
  519TCM    cl1 2759   3.395   3.350   1.385
  519TCM    cl2 2760   3.362   3.336   1.676
  519TCM     h1 2761   3.306   3.169   1.514
  519TCM    cl3 2762   3.543   3.150   1.539
  520TCM     c1 2763   0.133   2.994   3.264
  520TCM    cl1 2764   0.223   2.846   3.220
  520TCM    cl2 2765   0.190   3.052   3.424
  520TCM     h1 2766   0.149   3.071   3.188
  520TCM    cl3 2767  -0.042   2.955   3.274
  521TCM     c1 2768   1.476   3.520   2.785
  521TCM    cl1 2769   1.553   3.624   2.909
  521TCM    cl2 2770   1.563   3.540   2.629
  521TCM     h1 2771   1.481   3.416   2.816
  521TCM    cl3 2772   1.305   3.569   2.763
  522TCM     c1 2773   2.782   3.962   1.586
  522TCM    cl1 2774   2.886   3.886   1.461
  522TCM    cl2 2775   2.658   3.844   1.637
  522TCM     h1 2776   2.843   3.991   1.672
  522TCM    cl3 2777   2.703   4.107   1.516
  523TCM     c1 2778   0.185   1.385   2.820
  523TCM    cl1 2779   0.241   1.297   2.674
  523TCM    cl2 2780   0.174   1.270   2.957
  523TCM     h1 2781   0.257   1.464   2.844
  523TCM    cl3 2782   0.024   1.457   2.789
  524TCM     c1 2783   4.440   3.196   2.665
  524TCM    cl1 2784   4.602   3.119   2.665
  524TCM    cl2 2785   4.397   3.252   2.830
  524TCM     h1 2786   4.441   3.282   2.597
  524TCM    cl3 2787   4.318   3.078   2.607
  525TCM     c1 2788   2.668   4.561   2.532
  525TCM    cl1 2789   2.723   4.450   2.661
  525TCM    cl2 2790   2.685   4.730   2.588
  525TCM     h1 2791   2.729   4.546   2.442
  525TCM    cl3 2792   2.496   4.528   2.495
  526TCM     c1 2793   2.919   2.914   2.284
  526TCM    cl1 2794   2.912   2.806   2.141
  526TCM    cl2 2795   3.026   3.054   2.248
  526TCM     h1 2796   2.818   2.950   2.307
  526TCM    cl3 2797   2.984   2.824   2.424
  527TCM     c1 2798   1.839   3.111   4.077
  527TCM    cl1 2799   1.871   3.142   3.903
  527TCM    cl2 2800   1.862   3.263   4.169
  527TCM     h1 2801   1.737   3.076   4.089
  527TCM    cl3 2802   1.954   2.987   4.137
  528TCM     c1 2803   4.971   1.743   0.344
  528TCM    cl1 2804   4.962   1.654   0.188
  528TCM    cl2 2805   4.968   1.626   0.480
  528TCM     h1 2806   5.063   1.801   0.348
  528TCM    cl3 2807   4.829   1.852   0.358
  529TCM     c1 2808   1.928   2.824   1.959
  529TCM    cl1 2809   1.914   2.824   2.138
  529TCM    cl2 2810   2.007   2.672   1.906
  529TCM     h1 2811   1.828   2.831   1.915
  529TCM    cl3 2812   2.027   2.964   1.906
  530TCM     c1 2813   1.890   0.287   4.625
  530TCM    cl1 2814   1.918   0.426   4.515
  530TCM    cl2 2815   1.888   0.135   4.530
  530TCM     h1 2816   1.970   0.283   4.700
  530TCM    cl3 2817   1.732   0.308   4.708
  531TCM     c1 2818   0.404   4.911   3.780
  531TCM    cl1 2819   0.519   4.945   3.914
  531TCM    cl2 2820   0.460   4.993   3.631
  531TCM     h1 2821   0.398   4.804   3.763
  531TCM    cl3 2822   0.242   4.974   3.825
  532TCM     c1 2823   1.814   4.166   1.627
  532TCM    cl1 2824   1.799   4.332   1.561
  532TCM    cl2 2825   1.924   4.070   1.522
  532TCM     h1 2826   1.856   4.171   1.728
  532TCM    cl3 2827   1.653   4.088   1.633
  533TCM     c1 2828   4.861   0.684   4.084
  533TCM    cl1 2829   4.810   0.605   4.237
  533TCM    cl2 2830   4.832   0.573   3.947
  533TCM     h1 2831   4.803   0.776   4.070
  533TCM    cl3 2832   5.036   0.723   4.092
  534TCM     c1 2833   2.331   2.893   0.073
  534TCM    cl1 2834   2.324   2.831  -0.095
  534TCM    cl2 2835   2.165   2.906   0.140
  534TCM     h1 2836   2.390   2.824   0.134
  534TCM    cl3 2837   2.408   3.055   0.075
  535TCM     c1 2838   2.677   4.036   1.102
  535TCM    cl1 2839   2.830   4.115   1.151
  535TCM    cl2 2840   2.693   3.975   0.934
  535TCM     h1 2841   2.656   3.952   1.169
  535TCM    cl3 2842   2.542   4.154   1.108
  536TCM     c1 2843   1.563   0.549   3.964
  536TCM    cl1 2844   1.536   0.393   3.878
  536TCM    cl2 2845   1.571   0.683   3.844
  536TCM     h1 2846   1.480   0.567   4.033
  536TCM    cl3 2847   1.716   0.542   4.056
  537TCM     c1 2848   1.404   1.046   2.739
  537TCM    cl1 2849   1.460   0.979   2.583
  537TCM    cl2 2850   1.380   0.914   2.857
  537TCM     h1 2851   1.479   1.116   2.778
  537TCM    cl3 2852   1.249   1.132   2.715
  538TCM     c1 2853   2.006   2.939   2.972
  538TCM    cl1 2854   1.953   2.978   2.805
  538TCM    cl2 2855   2.045   3.091   3.059
  538TCM     h1 2856   1.926   2.886   3.024
  538TCM    cl3 2857   2.152   2.835   2.965
  539TCM     c1 2858   3.914   3.918   2.874
  539TCM    cl1 2859   3.971   3.990   3.028
  539TCM    cl2 2860   3.900   4.047   2.750
  539TCM     h1 2861   3.986   3.842   2.840
  539TCM    cl3 2862   3.754   3.840   2.898
  540TCM     c1 2863   2.701   4.952   0.304
  540TCM    cl1 2864   2.747   4.794   0.377
  540TCM    cl2 2865   2.817   5.078   0.357
  540TCM     h1 2866   2.703   4.944   0.195
  540TCM    cl3 2867   2.536   4.997   0.358
  541TCM     c1 2868   1.669   3.477   3.826
  541TCM    cl1 2869   1.828   3.526   3.894
  541TCM    cl2 2870   1.582   3.375   3.946
  541TCM     h1 2871   1.610   3.566   3.804
  541TCM    cl3 2872   1.695   3.383   3.675
  542TCM     c1 2873   2.082   2.005   1.065
  542TCM    cl1 2874   2.147   2.170   1.092
  542TCM    cl2 2875   2.124   1.951   0.899
  542TCM     h1 2876   2.125   1.936   1.138
  542TCM    cl3 2877   1.903   2.007   1.083
  543TCM     c1 2878   3.006   4.866   3.600
  543TCM    cl1 2879   3.173   4.903   3.654
  543TCM    cl2 2880   2.907   5.015   3.602
  543TCM     h1 2881   3.007   4.823   3.500
  543TCM    cl3 2882   2.936   4.747   3.714
  544TCM     c1 2883   1.997   1.017   2.018
  544TCM    cl1 2884   1.939   1.073   1.858
  544TCM    cl2 2885   1.871   0.914   2.094
  544TCM     h1 2886   2.089   0.960   2.006
  544TCM    cl3 2887   2.028   1.159   2.123
  545TCM     c1 2888   2.350   2.467   0.225
  545TCM    cl1 2889   2.387   2.621   0.310
  545TCM    cl2 2890   2.257   2.502   0.076
  545TCM     h1 2891   2.442   2.416   0.198
  545TCM    cl3 2892   2.252   2.362   0.333
  546TCM     c1 2893   3.424   2.245   4.161
  546TCM    cl1 2894   3.470   2.323   4.316
  546TCM    cl2 2895   3.569   2.167   4.089
  546TCM     h1 2896   3.347   2.169   4.180
  546TCM    cl3 2897   3.361   2.368   4.048
  547TCM     c1 2898   0.662   0.467   1.906
  547TCM    cl1 2899   0.619   0.325   1.805
  547TCM    cl2 2900   0.558   0.472   2.052
  547TCM     h1 2901   0.767   0.460   1.936
  547TCM    cl3 2902   0.639   0.617   1.810
  548TCM     c1 2903   0.060   2.698   3.532
  548TCM    cl1 2904  -0.029   2.827   3.619
  548TCM    cl2 2905   0.004   2.538   3.590
  548TCM     h1 2906   0.042   2.707   3.424
  548TCM    cl3 2907   0.235   2.715   3.565
  549TCM     c1 2908   4.373   4.608   0.647
  549TCM    cl1 2909   4.303   4.759   0.715
  549TCM    cl2 2910   4.276   4.553   0.507
  549TCM     h1 2911   4.476   4.627   0.615
  549TCM    cl3 2912   4.371   4.481   0.774
  550TCM     c1 2913   0.378   4.139   0.751
  550TCM    cl1 2914   0.284   3.986   0.753
  550TCM    cl2 2915   0.302   4.254   0.636
  550TCM     h1 2916   0.379   4.182   0.851
  550TCM    cl3 2917   0.546   4.104   0.698
  551TCM     c1 2918   2.160   2.121   3.598
  551TCM    cl1 2919   2.265   2.187   3.469
  551TCM    cl2 2920   2.187   2.215   3.749
  551TCM     h1 2921   2.055   2.129   3.568
  551TCM    cl3 2922   2.202   1.949   3.628
  552TCM     c1 2923   0.368   4.051   1.282
  552TCM    cl1 2924   0.497   4.137   1.373
  552TCM    cl2 2925   0.346   3.886   1.349
  552TCM     h1 2926   0.275   4.107   1.292
  552TCM    cl3 2927   0.412   4.040   1.109
  553TCM     c1 2928   1.429   3.814   0.153
  553TCM    cl1 2929   1.272   3.758   0.087
  553TCM    cl2 2930   1.548   3.680   0.144
  553TCM     h1 2931   1.466   3.899   0.094
  553TCM    cl3 2932   1.408   3.864   0.324
  554TCM     c1 2933   3.163   1.942   2.549
  554TCM    cl1 2934   3.339   1.924   2.522
  554TCM    cl2 2935   3.102   2.085   2.460
  554TCM     h1 2936   3.111   1.852   2.514
  554TCM    cl3 2937   3.130   1.965   2.724
  555TCM     c1 2938   1.808   2.541   2.349
  555TCM    cl1 2939   1.775   2.620   2.507
  555TCM    cl2 2940   1.710   2.391   2.337
  555TCM     h1 2941   1.781   2.609   2.268
  555TCM    cl3 2942   1.983   2.502   2.335
  556TCM     c1 2943   3.194   4.850   1.995
  556TCM    cl1 2944   3.130   4.950   1.861
  556TCM    cl2 2945   3.084   4.712   2.025
  556TCM     h1 2946   3.293   4.812   1.968
  556TCM    cl3 2947   3.209   4.952   2.142
  557TCM     c1 2948   1.002   2.291   4.471
  557TCM    cl1 2949   1.094   2.432   4.533
  557TCM    cl2 2950   1.110   2.191   4.368
  557TCM     h1 2951   0.966   2.231   4.555
  557TCM    cl3 2952   0.862   2.347   4.374
  558TCM     c1 2953   4.632   3.597   4.876
  558TCM    cl1 2954   4.678   3.473   4.998
  558TCM    cl2 2955   4.681   3.542   4.713
  558TCM     h1 2956   4.524   3.612   4.879
  558TCM    cl3 2957   4.715   3.752   4.913
  559TCM     c1 2958   0.244   1.759   3.751
  559TCM    cl1 2959   0.414   1.797   3.707
  559TCM    cl2 2960   0.158   1.697   3.607
  559TCM     h1 2961   0.242   1.683   3.829
  559TCM    cl3 2962   0.163   1.908   3.809
  560TCM     c1 2963   4.159   1.886   2.705
  560TCM    cl1 2964   4.047   2.021   2.668
  560TCM    cl2 2965   4.230   1.823   2.552
  560TCM     h1 2966   4.239   1.921   2.770
  560TCM    cl3 2967   4.068   1.755   2.787
  561TCM     c1 2968   1.360   2.769   4.836
  561TCM    cl1 2969   1.367   2.940   4.891
  561TCM    cl2 2970   1.235   2.753   4.709
  561TCM     h1 2971   1.457   2.740   4.796
  561TCM    cl3 2972   1.318   2.662   4.974
  562TCM     c1 2973   3.451   1.905   2.898
  562TCM    cl1 2974   3.345   2.000   3.007
  562TCM    cl2 2975   3.502   1.754   2.981
  562TCM     h1 2976   3.397   1.880   2.806
  562TCM    cl3 2977   3.596   2.003   2.857
  563TCM     c1 2978   2.810   4.560   0.870
  563TCM    cl1 2979   2.786   4.657   1.019
  563TCM    cl2 2980   2.704   4.621   0.739
  563TCM     h1 2981   2.915   4.567   0.838
  563TCM    cl3 2982   2.770   4.388   0.903
  564TCM     c1 2983   1.789   3.815   0.587
  564TCM    cl1 2984   1.804   3.686   0.711
  564TCM    cl2 2985   1.782   3.740   0.424
  564TCM     h1 2986   1.698   3.873   0.604
  564TCM    cl3 2987   1.932   3.923   0.597
  565TCM     c1 2988   0.113   3.009   4.999
  565TCM    cl1 2989   0.013   3.131   5.083
  565TCM    cl2 2990   0.014   2.865   4.958
  565TCM     h1 2991   0.155   3.052   4.908
  565TCM    cl3 2992   0.247   2.958   5.107
  566TCM     c1 2993   2.945   4.746   2.903
  566TCM    cl1 2994   2.956   4.913   2.839
  566TCM    cl2 2995   3.016   4.632   2.784
  566TCM     h1 2996   3.000   4.739   2.997
  566TCM    cl3 2997   2.773   4.705   2.933
  567TCM     c1 2998   4.665   3.669   3.401
  567TCM    cl1 2999   4.561   3.553   3.491
  567TCM    cl2 3000   4.564   3.804   3.338
  567TCM     h1 3001   4.742   3.709   3.469
  567TCM    cl3 3002   4.743   3.585   3.264
  568TCM     c1 3003   1.697   0.778   2.941
  568TCM    cl1 3004   1.747   0.896   2.815
  568TCM    cl2 3005   1.658   0.867   3.091
  568TCM     h1 3006   1.609   0.723   2.907
  568TCM    cl3 3007   1.832   0.664   2.971
  569TCM     c1 3008   3.235   2.597   4.348
  569TCM    cl1 3009   3.172   2.764   4.329
  569TCM    cl2 3010   3.117   2.480   4.281
  569TCM     h1 3011   3.330   2.587   4.295
  569TCM    cl3 3012   3.261   2.563   4.523
  570TCM     c1 3013   2.268   3.819   0.537
  570TCM    cl1 3014   2.229   3.860   0.367
  570TCM    cl2 3015   2.447   3.822   0.559
  570TCM     h1 3016   2.222   3.891   0.604
  570TCM    cl3 3017   2.207   3.654   0.574
  571TCM     c1 3018   3.352   1.788   0.045
  571TCM    cl1 3019   3.337   1.894  -0.099
  571TCM    cl2 3020   3.490   1.675   0.024
  571TCM     h1 3021   3.369   1.850   0.133
  571TCM    cl3 3022   3.200   1.695   0.064
  572TCM     c1 3023   2.450   1.521   3.511
  572TCM    cl1 3024   2.348   1.549   3.655
  572TCM    cl2 3025   2.348   1.535   3.363
  572TCM     h1 3026   2.530   1.596   3.507
  572TCM    cl3 3027   2.520   1.356   3.518
  573TCM     c1 3028   1.160   0.638   2.568
  573TCM    cl1 3029   1.241   0.667   2.411
  573TCM    cl2 3030   1.014   0.537   2.544
  573TCM     h1 3031   1.228   0.588   2.636
  573TCM    cl3 3032   1.111   0.796   2.638
  574TCM     c1 3033   2.616   3.965   0.055
  574TCM    cl1 3034   2.551   3.963   0.222
  574TCM    cl2 3035   2.488   4.016  -0.059
  574TCM     h1 3036   2.700   4.034   0.050
  574TCM    cl3 3037   2.672   3.800   0.011
  575TCM     c1 3038   2.302   4.363   1.316
  575TCM    cl1 3039   2.234   4.530   1.317
  575TCM    cl2 3040   2.168   4.246   1.294
  575TCM     h1 3041   2.373   4.354   1.234
  575TCM    cl3 3042   2.384   4.332   1.472
  576TCM     c1 3043   0.959   2.445   4.945
  576TCM    cl1 3044   0.818   2.487   5.047
  576TCM    cl2 3045   0.906   2.332   4.816
  576TCM     h1 3046   1.000   2.535   4.900
  576TCM    cl3 3047   1.085   2.366   5.045
  577TCM     c1 3048   1.491   0.893   1.653
  577TCM    cl1 3049   1.459   1.034   1.546
  577TCM    cl2 3050   1.335   0.821   1.705
  577TCM     h1 3051   1.550   0.819   1.599
  577TCM    cl3 3052   1.582   0.948   1.798
  578TCM     c1 3053   0.345   3.406   3.663
  578TCM    cl1 3054   0.213   3.362   3.777
  578TCM    cl2 3055   0.279   3.406   3.496
  578TCM     h1 3056   0.383   3.505   3.688
  578TCM    cl3 3057   0.478   3.286   3.673
  579TCM     c1 3058   0.012   0.092   3.574
  579TCM    cl1 3059  -0.050   0.209   3.452
  579TCM    cl2 3060   0.097  -0.041   3.490
  579TCM     h1 3061   0.081   0.144   3.641
  579TCM    cl3 3062  -0.125   0.025   3.668
  580TCM     c1 3063   4.144   4.948   3.134
  580TCM    cl1 3064   4.250   5.011   3.264
  580TCM    cl2 3065   4.200   5.013   2.976
  580TCM     h1 3066   4.149   4.839   3.132
  580TCM    cl3 3067   3.975   5.000   3.163
  581TCM     c1 3068   3.233   3.810   1.423
  581TCM    cl1 3069   3.391   3.895   1.419
  581TCM    cl2 3070   3.250   3.659   1.518
  581TCM     h1 3071   3.159   3.874   1.469
  581TCM    cl3 3072   3.182   3.770   1.255
  582TCM     c1 3073   4.606   4.048   3.646
  582TCM    cl1 3074   4.620   4.162   3.784
  582TCM    cl2 3075   4.709   3.904   3.677
  582TCM     h1 3076   4.502   4.017   3.634
  582TCM    cl3 3077   4.662   4.129   3.496
  583TCM     c1 3078   0.880   3.513   0.277
  583TCM    cl1 3079   0.863   3.339   0.242
  583TCM    cl2 3080   0.718   3.583   0.308
  583TCM     h1 3081   0.943   3.527   0.365
  583TCM    cl3 3082   0.954   3.593   0.134
  584TCM     c1 3083   0.453   2.092   0.031
  584TCM    cl1 3084   0.425   2.120   0.206
  584TCM    cl2 3085   0.531   1.932   0.010
  584TCM     h1 3086   0.357   2.092  -0.022
  584TCM    cl3 3087   0.558   2.221  -0.036
  585TCM     c1 3088   1.080   4.992   2.588
  585TCM    cl1 3089   1.085   5.171   2.590
  585TCM    cl2 3090   1.124   4.935   2.424
  585TCM     h1 3091   1.150   4.952   2.661
  585TCM    cl3 3092   0.913   4.937   2.627
  586TCM     c1 3093   0.954   1.191   4.027
  586TCM    cl1 3094   0.837   1.217   4.161
  586TCM    cl2 3095   0.883   1.248   3.873
  586TCM     h1 3096   1.046   1.246   4.048
  586TCM    cl3 3097   0.991   1.016   4.014
  587TCM     c1 3098   3.596   2.723   4.128
  587TCM    cl1 3099   3.439   2.726   4.040
  587TCM    cl2 3100   3.674   2.564   4.106
  587TCM     h1 3101   3.661   2.802   4.088
  587TCM    cl3 3102   3.566   2.752   4.303
  588TCM     c1 3103   2.138   3.170   4.854
  588TCM    cl1 3104   2.279   3.169   4.744
  588TCM    cl2 3105   2.026   3.036   4.811
  588TCM     h1 3106   2.172   3.158   4.957
  588TCM    cl3 3107   2.050   3.326   4.839
  589TCM     c1 3108   1.192   0.386   0.754
  589TCM    cl1 3109   1.140   0.331   0.591
  589TCM    cl2 3110   1.194   0.565   0.758
  589TCM     h1 3111   1.122   0.348   0.829
  589TCM    cl3 3112   1.356   0.323   0.788
  590TCM     c1 3113   0.349   3.873   0.246
  590TCM    cl1 3114   0.460   3.902   0.108
  590TCM    cl2 3115   0.402   3.970   0.387
  590TCM     h1 3116   0.248   3.903   0.218
  590TCM    cl3 3117   0.352   3.698   0.288
  591TCM     c1 3118   3.129   1.258   3.084
  591TCM    cl1 3119   3.191   1.374   2.962
  591TCM    cl2 3120   2.993   1.165   3.013
  591TCM     h1 3121   3.209   1.189   3.112
  591TCM    cl3 3122   3.073   1.348   3.229
  592TCM     c1 3123   2.778   4.476   0.154
  592TCM    cl1 3124   2.882   4.551   0.029
  592TCM    cl2 3125   2.760   4.300   0.120
  592TCM     h1 3126   2.823   4.490   0.253
  592TCM    cl3 3127   2.616   4.553   0.149
  593TCM     c1 3128   3.585   3.266   3.142
  593TCM    cl1 3129   3.733   3.186   3.205
  593TCM    cl2 3130   3.632   3.416   3.055
  593TCM     h1 3131   3.532   3.199   3.074
  593TCM    cl3 3132   3.478   3.308   3.280
  594TCM     c1 3133   3.031   3.754   0.775
  594TCM    cl1 3134   3.046   3.891   0.890
  594TCM    cl2 3135   2.910   3.795   0.649
  594TCM     h1 3136   3.128   3.735   0.727
  594TCM    cl3 3137   2.979   3.607   0.863
  595TCM     c1 3138   4.560   4.215   1.016
  595TCM    cl1 3139   4.661   4.353   0.963
  595TCM    cl2 3140   4.662   4.099   1.108
  595TCM     h1 3141   4.479   4.251   1.080
  595TCM    cl3 3142   4.491   4.134   0.871
  596TCM     c1 3143   4.529   2.686   0.038
  596TCM    cl1 3144   4.483   2.768   0.191
  596TCM    cl2 3145   4.707   2.680   0.025
  596TCM     h1 3146   4.488   2.584   0.038
  596TCM    cl3 3147   4.462   2.777  -0.101
  597TCM     c1 3148   2.942   0.952   2.088
  597TCM    cl1 3149   2.885   0.786   2.125
  597TCM    cl2 3150   2.848   1.018   1.950
  597TCM     h1 3151   2.928   1.016   2.176
  597TCM    cl3 3152   3.116   0.947   2.046
  598TCM     c1 3153   3.454   4.130   2.933
  598TCM    cl1 3154   3.427   4.200   2.770
  598TCM    cl2 3155   3.339   4.203   3.050
  598TCM     h1 3156   3.439   4.022   2.929
  598TCM    cl3 3157   3.622   4.165   2.985
  599TCM     c1 3158   3.576   3.421   3.658
  599TCM    cl1 3159   3.647   3.480   3.813
  599TCM    cl2 3160   3.442   3.307   3.693
  599TCM     h1 3161   3.538   3.506   3.601
  599TCM    cl3 3162   3.702   3.335   3.564
  600TCM     c1 3163   4.148   0.192   4.727
  600TCM    cl1 3164   4.286   0.305   4.741
  600TCM    cl2 3165   4.158   0.102   4.573
  600TCM     h1 3166   4.150   0.122   4.811
  600TCM    cl3 3167   3.993   0.284   4.732
  601TCM     c1 3168   3.069   3.114   3.521
  601TCM    cl1 3169   3.101   3.103   3.697
  601TCM    cl2 3170   3.108   2.959   3.441
  601TCM     h1 3171   2.963   3.138   3.504
  601TCM    cl3 3172   3.171   3.244   3.450
  602TCM     c1 3173   0.584   2.431   1.859
  602TCM    cl1 3174   0.733   2.415   1.760
  602TCM    cl2 3175   0.517   2.268   1.887
  602TCM     h1 3176   0.608   2.478   1.955
  602TCM    cl3 3177   0.464   2.531   1.771
  603TCM     c1 3178   0.231   4.006   2.924
  603TCM    cl1 3179   0.241   4.185   2.931
  603TCM    cl2 3180   0.256   3.940   3.089
  603TCM     h1 3181   0.133   3.976   2.886
  603TCM    cl3 3182   0.359   3.943   2.814
  604TCM     c1 3183   2.392   3.295   1.449
  604TCM    cl1 3184   2.570   3.292   1.472
  604TCM    cl2 3185   2.315   3.176   1.559
  604TCM     h1 3186   2.354   3.395   1.471
  604TCM    cl3 3187   2.352   3.252   1.279
  605TCM     c1 3188   0.286   1.344   2.323
  605TCM    cl1 3189   0.282   1.425   2.163
  605TCM    cl2 3190   0.455   1.334   2.382
  605TCM     h1 3191   0.226   1.401   2.395
  605TCM    cl3 3192   0.219   1.178   2.310
  606TCM     c1 3193   3.806   3.019   3.856
  606TCM    cl1 3194   3.639   3.061   3.908
  606TCM    cl2 3195   3.887   2.925   3.986
  606TCM     h1 3196   3.802   2.959   3.765
  606TCM    cl3 3197   3.898   3.170   3.825
  607TCM     c1 3198   1.684   3.235   3.058
  607TCM    cl1 3199   1.750   3.292   2.902
  607TCM    cl2 3200   1.673   3.056   3.055
  607TCM     h1 3201   1.750   3.266   3.140
  607TCM    cl3 3202   1.520   3.303   3.082
  608TCM     c1 3203   2.505   2.933   2.458
  608TCM    cl1 3204   2.596   2.790   2.399
  608TCM    cl2 3205   2.608   3.079   2.444
  608TCM     h1 3206   2.414   2.946   2.399
  608TCM    cl3 3207   2.462   2.907   2.631
  609TCM     c1 3208   1.790   2.662   4.986
  609TCM    cl1 3209   1.690   2.524   4.931
  609TCM    cl2 3210   1.722   2.813   4.919
  609TCM     h1 3211   1.790   2.666   5.095
  609TCM    cl3 3212   1.958   2.641   4.926
  610TCM     c1 3213   4.766   0.582   2.750
  610TCM    cl1 3214   4.767   0.402   2.751
  610TCM    cl2 3215   4.753   0.641   2.581
  610TCM     h1 3216   4.680   0.617   2.808
  610TCM    cl3 3217   4.917   0.643   2.824
  611TCM     c1 3218   0.245   2.042   1.090
  611TCM    cl1 3219   0.191   2.097   0.927
  611TCM    cl2 3220   0.104   1.979   1.181
  611TCM     h1 3221   0.319   1.962   1.079
  611TCM    cl3 3222   0.317   2.180   1.179
  612TCM     c1 3223   3.023   3.861   0.241
  612TCM    cl1 3224   3.025   3.714   0.139
  612TCM    cl2 3225   2.975   4.002   0.140
  612TCM     h1 3226   2.952   3.848   0.323
  612TCM    cl3 3227   3.188   3.889   0.308
  613TCM     c1 3228   2.757   3.850   3.502
  613TCM    cl1 3229   2.817   3.938   3.647
  613TCM    cl2 3230   2.870   3.879   3.365
  613TCM     h1 3231   2.753   3.744   3.524
  613TCM    cl3 3232   2.594   3.909   3.458
  614TCM     c1 3233   2.239   4.357   1.880
  614TCM    cl1 3234   2.136   4.312   1.740
  614TCM    cl2 3235   2.265   4.215   1.986
  614TCM     h1 3236   2.336   4.394   1.844
  614TCM    cl3 3237   2.156   4.486   1.974
  615TCM     c1 3238   1.336   1.762   0.578
  615TCM    cl1 3239   1.360   1.718   0.751
  615TCM    cl2 3240   1.208   1.886   0.567
  615TCM     h1 3241   1.430   1.801   0.538
  615TCM    cl3 3242   1.287   1.616   0.486
  616TCM     c1 3243   0.445   2.611   4.232
  616TCM    cl1 3244   0.421   2.763   4.139
  616TCM    cl2 3245   0.467   2.473   4.119
  616TCM     h1 3246   0.534   2.621   4.295
  616TCM    cl3 3247   0.301   2.581   4.335
  617TCM     c1 3248   0.498   1.365   4.440
  617TCM    cl1 3249   0.491   1.539   4.395
  617TCM    cl2 3250   0.657   1.331   4.516
  617TCM     h1 3251   0.418   1.342   4.511
  617TCM    cl3 3252   0.479   1.265   4.292
  618TCM     c1 3253   0.284   2.562   0.686
  618TCM    cl1 3254   0.111   2.605   0.702
  618TCM    cl2 3255   0.311   2.397   0.750
  618TCM     h1 3256   0.313   2.565   0.580
  618TCM    cl3 3257   0.384   2.679   0.778
  619TCM     c1 3258   2.155   3.968   4.554
  619TCM    cl1 3259   2.005   3.956   4.653
  619TCM    cl2 3260   2.267   4.086   4.630
  619TCM     h1 3261   2.203   3.870   4.549
  619TCM    cl3 3262   2.112   4.023   4.389
  620TCM     c1 3263   3.149   3.260   3.071
  620TCM    cl1 3264   3.004   3.235   2.968
  620TCM    cl2 3265   3.264   3.368   2.985
  620TCM     h1 3266   3.120   3.306   3.166
  620TCM    cl3 3267   3.228   3.102   3.101
  621TCM     c1 3268   2.896   4.165   0.577
  621TCM    cl1 3269   3.072   4.131   0.570
  621TCM    cl2 3270   2.812   4.074   0.447
  621TCM     h1 3271   2.856   4.134   0.675
  621TCM    cl3 3272   2.868   4.340   0.553
  622TCM     c1 3273   3.506   4.165   0.270
  622TCM    cl1 3274   3.381   4.162   0.142
  622TCM    cl2 3275   3.604   4.015   0.259
  622TCM     h1 3276   3.571   4.252   0.257
  622TCM    cl3 3277   3.428   4.172   0.431
  623TCM     c1 3278   2.479   3.530   0.786
  623TCM    cl1 3279   2.628   3.622   0.824
  623TCM    cl2 3280   2.433   3.430   0.927
  623TCM     h1 3281   2.399   3.600   0.763
  623TCM    cl3 3282   2.509   3.424   0.644
  624TCM     c1 3283   3.990   3.524   3.471
  624TCM    cl1 3284   3.927   3.515   3.303
  624TCM    cl2 3285   3.900   3.650   3.562
  624TCM     h1 3286   3.976   3.427   3.520
  624TCM    cl3 3287   4.165   3.564   3.468
  625TCM     c1 3288   0.352   4.579   4.120
  625TCM    cl1 3289   0.177   4.584   4.161
  625TCM    cl2 3290   0.434   4.716   4.203
  625TCM     h1 3291   0.395   4.485   4.154
  625TCM    cl3 3292   0.372   4.597   3.943
  626TCM     c1 3293   3.887   0.234   3.427
  626TCM    cl1 3294   4.046   0.186   3.494
  626TCM    cl2 3295   3.848   0.401   3.478
  626TCM     h1 3296   3.889   0.228   3.318
  626TCM    cl3 3297   3.763   0.121   3.490
  627TCM     c1 3298   2.473   2.534   3.197
  627TCM    cl1 3299   2.527   2.682   3.284
  627TCM    cl2 3300   2.294   2.527   3.197
  627TCM     h1 3301   2.509   2.537   3.094
  627TCM    cl3 3302   2.539   2.389   3.279
  628TCM     c1 3303   4.963   4.173   2.640
  628TCM    cl1 3304   5.004   4.342   2.682
  628TCM    cl2 3305   4.899   4.089   2.786
  628TCM     h1 3306   4.887   4.172   2.562
  628TCM    cl3 3307   5.110   4.088   2.583
  629TCM     c1 3308   2.445   0.693   2.064
  629TCM    cl1 3309   2.277   0.737   2.017
  629TCM    cl2 3310   2.440   0.587   2.208
  629TCM     h1 3311   2.493   0.640   1.981
  629TCM    cl3 3312   2.537   0.842   2.102
  630TCM     c1 3313   0.430   2.309   3.007
  630TCM    cl1 3314   0.483   2.245   2.848
  630TCM    cl2 3315   0.431   2.176   3.126
  630TCM     h1 3316   0.499   2.388   3.039
  630TCM    cl3 3317   0.264   2.376   2.993
  631TCM     c1 3318   1.285   4.044   0.712
  631TCM    cl1 3319   1.187   4.059   0.562
  631TCM    cl2 3320   1.437   3.955   0.676
  631TCM     h1 3321   1.310   4.144   0.749
  631TCM    cl3 3322   1.193   3.955   0.837
  632TCM     c1 3323   2.553   2.934   0.527
  632TCM    cl1 3324   2.519   3.094   0.452
  632TCM    cl2 3325   2.448   2.913   0.670
  632TCM     h1 3326   2.534   2.855   0.454
  632TCM    cl3 3327   2.725   2.927   0.579
  633TCM     c1 3328   0.480   0.182   0.771
  633TCM    cl1 3329   0.475   0.041   0.661
  633TCM    cl2 3330   0.388   0.144   0.921
  633TCM     h1 3331   0.583   0.205   0.796
  633TCM    cl3 3332   0.404   0.324   0.692
  634TCM     c1 3333   0.101   2.046   3.001
  634TCM    cl1 3334  -0.049   2.126   3.057
  634TCM    cl2 3335   0.128   2.083   2.828
  634TCM     h1 3336   0.186   2.081   3.060
  634TCM    cl3 3337   0.084   1.868   3.020
  635TCM     c1 3338   2.592   0.631   3.270
  635TCM    cl1 3339   2.644   0.493   3.167
  635TCM    cl2 3340   2.736   0.701   3.351
  635TCM     h1 3341   2.544   0.707   3.208
  635TCM    cl3 3342   2.477   0.573   3.395
  636TCM     c1 3343   0.162   0.755   2.007
  636TCM    cl1 3344   0.114   0.891   2.114
  636TCM    cl2 3345   0.336   0.769   1.965
  636TCM     h1 3346   0.144   0.660   2.058
  636TCM    cl3 3347   0.063   0.760   1.857
  637TCM     c1 3348   4.080   0.250   4.248
  637TCM    cl1 3349   4.007   0.376   4.352
  637TCM    cl2 3350   4.154   0.328   4.105
  637TCM     h1 3351   4.156   0.195   4.304
  637TCM    cl3 3352   3.952   0.137   4.192
  638TCM     c1 3353   0.024   0.733   4.734
  638TCM    cl1 3354  -0.062   0.645   4.603
  638TCM    cl2 3355   0.201   0.723   4.707
  638TCM     h1 3356  -0.008   0.837   4.735
  638TCM    cl3 3357  -0.017   0.657   4.892
  639TCM     c1 3358   2.825   0.490   1.400
  639TCM    cl1 3359   2.985   0.558   1.443
  639TCM    cl2 3360   2.709   0.518   1.534
  639TCM     h1 3361   2.788   0.539   1.309
  639TCM    cl3 3362   2.842   0.314   1.372
  640TCM     c1 3363   2.062   1.073   3.658
  640TCM    cl1 3364   2.050   0.980   3.811
  640TCM    cl2 3365   2.126   0.966   3.529
  640TCM     h1 3366   1.963   1.109   3.630
  640TCM    cl3 3367   2.174   1.212   3.679
   5.00000   5.00000   5.00000
