;
;   File pmp_tetramer_system_openff_hmr.top  was generated
;   By user: tlf3 (59384)
;   On host:bb001.eth.hpc.nist.gov 
;   At date:Tue. November  2 12:10:12 2025 
;
;   This is a standalone topology file
;
;   Created by:
;   ParmEd:       hmr_topology, VERSION4.3.0 
;   Executable:   hmr_topology
;   Library dir:  /home/tlf3/miniforge3/envs/terphenyl/share/gromacs/top
;   Command line:
;     hmr_topology -t pmp_tetramer_system_openff.top -o pmp_tetramer_system_openff_hmr.top --hmr_ratio 3
;

[ defaults ]
; nbfunc        comb-rule       gen-pairs       fudgeLJ fudgeQQ
1               2               yes             0.5          0.833333    

[ atomtypes ]
; name    at.num    mass    charge ptype  sigma      epsilon
em_pmp_tetramer_0        6  12.010780  0.00000000  A     0.33996695      0.4577296
em_pmp_tetramer_1        8  15.999430  0.00000000  A     0.30251065     0.70485815
em_pmp_tetramer_2        6  12.010780  0.00000000  A     0.34806469     0.36350306
em_pmp_tetramer_3        6  12.010780  0.00000000  A     0.34806469     0.36350306
em_pmp_tetramer_4        6  12.010780  0.00000000  A     0.34806469     0.36350306
em_pmp_tetramer_5        6  12.010780  0.00000000  A     0.34806469     0.36350306
em_pmp_tetramer_6        6  12.010780  0.00000000  A     0.34806469     0.36350306
em_pmp_tetramer_7        6  12.010780  0.00000000  A     0.34806469     0.36350306
em_pmp_tetramer_8        6  12.010780  0.00000000  A     0.34806469     0.36350306
em_pmp_tetramer_9        6  12.010780  0.00000000  A     0.34806469     0.36350306
em_pmp_tetramer_10        8  15.999430  0.00000000  A     0.30398122     0.87950233
em_pmp_tetramer_11        6  12.010780  0.00000000  A     0.34806469     0.36350306
em_pmp_tetramer_12        6  12.010780  0.00000000  A     0.34806469     0.36350306
em_pmp_tetramer_13        6  12.010780  0.00000000  A     0.34806469     0.36350306
em_pmp_tetramer_14        6  12.010780  0.00000000  A     0.34806469     0.36350306
em_pmp_tetramer_15        6  12.010780  0.00000000  A     0.34806469     0.36350306
em_pmp_tetramer_16        6  12.010780  0.00000000  A     0.34806469     0.36350306
em_pmp_tetramer_17        6  12.010780  0.00000000  A     0.34806469     0.36350306
em_pmp_tetramer_18        6  12.010780  0.00000000  A     0.34806469     0.36350306
em_pmp_tetramer_19        6  12.010780  0.00000000  A     0.33996695      0.4577296
em_pmp_tetramer_20        6  12.010780  0.00000000  A     0.33996695      0.4577296
em_pmp_tetramer_21        7  14.006720  0.00000000  A      0.3206876      0.7016213
em_pmp_tetramer_22        6  12.010780  0.00000000  A     0.34806469     0.36350306
em_pmp_tetramer_23        6  12.010780  0.00000000  A     0.34806469     0.36350306
em_pmp_tetramer_24        6  12.010780  0.00000000  A     0.34806469     0.36350306
em_pmp_tetramer_25        1   1.007947  0.00000000  A     0.25832257    0.068656285
em_pmp_tetramer_26        1   1.007947  0.00000000  A     0.25832257    0.068656285
em_pmp_tetramer_27        1   1.007947  0.00000000  A     0.25832257    0.068656285
em_pmp_tetramer_28        1   1.007947  0.00000000  A     0.25725815     0.06531786
em_pmp_tetramer_29        1   1.007947  0.00000000  A     0.25725815     0.06531786
em_pmp_tetramer_30        1   1.007947  0.00000000  A     0.25725815     0.06531786
em_pmp_tetramer_31        1   1.007947  0.00000000  A     0.25725815     0.06531786
em_pmp_tetramer_32        1   1.007947  0.00000000  A     0.25725815     0.06531786
em_pmp_tetramer_33        1   1.007947  0.00000000  A     0.25725815     0.06531786
em_pmp_tetramer_34        1   1.007947  0.00000000  A     0.25725815     0.06531786
em_pmp_tetramer_35        1   1.007947  0.00000000  A     0.25725815     0.06531786
em_pmp_tetramer_36        1   1.007947  0.00000000  A     0.25832257    0.068656285
em_pmp_tetramer_37        1   1.007947  0.00000000  A     0.26445434    0.066021356
em_pmp_tetramer_38        1   1.007947  0.00000000  A     0.26445434    0.066021356
em_pmp_tetramer_39        1   1.007947  0.00000000  A     0.26445434    0.066021356
em_pmp_tetramer_40        1   1.007947  0.00000000  A     0.11034277    0.058955969
em_pmp_tetramer_41        1   1.007947  0.00000000  A     0.25725815     0.06531786
em_pmp_tetramer_42        1   1.007947  0.00000000  A     0.25725815     0.06531786
em_pmp_tetramer_43        1   1.007947  0.00000000  A     0.25725815     0.06531786
em_pmp_tetramer_44        6  12.010780  0.00000000  A     0.33996695      0.4577296
em_pmp_tetramer_45        8  15.999430  0.00000000  A     0.30251065     0.70485815
em_pmp_tetramer_46        6  12.010780  0.00000000  A     0.34806469     0.36350306
em_pmp_tetramer_47        6  12.010780  0.00000000  A     0.34806469     0.36350306
em_pmp_tetramer_48        6  12.010780  0.00000000  A     0.34806469     0.36350306
em_pmp_tetramer_49        6  12.010780  0.00000000  A     0.34806469     0.36350306
em_pmp_tetramer_50        6  12.010780  0.00000000  A     0.34806469     0.36350306
em_pmp_tetramer_51        6  12.010780  0.00000000  A     0.34806469     0.36350306
em_pmp_tetramer_52        6  12.010780  0.00000000  A     0.34806469     0.36350306
em_pmp_tetramer_53        6  12.010780  0.00000000  A     0.34806469     0.36350306
em_pmp_tetramer_54        8  15.999430  0.00000000  A     0.30398122     0.87950233
em_pmp_tetramer_55        6  12.010780  0.00000000  A     0.34806469     0.36350306
em_pmp_tetramer_56        6  12.010780  0.00000000  A     0.34806469     0.36350306
em_pmp_tetramer_57        6  12.010780  0.00000000  A     0.34806469     0.36350306
em_pmp_tetramer_58        6  12.010780  0.00000000  A     0.34806469     0.36350306
em_pmp_tetramer_59        6  12.010780  0.00000000  A     0.34806469     0.36350306
em_pmp_tetramer_60        6  12.010780  0.00000000  A     0.34806469     0.36350306
em_pmp_tetramer_61        6  12.010780  0.00000000  A     0.34806469     0.36350306
em_pmp_tetramer_62        6  12.010780  0.00000000  A     0.34806469     0.36350306
em_pmp_tetramer_63        6  12.010780  0.00000000  A     0.33996695      0.4577296
em_pmp_tetramer_64        6  12.010780  0.00000000  A     0.33996695      0.4577296
em_pmp_tetramer_65        7  14.006720  0.00000000  A      0.3206876      0.7016213
em_pmp_tetramer_66        6  12.010780  0.00000000  A     0.34806469     0.36350306
em_pmp_tetramer_67        6  12.010780  0.00000000  A     0.34806469     0.36350306
em_pmp_tetramer_68        6  12.010780  0.00000000  A     0.34806469     0.36350306
em_pmp_tetramer_69        1   1.007947  0.00000000  A     0.25832257    0.068656285
em_pmp_tetramer_70        1   1.007947  0.00000000  A     0.25832257    0.068656285
em_pmp_tetramer_71        1   1.007947  0.00000000  A     0.25832257    0.068656285
em_pmp_tetramer_72        1   1.007947  0.00000000  A     0.25725815     0.06531786
em_pmp_tetramer_73        1   1.007947  0.00000000  A     0.25725815     0.06531786
em_pmp_tetramer_74        1   1.007947  0.00000000  A     0.25725815     0.06531786
em_pmp_tetramer_75        1   1.007947  0.00000000  A     0.25725815     0.06531786
em_pmp_tetramer_76        1   1.007947  0.00000000  A     0.25725815     0.06531786
em_pmp_tetramer_77        1   1.007947  0.00000000  A     0.25725815     0.06531786
em_pmp_tetramer_78        1   1.007947  0.00000000  A     0.25725815     0.06531786
em_pmp_tetramer_79        1   1.007947  0.00000000  A     0.25725815     0.06531786
em_pmp_tetramer_80        1   1.007947  0.00000000  A     0.25832257    0.068656285
em_pmp_tetramer_81        1   1.007947  0.00000000  A     0.26445434    0.066021356
em_pmp_tetramer_82        1   1.007947  0.00000000  A     0.26445434    0.066021356
em_pmp_tetramer_83        1   1.007947  0.00000000  A     0.26445434    0.066021356
em_pmp_tetramer_84        1   1.007947  0.00000000  A     0.11034277    0.058955969
em_pmp_tetramer_85        1   1.007947  0.00000000  A     0.25725815     0.06531786
em_pmp_tetramer_86        1   1.007947  0.00000000  A     0.25725815     0.06531786
em_pmp_tetramer_87        1   1.007947  0.00000000  A     0.25725815     0.06531786
em_pmp_tetramer_88        6  12.010780  0.00000000  A     0.33996695      0.4577296
em_pmp_tetramer_89        8  15.999430  0.00000000  A     0.30251065     0.70485815
em_pmp_tetramer_90        6  12.010780  0.00000000  A     0.34806469     0.36350306
em_pmp_tetramer_91        6  12.010780  0.00000000  A     0.34806469     0.36350306
em_pmp_tetramer_92        6  12.010780  0.00000000  A     0.34806469     0.36350306
em_pmp_tetramer_93        6  12.010780  0.00000000  A     0.34806469     0.36350306
em_pmp_tetramer_94        6  12.010780  0.00000000  A     0.34806469     0.36350306
em_pmp_tetramer_95        6  12.010780  0.00000000  A     0.34806469     0.36350306
em_pmp_tetramer_96        6  12.010780  0.00000000  A     0.34806469     0.36350306
em_pmp_tetramer_97        6  12.010780  0.00000000  A     0.34806469     0.36350306
em_pmp_tetramer_98        8  15.999430  0.00000000  A     0.30398122     0.87950233
em_pmp_tetramer_99        6  12.010780  0.00000000  A     0.34806469     0.36350306
em_pmp_tetramer_100        6  12.010780  0.00000000  A     0.34806469     0.36350306
em_pmp_tetramer_101        6  12.010780  0.00000000  A     0.34806469     0.36350306
em_pmp_tetramer_102        6  12.010780  0.00000000  A     0.34806469     0.36350306
em_pmp_tetramer_103        6  12.010780  0.00000000  A     0.34806469     0.36350306
em_pmp_tetramer_104        6  12.010780  0.00000000  A     0.34806469     0.36350306
em_pmp_tetramer_105        6  12.010780  0.00000000  A     0.34806469     0.36350306
em_pmp_tetramer_106        6  12.010780  0.00000000  A     0.34806469     0.36350306
em_pmp_tetramer_107        6  12.010780  0.00000000  A     0.33996695      0.4577296
em_pmp_tetramer_108        6  12.010780  0.00000000  A     0.33996695      0.4577296
em_pmp_tetramer_109        7  14.006720  0.00000000  A      0.3206876      0.7016213
em_pmp_tetramer_110        6  12.010780  0.00000000  A     0.34806469     0.36350306
em_pmp_tetramer_111        6  12.010780  0.00000000  A     0.34806469     0.36350306
em_pmp_tetramer_112        6  12.010780  0.00000000  A     0.34806469     0.36350306
em_pmp_tetramer_113        1   1.007947  0.00000000  A     0.25832257    0.068656285
em_pmp_tetramer_114        1   1.007947  0.00000000  A     0.25832257    0.068656285
em_pmp_tetramer_115        1   1.007947  0.00000000  A     0.25832257    0.068656285
em_pmp_tetramer_116        1   1.007947  0.00000000  A     0.25725815     0.06531786
em_pmp_tetramer_117        1   1.007947  0.00000000  A     0.25725815     0.06531786
em_pmp_tetramer_118        1   1.007947  0.00000000  A     0.25725815     0.06531786
em_pmp_tetramer_119        1   1.007947  0.00000000  A     0.25725815     0.06531786
em_pmp_tetramer_120        1   1.007947  0.00000000  A     0.25725815     0.06531786
em_pmp_tetramer_121        1   1.007947  0.00000000  A     0.25725815     0.06531786
em_pmp_tetramer_122        1   1.007947  0.00000000  A     0.25725815     0.06531786
em_pmp_tetramer_123        1   1.007947  0.00000000  A     0.25725815     0.06531786
em_pmp_tetramer_124        1   1.007947  0.00000000  A     0.25832257    0.068656285
em_pmp_tetramer_125        1   1.007947  0.00000000  A     0.26445434    0.066021356
em_pmp_tetramer_126        1   1.007947  0.00000000  A     0.26445434    0.066021356
em_pmp_tetramer_127        1   1.007947  0.00000000  A     0.26445434    0.066021356
em_pmp_tetramer_128        1   1.007947  0.00000000  A     0.11034277    0.058955969
em_pmp_tetramer_129        1   1.007947  0.00000000  A     0.25725815     0.06531786
em_pmp_tetramer_130        1   1.007947  0.00000000  A     0.25725815     0.06531786
em_pmp_tetramer_131        1   1.007947  0.00000000  A     0.25725815     0.06531786
em_pmp_tetramer_132        6  12.010780  0.00000000  A     0.33996695      0.4577296
em_pmp_tetramer_133        8  15.999430  0.00000000  A     0.30251065     0.70485815
em_pmp_tetramer_134        6  12.010780  0.00000000  A     0.34806469     0.36350306
em_pmp_tetramer_135        6  12.010780  0.00000000  A     0.34806469     0.36350306
em_pmp_tetramer_136        6  12.010780  0.00000000  A     0.34806469     0.36350306
em_pmp_tetramer_137        6  12.010780  0.00000000  A     0.34806469     0.36350306
em_pmp_tetramer_138        6  12.010780  0.00000000  A     0.34806469     0.36350306
em_pmp_tetramer_139        6  12.010780  0.00000000  A     0.34806469     0.36350306
em_pmp_tetramer_140        6  12.010780  0.00000000  A     0.34806469     0.36350306
em_pmp_tetramer_141        6  12.010780  0.00000000  A     0.34806469     0.36350306
em_pmp_tetramer_142        8  15.999430  0.00000000  A     0.30398122     0.87950233
em_pmp_tetramer_143        6  12.010780  0.00000000  A     0.34806469     0.36350306
em_pmp_tetramer_144        6  12.010780  0.00000000  A     0.34806469     0.36350306
em_pmp_tetramer_145        6  12.010780  0.00000000  A     0.34806469     0.36350306
em_pmp_tetramer_146        6  12.010780  0.00000000  A     0.34806469     0.36350306
em_pmp_tetramer_147        6  12.010780  0.00000000  A     0.34806469     0.36350306
em_pmp_tetramer_148        6  12.010780  0.00000000  A     0.34806469     0.36350306
em_pmp_tetramer_149        6  12.010780  0.00000000  A     0.34806469     0.36350306
em_pmp_tetramer_150        6  12.010780  0.00000000  A     0.34806469     0.36350306
em_pmp_tetramer_151        6  12.010780  0.00000000  A     0.33996695      0.4577296
em_pmp_tetramer_152        6  12.010780  0.00000000  A     0.33996695      0.4577296
em_pmp_tetramer_153        7  14.006720  0.00000000  A      0.3206876      0.7016213
em_pmp_tetramer_154        6  12.010780  0.00000000  A     0.34806469     0.36350306
em_pmp_tetramer_155        6  12.010780  0.00000000  A     0.34806469     0.36350306
em_pmp_tetramer_156        6  12.010780  0.00000000  A     0.34806469     0.36350306
em_pmp_tetramer_157        1   1.007947  0.00000000  A     0.25832257    0.068656285
em_pmp_tetramer_158        1   1.007947  0.00000000  A     0.25832257    0.068656285
em_pmp_tetramer_159        1   1.007947  0.00000000  A     0.25832257    0.068656285
em_pmp_tetramer_160        1   1.007947  0.00000000  A     0.25725815     0.06531786
em_pmp_tetramer_161        1   1.007947  0.00000000  A     0.25725815     0.06531786
em_pmp_tetramer_162        1   1.007947  0.00000000  A     0.25725815     0.06531786
em_pmp_tetramer_163        1   1.007947  0.00000000  A     0.25725815     0.06531786
em_pmp_tetramer_164        1   1.007947  0.00000000  A     0.25725815     0.06531786
em_pmp_tetramer_165        1   1.007947  0.00000000  A     0.25725815     0.06531786
em_pmp_tetramer_166        1   1.007947  0.00000000  A     0.25725815     0.06531786
em_pmp_tetramer_167        1   1.007947  0.00000000  A     0.25725815     0.06531786
em_pmp_tetramer_168        1   1.007947  0.00000000  A     0.25832257    0.068656285
em_pmp_tetramer_169        1   1.007947  0.00000000  A     0.26445434    0.066021356
em_pmp_tetramer_170        1   1.007947  0.00000000  A     0.26445434    0.066021356
em_pmp_tetramer_171        1   1.007947  0.00000000  A     0.26445434    0.066021356
em_pmp_tetramer_172        1   1.007947  0.00000000  A     0.11034277    0.058955969
em_pmp_tetramer_173        1   1.007947  0.00000000  A     0.25725815     0.06531786
em_pmp_tetramer_174        1   1.007947  0.00000000  A     0.25725815     0.06531786
em_pmp_tetramer_175        1   1.007947  0.00000000  A     0.25725815     0.06531786
em_pmp_tetramer_176        6  12.010780  0.00000000  A     0.33996695      0.4577296
em_pmp_tetramer_177        8  15.999430  0.00000000  A     0.30251065     0.70485815
em_pmp_tetramer_178        1   1.007947  0.00000000  A     0.25832257    0.068656285
em_pmp_tetramer_179        1   1.007947  0.00000000  A     0.25832257    0.068656285
em_pmp_tetramer_180        1   1.007947  0.00000000  A     0.25832257    0.068656285
em_pmp_tetramer_181        6  12.010780  0.00000000  A     0.33996695      0.4577296
em_pmp_tetramer_182        6  12.010780  0.00000000  A     0.33996695      0.4577296
em_pmp_tetramer_183        6  12.010780  0.00000000  A     0.33996695      0.4577296
em_pmp_tetramer_184        6  12.010780  0.00000000  A     0.33996695      0.4577296
em_pmp_tetramer_185        8  15.999430  0.00000000  A     0.30251065     0.70485815
em_pmp_tetramer_186        6  12.010780  0.00000000  A     0.34806469     0.36350306
em_pmp_tetramer_187        8  15.999430  0.00000000  A     0.30398122     0.87950233
em_pmp_tetramer_188        1   1.007947  0.00000000  A     0.26445434    0.066021356
em_pmp_tetramer_189        1   1.007947  0.00000000  A     0.26445434    0.066021356
em_pmp_tetramer_190        1   1.007947  0.00000000  A     0.26445434    0.066021356
em_pmp_tetramer_191        1   1.007947  0.00000000  A     0.26445434    0.066021356
em_pmp_tetramer_192        1   1.007947  0.00000000  A     0.26445434    0.066021356
em_pmp_tetramer_193        1   1.007947  0.00000000  A     0.26445434    0.066021356
em_pmp_tetramer_194        1   1.007947  0.00000000  A     0.26445434    0.066021356
em_pmp_tetramer_195        1   1.007947  0.00000000  A     0.26445434    0.066021356
em_pmp_tetramer_196        1   1.007947  0.00000000  A     0.26445434    0.066021356
TCM_0          6  12.010780  0.00000000  A     0.33996695      0.4577296
TCM_1         17  35.453200  0.00000000  A     0.34709414        1.10876
TCM_2         17  35.453200  0.00000000  A     0.34709414        1.10876
TCM_3          1   1.007947  0.00000000  A     0.21149936      0.0656888
TCM_4         17  35.453200  0.00000000  A     0.34709414        1.10876


[ moleculetype ]
; Name            nrexcl
system1          3

[ atoms ]
;   nr       type  resnr residue  atom   cgnr    charge       mass  typeB    chargeB      massB
; residue    1 PMP rtp PMP q 0.1
    1 em_pmp_tetramer_0      1    PMP     C1      1 0.10766000   5.963098   ; qtot 0.107660
    2 em_pmp_tetramer_1      1    PMP     O2      2 -0.32076001  15.999430   ; qtot -0.213100
    3 em_pmp_tetramer_2      1    PMP     C3      3 0.12069000  12.010780   ; qtot -0.092410
    4 em_pmp_tetramer_3      1    PMP     C4      4 -0.14005999   9.994886   ; qtot -0.232470
    5 em_pmp_tetramer_4      1    PMP     C5      5 -0.01332000  12.010780   ; qtot -0.245790
    6 em_pmp_tetramer_5      1    PMP     C6      6 -0.01036000  12.010780   ; qtot -0.256150
    7 em_pmp_tetramer_6      1    PMP     C7      7 -0.13168000   9.994886   ; qtot -0.387830
    8 em_pmp_tetramer_7      1    PMP     C8      8 -0.07245000   9.994886   ; qtot -0.460280
    9 em_pmp_tetramer_8      1    PMP     C9      9 -0.12647000  12.010780   ; qtot -0.586750
   10 em_pmp_tetramer_9      1    PMP    C10     10 0.64486998  12.010780   ; qtot 0.058120
   11 em_pmp_tetramer_10      1    PMP    O11     11 -0.53485000  15.999430   ; qtot -0.476730
   12 em_pmp_tetramer_11      1    PMP    C12     12 -0.07245000   9.994886   ; qtot -0.549180
   13 em_pmp_tetramer_12      1    PMP    C13     13 -0.13168000   9.994886   ; qtot -0.680860
   14 em_pmp_tetramer_13      1    PMP    C14     14 -0.14027999   9.994886   ; qtot -0.821140
   15 em_pmp_tetramer_14      1    PMP    C15     15 -0.00552000  12.010780   ; qtot -0.826660
   16 em_pmp_tetramer_15      1    PMP    C16     16 -0.03626000  12.010780   ; qtot -0.862920
   17 em_pmp_tetramer_16      1    PMP    C17     17 -0.11694000   9.994886   ; qtot -0.979860
   18 em_pmp_tetramer_17      1    PMP    C18     18 -0.12063000   9.994886   ; qtot -1.100490
   19 em_pmp_tetramer_18      1    PMP    C19     19 -0.09552000  12.010780   ; qtot -1.196010
   20 em_pmp_tetramer_19      1    PMP    C20     20 0.15047000   9.994886   ; qtot -1.045540
   21 em_pmp_tetramer_20      1    PMP    C21     21 -0.11067000   5.963098   ; qtot -1.156210
   22 em_pmp_tetramer_21      1    PMP    N22     22 -0.57154000  11.990826   ; qtot -1.727750
   23 em_pmp_tetramer_22      1    PMP    C23     23 -0.12063000   9.994886   ; qtot -1.848380
   24 em_pmp_tetramer_23      1    PMP    C24     24 -0.11694000   9.994886   ; qtot -1.965320
   25 em_pmp_tetramer_24      1    PMP    C25     25 -0.19453000   9.994886   ; qtot -2.159850
   26 em_pmp_tetramer_25      1    PMP    H26     26 0.04630000   3.023841   ; qtot -2.113550
   27 em_pmp_tetramer_26      1    PMP    H27     27 0.04630000   3.023841   ; qtot -2.067250
   28 em_pmp_tetramer_27      1    PMP    H28     28 0.04630000   3.023841   ; qtot -2.020950
   29 em_pmp_tetramer_28      1    PMP    H29     29 0.15697999   3.023841   ; qtot -1.863970
   30 em_pmp_tetramer_29      1    PMP    H30     30 0.14238000   3.023841   ; qtot -1.721590
   31 em_pmp_tetramer_30      1    PMP    H31     31 0.15436999   3.023841   ; qtot -1.567220
   32 em_pmp_tetramer_31      1    PMP    H32     32 0.15436999   3.023841   ; qtot -1.412850
   33 em_pmp_tetramer_32      1    PMP    H33     33 0.14238000   3.023841   ; qtot -1.270470
   34 em_pmp_tetramer_33      1    PMP    H34     34 0.14200000   3.023841   ; qtot -1.128470
   35 em_pmp_tetramer_34      1    PMP    H35     35 0.13720000   3.023841   ; qtot -0.991270
   36 em_pmp_tetramer_35      1    PMP    H36     36 0.13698000   3.023841   ; qtot -0.854290
   37 em_pmp_tetramer_36      1    PMP    H37     37 0.08791000   3.023841   ; qtot -0.766380
   38 em_pmp_tetramer_37      1    PMP    H38     38 0.04600000   3.023841   ; qtot -0.720380
   39 em_pmp_tetramer_38      1    PMP    H39     39 0.04600000   3.023841   ; qtot -0.674380
   40 em_pmp_tetramer_39      1    PMP    H40     40 0.04600000   3.023841   ; qtot -0.628380
   41 em_pmp_tetramer_40      1    PMP    H41     41 0.31268999   3.023841   ; qtot -0.315690
   42 em_pmp_tetramer_41      1    PMP    H42     42 0.13698000   3.023841   ; qtot -0.178710
   43 em_pmp_tetramer_42      1    PMP    H43     43 0.13720000   3.023841   ; qtot -0.041510
   44 em_pmp_tetramer_43      1    PMP    H44     44 0.14461000   3.023841   ; qtot 0.103100
; residue    2 PMP rtp PMP q -0.0
   45 em_pmp_tetramer_44      2    PMP    C45     45 0.11336000   5.963098   ; qtot 0.216460
   46 em_pmp_tetramer_45      2    PMP    O46     46 -0.32692999  15.999430   ; qtot -0.110470
   47 em_pmp_tetramer_46      2    PMP    C47     47 0.12594999  12.010780   ; qtot 0.015480
   48 em_pmp_tetramer_47      2    PMP    C48     48 -0.18795000   9.994886   ; qtot -0.172470
   49 em_pmp_tetramer_48      2    PMP    C49     49 -0.00982000  12.010780   ; qtot -0.182290
   50 em_pmp_tetramer_49      2    PMP    C50     50 -0.01321000  12.010780   ; qtot -0.195500
   51 em_pmp_tetramer_50      2    PMP    C51     51 -0.12910999   9.994886   ; qtot -0.324610
   52 em_pmp_tetramer_51      2    PMP    C52     52 -0.09186000   9.994886   ; qtot -0.416470
   53 em_pmp_tetramer_52      2    PMP    C53     53 -0.14283000  12.010780   ; qtot -0.559300
   54 em_pmp_tetramer_53      2    PMP    C54     54 0.67625999  12.010780   ; qtot 0.116960
   55 em_pmp_tetramer_54      2    PMP    O55     55 -0.60517001  15.999430   ; qtot -0.488210
   56 em_pmp_tetramer_55      2    PMP    C56     56 -0.09186000   9.994886   ; qtot -0.580070
   57 em_pmp_tetramer_56      2    PMP    C57     57 -0.12910999   9.994886   ; qtot -0.709180
   58 em_pmp_tetramer_57      2    PMP    C58     58 -0.14218999   9.994886   ; qtot -0.851370
   59 em_pmp_tetramer_58      2    PMP    C59     59 -0.00546000  12.010780   ; qtot -0.856830
   60 em_pmp_tetramer_59      2    PMP    C60     60 -0.03466000  12.010780   ; qtot -0.891490
   61 em_pmp_tetramer_60      2    PMP    C61     61 -0.11740000   9.994886   ; qtot -1.008890
   62 em_pmp_tetramer_61      2    PMP    C62     62 -0.12153000   9.994886   ; qtot -1.130420
   63 em_pmp_tetramer_62      2    PMP    C63     63 -0.09585000  12.010780   ; qtot -1.226270
   64 em_pmp_tetramer_63      2    PMP    C64     64 0.15002000   9.994886   ; qtot -1.076250
   65 em_pmp_tetramer_64      2    PMP    C65     65 -0.10800000   5.963098   ; qtot -1.184250
   66 em_pmp_tetramer_65      2    PMP    N66     66 -0.57143003  11.990826   ; qtot -1.755680
   67 em_pmp_tetramer_66      2    PMP    C67     67 -0.12153000   9.994886   ; qtot -1.877210
   68 em_pmp_tetramer_67      2    PMP    C68     68 -0.11740000   9.994886   ; qtot -1.994610
   69 em_pmp_tetramer_68      2    PMP    C69     69 -0.13897000   9.994886   ; qtot -2.133580
   70 em_pmp_tetramer_69      2    PMP    H70     70 0.04605000   3.023841   ; qtot -2.087530
   71 em_pmp_tetramer_70      2    PMP    H71     71 0.04605000   3.023841   ; qtot -2.041480
   72 em_pmp_tetramer_71      2    PMP    H72     72 0.04605000   3.023841   ; qtot -1.995430
   73 em_pmp_tetramer_72      2    PMP    H73     73 0.14314000   3.023841   ; qtot -1.852290
   74 em_pmp_tetramer_73      2    PMP    H74     74 0.14067000   3.023841   ; qtot -1.711620
   75 em_pmp_tetramer_74      2    PMP    H75     75 0.14776000   3.023841   ; qtot -1.563860
   76 em_pmp_tetramer_75      2    PMP    H76     76 0.14776000   3.023841   ; qtot -1.416100
   77 em_pmp_tetramer_76      2    PMP    H77     77 0.14067000   3.023841   ; qtot -1.275430
   78 em_pmp_tetramer_77      2    PMP    H78     78 0.13728000   3.023841   ; qtot -1.138150
   79 em_pmp_tetramer_78      2    PMP    H79     79 0.13833000   3.023841   ; qtot -0.999820
   80 em_pmp_tetramer_79      2    PMP    H80     80 0.13674000   3.023841   ; qtot -0.863080
   81 em_pmp_tetramer_80      2    PMP    H81     81 0.08914000   3.023841   ; qtot -0.773940
   82 em_pmp_tetramer_81      2    PMP    H82     82 0.04524000   3.023841   ; qtot -0.728700
   83 em_pmp_tetramer_82      2    PMP    H83     83 0.04524000   3.023841   ; qtot -0.683460
   84 em_pmp_tetramer_83      2    PMP    H84     84 0.04524000   3.023841   ; qtot -0.638220
   85 em_pmp_tetramer_84      2    PMP    H85     85 0.31189001   3.023841   ; qtot -0.326330
   86 em_pmp_tetramer_85      2    PMP    H86     86 0.13674000   3.023841   ; qtot -0.189590
   87 em_pmp_tetramer_86      2    PMP    H87     87 0.13833000   3.023841   ; qtot -0.051260
   88 em_pmp_tetramer_87      2    PMP    H88     88 0.15388000   3.023841   ; qtot 0.102620
; residue    3 PMP rtp PMP q 0.0
   89 em_pmp_tetramer_88      3    PMP    C89     89 0.11336000   5.963098   ; qtot 0.215980
   90 em_pmp_tetramer_89      3    PMP    O90     90 -0.32800001  15.999430   ; qtot -0.112020
   91 em_pmp_tetramer_90      3    PMP    C91     91 0.12485000  12.010780   ; qtot 0.012830
   92 em_pmp_tetramer_91      3    PMP    C92     92 -0.13674000   9.994886   ; qtot -0.123910
   93 em_pmp_tetramer_92      3    PMP    C93     93 -0.01248000  12.010780   ; qtot -0.136390
   94 em_pmp_tetramer_93      3    PMP    C94     94 -0.01321000  12.010780   ; qtot -0.149600
   95 em_pmp_tetramer_94      3    PMP    C95     95 -0.12761000   9.994886   ; qtot -0.277210
   96 em_pmp_tetramer_95      3    PMP    C96     96 -0.09240000   9.994886   ; qtot -0.369610
   97 em_pmp_tetramer_96      3    PMP    C97     97 -0.13885000  12.010780   ; qtot -0.508460
   98 em_pmp_tetramer_97      3    PMP    C98     98 0.67596000  12.010780   ; qtot 0.167500
   99 em_pmp_tetramer_98      3    PMP    O99     99 -0.60551000  15.999430   ; qtot -0.438010
  100 em_pmp_tetramer_99      3    PMP   C100    100 -0.09240000   9.994886   ; qtot -0.530410
  101 em_pmp_tetramer_100      3    PMP   C101    101 -0.12761000   9.994886   ; qtot -0.658020
  102 em_pmp_tetramer_101      3    PMP   C102    102 -0.14305000   9.994886   ; qtot -0.801070
  103 em_pmp_tetramer_102      3    PMP   C103    103 -0.00325000  12.010780   ; qtot -0.804320
  104 em_pmp_tetramer_103      3    PMP   C104    104 -0.03460000  12.010780   ; qtot -0.838920
  105 em_pmp_tetramer_104      3    PMP   C105    105 -0.11753000   9.994886   ; qtot -0.956450
  106 em_pmp_tetramer_105      3    PMP   C106    106 -0.12144000   9.994886   ; qtot -1.077890
  107 em_pmp_tetramer_106      3    PMP   C107    107 -0.09188000  12.010780   ; qtot -1.169770
  108 em_pmp_tetramer_107      3    PMP   C108    108 0.14962000   9.994886   ; qtot -1.020150
  109 em_pmp_tetramer_108      3    PMP   C109    109 -0.11367000   5.963098   ; qtot -1.133820
  110 em_pmp_tetramer_109      3    PMP   N110    110 -0.56792998  11.990826   ; qtot -1.701750
  111 em_pmp_tetramer_110      3    PMP   C111    111 -0.12144000   9.994886   ; qtot -1.823190
  112 em_pmp_tetramer_111      3    PMP   C112    112 -0.11753000   9.994886   ; qtot -1.940720
  113 em_pmp_tetramer_112      3    PMP   C113    113 -0.18997000   9.994886   ; qtot -2.130690
  114 em_pmp_tetramer_113      3    PMP   H114    114 0.04573000   3.023841   ; qtot -2.084960
  115 em_pmp_tetramer_114      3    PMP   H115    115 0.04573000   3.023841   ; qtot -2.039230
  116 em_pmp_tetramer_115      3    PMP   H116    116 0.04573000   3.023841   ; qtot -1.993500
  117 em_pmp_tetramer_116      3    PMP   H117    117 0.15525000   3.023841   ; qtot -1.838250
  118 em_pmp_tetramer_117      3    PMP   H118    118 0.14083999   3.023841   ; qtot -1.697410
  119 em_pmp_tetramer_118      3    PMP   H119    119 0.14693999   3.023841   ; qtot -1.550470
  120 em_pmp_tetramer_119      3    PMP   H120    120 0.14693999   3.023841   ; qtot -1.403530
  121 em_pmp_tetramer_120      3    PMP   H121    121 0.14083999   3.023841   ; qtot -1.262690
  122 em_pmp_tetramer_121      3    PMP   H122    122 0.13823999   3.023841   ; qtot -1.124450
  123 em_pmp_tetramer_122      3    PMP   H123    123 0.13586999   3.023841   ; qtot -0.988580
  124 em_pmp_tetramer_123      3    PMP   H124    124 0.13643999   3.023841   ; qtot -0.852140
  125 em_pmp_tetramer_124      3    PMP   H125    125 0.08765000   3.023841   ; qtot -0.764490
  126 em_pmp_tetramer_125      3    PMP   H126    126 0.04698000   3.023841   ; qtot -0.717510
  127 em_pmp_tetramer_126      3    PMP   H127    127 0.04698000   3.023841   ; qtot -0.670530
  128 em_pmp_tetramer_127      3    PMP   H128    128 0.04698000   3.023841   ; qtot -0.623550
  129 em_pmp_tetramer_128      3    PMP   H129    129 0.31143999   3.023841   ; qtot -0.312110
  130 em_pmp_tetramer_129      3    PMP   H130    130 0.13643999   3.023841   ; qtot -0.175670
  131 em_pmp_tetramer_130      3    PMP   H131    131 0.13586999   3.023841   ; qtot -0.039800
  132 em_pmp_tetramer_131      3    PMP   H132    132 0.14329000   3.023841   ; qtot 0.103490
; residue    4 PMP rtp PMP q 0.0
  133 em_pmp_tetramer_132      4    PMP   C133    133 0.11292000   5.963098   ; qtot 0.216410
  134 em_pmp_tetramer_133      4    PMP   O134    134 -0.32699999  15.999430   ; qtot -0.110590
  135 em_pmp_tetramer_134      4    PMP   C135    135 0.12514000  12.010780   ; qtot 0.014550
  136 em_pmp_tetramer_135      4    PMP   C136    136 -0.19262999   9.994886   ; qtot -0.178080
  137 em_pmp_tetramer_136      4    PMP   C137    137 -0.00858000  12.010780   ; qtot -0.186660
  138 em_pmp_tetramer_137      4    PMP   C138    138 -0.01823000  12.010780   ; qtot -0.204890
  139 em_pmp_tetramer_138      4    PMP   C139    139 -0.12442000   9.994886   ; qtot -0.329310
  140 em_pmp_tetramer_139      4    PMP   C140    140 -0.08903000   9.994886   ; qtot -0.418340
  141 em_pmp_tetramer_140      4    PMP   C141    141 -0.14050999  12.010780   ; qtot -0.558850
  142 em_pmp_tetramer_141      4    PMP   C142    142 0.67462999  12.010780   ; qtot 0.115780
  143 em_pmp_tetramer_142      4    PMP   O143    143 -0.60808998  15.999430   ; qtot -0.492310
  144 em_pmp_tetramer_143      4    PMP   C144    144 -0.08903000   9.994886   ; qtot -0.581340
  145 em_pmp_tetramer_144      4    PMP   C145    145 -0.12442000   9.994886   ; qtot -0.705760
  146 em_pmp_tetramer_145      4    PMP   C146    146 -0.14587000   9.994886   ; qtot -0.851630
  147 em_pmp_tetramer_146      4    PMP   C147    147 -0.00681000  12.010780   ; qtot -0.858440
  148 em_pmp_tetramer_147      4    PMP   C148    148 -0.03296000  12.010780   ; qtot -0.891400
  149 em_pmp_tetramer_148      4    PMP   C149    149 -0.11740000   9.994886   ; qtot -1.008800
  150 em_pmp_tetramer_149      4    PMP   C150    150 -0.11839000   9.994886   ; qtot -1.127190
  151 em_pmp_tetramer_150      4    PMP   C151    151 -0.09436000  12.010780   ; qtot -1.221550
  152 em_pmp_tetramer_151      4    PMP   C152    152 0.16301000   9.994886   ; qtot -1.058540
  153 em_pmp_tetramer_152      4    PMP   C153    153 -0.11310000   5.963098   ; qtot -1.171640
  154 em_pmp_tetramer_153      4    PMP   N154    154 -0.56169999  11.990826   ; qtot -1.733340
  155 em_pmp_tetramer_154      4    PMP   C155    155 -0.11839000   9.994886   ; qtot -1.851730
  156 em_pmp_tetramer_155      4    PMP   C156    156 -0.11740000   9.994886   ; qtot -1.969130
  157 em_pmp_tetramer_156      4    PMP   C157    157 -0.13779999   9.994886   ; qtot -2.106930
  158 em_pmp_tetramer_157      4    PMP   H158    158 0.04579000   3.023841   ; qtot -2.061140
  159 em_pmp_tetramer_158      4    PMP   H159    159 0.04579000   3.023841   ; qtot -2.015350
  160 em_pmp_tetramer_159      4    PMP   H160    160 0.04579000   3.023841   ; qtot -1.969560
  161 em_pmp_tetramer_160      4    PMP   H161    161 0.14334001   3.023841   ; qtot -1.826220
  162 em_pmp_tetramer_161      4    PMP   H162    162 0.14022000   3.023841   ; qtot -1.686000
  163 em_pmp_tetramer_162      4    PMP   H163    163 0.14687000   3.023841   ; qtot -1.539130
  164 em_pmp_tetramer_163      4    PMP   H164    164 0.14687000   3.023841   ; qtot -1.392260
  165 em_pmp_tetramer_164      4    PMP   H165    165 0.14022000   3.023841   ; qtot -1.252040
  166 em_pmp_tetramer_165      4    PMP   H166    166 0.14139000   3.023841   ; qtot -1.110650
  167 em_pmp_tetramer_166      4    PMP   H167    167 0.13699999   3.023841   ; qtot -0.973650
  168 em_pmp_tetramer_167      4    PMP   H168    168 0.13702001   3.023841   ; qtot -0.836630
  169 em_pmp_tetramer_168      4    PMP   H169    169 0.08562000   3.023841   ; qtot -0.751010
  170 em_pmp_tetramer_169      4    PMP   H170    170 0.04732000   3.023841   ; qtot -0.703690
  171 em_pmp_tetramer_170      4    PMP   H171    171 0.04732000   3.023841   ; qtot -0.656370
  172 em_pmp_tetramer_171      4    PMP   H172    172 0.04732000   3.023841   ; qtot -0.609050
  173 em_pmp_tetramer_172      4    PMP   H173    173 0.32876000   3.023841   ; qtot -0.280290
  174 em_pmp_tetramer_173      4    PMP   H174    174 0.13702001   3.023841   ; qtot -0.143270
  175 em_pmp_tetramer_174      4    PMP   H175    175 0.13699999   3.023841   ; qtot -0.006270
  176 em_pmp_tetramer_175      4    PMP   H176    176 0.15441000   3.023841   ; qtot 0.148140
; residue    5 CAP rtp CAP q -0.2
  177 em_pmp_tetramer_176      5    CAP   C177    177 0.12532000   5.963098   ; qtot 0.273460
  178 em_pmp_tetramer_177      5    CAP   O178    178 -0.43923000  15.999430   ; qtot -0.165770
  179 em_pmp_tetramer_178      5    CAP   H179    179 0.05174000   3.023841   ; qtot -0.114030
  180 em_pmp_tetramer_179      5    CAP   H180    180 0.05174000   3.023841   ; qtot -0.062290
  181 em_pmp_tetramer_180      5    CAP   H181    181 0.05174000   3.023841   ; qtot -0.010550
; residue    6 CAP rtp CAP q 0.0
  182 em_pmp_tetramer_181      6    CAP   C182    182 -0.11438000   5.963098   ; qtot -0.124930
  183 em_pmp_tetramer_182      6    CAP   C183    183 0.18583000  12.010780   ; qtot 0.060900
  184 em_pmp_tetramer_183      6    CAP   C184    184 -0.11438000   5.963098   ; qtot -0.053480
  185 em_pmp_tetramer_184      6    CAP   C185    185 -0.11438000   5.963098   ; qtot -0.167860
  186 em_pmp_tetramer_185      6    CAP   O186    186 -0.45027000  15.999430   ; qtot -0.618130
  187 em_pmp_tetramer_186      6    CAP   C187    187 0.75382000  12.010780   ; qtot 0.135690
  188 em_pmp_tetramer_187      6    CAP   O188    188 -0.60351002  15.999430   ; qtot -0.467820
  189 em_pmp_tetramer_188      6    CAP   H189    189 0.05198000   3.023841   ; qtot -0.415840
  190 em_pmp_tetramer_189      6    CAP   H190    190 0.05198000   3.023841   ; qtot -0.363860
  191 em_pmp_tetramer_190      6    CAP   H191    191 0.05198000   3.023841   ; qtot -0.311880
  192 em_pmp_tetramer_191      6    CAP   H192    192 0.05198000   3.023841   ; qtot -0.259900
  193 em_pmp_tetramer_192      6    CAP   H193    193 0.05198000   3.023841   ; qtot -0.207920
  194 em_pmp_tetramer_193      6    CAP   H194    194 0.05198000   3.023841   ; qtot -0.155940
  195 em_pmp_tetramer_194      6    CAP   H195    195 0.05198000   3.023841   ; qtot -0.103960
  196 em_pmp_tetramer_195      6    CAP   H196    196 0.05198000   3.023841   ; qtot -0.051980
  197 em_pmp_tetramer_196      6    CAP   H197    197 0.05198000   3.023841   ; qtot -0.000000

[ bonds ]
;    ai     aj funct         c0         c1         c2         c3
      1      2     1   0.14259 306888.771877
      1     26     1   0.10929 317186.185379
      1     27     1   0.10929 317186.185379
      1     28     1   0.10929 317186.185379
      2      3     1   0.13629 356218.264001
      3      4     1   0.13872 301905.092579
      3     25     1   0.13872 301905.092579
      4      5     1   0.13872 301905.092579
      4     29     1   0.10854 332422.631675
      5      6     1   0.14546 233580.248618
      5     14     1   0.13872 301905.092579
      6      7     1   0.13872 301905.092579
      6     13     1   0.13872 301905.092579
      7      8     1   0.13872 301905.092579
      7     30     1   0.10854 332422.631675
      8      9     1   0.13872 301905.092579
      8     31     1   0.10854 332422.631675
      9     10     1   0.14546 233580.248618
      9     12     1   0.13872 301905.092579
     10     11     1   0.12252 487602.327766
     10    178     1   0.13457 252005.673257
     12     13     1   0.13872 301905.092579
     12     32     1   0.10854 332422.631675
     13     33     1   0.10854 332422.631675
     14     15     1   0.13872 301905.092579
     14     34     1   0.10854 332422.631675
     15     16     1   0.14546 233580.248618
     15     25     1   0.13872 301905.092579
     16     17     1   0.13872 301905.092579
     16     24     1   0.13872 301905.092579
     17     18     1   0.13872 301905.092579
     17     35     1   0.10854 332422.631675
     18     19     1   0.13872 301905.092579
     18     36     1   0.10854 332422.631675
     19     20     1   0.14986 242452.869388
     19     23     1   0.13872 301905.092579
     20     21     1   0.15219 221435.259290
     20     22     1   0.14501 294600.927776
     20     37     1   0.10929 317186.185379
     21     38     1   0.10929 317186.185379
     21     39     1   0.10929 317186.185379
     21     40     1   0.10929 317186.185379
     22     41     1   0.10195 422704.914414
     22     54     1   0.13819 412347.817359
     23     24     1   0.13872 301905.092579
     23     42     1   0.10854 332422.631675
     24     43     1   0.10854 332422.631675
     25     44     1   0.10854 332422.631675
     45     46     1   0.14259 306888.771877
     45     70     1   0.10929 317186.185379
     45     71     1   0.10929 317186.185379
     45     72     1   0.10929 317186.185379
     46     47     1   0.13629 356218.264001
     47     48     1   0.13872 301905.092579
     47     69     1   0.13872 301905.092579
     48     49     1   0.13872 301905.092579
     48     73     1   0.10854 332422.631675
     49     50     1   0.14546 233580.248618
     49     58     1   0.13872 301905.092579
     50     51     1   0.13872 301905.092579
     50     57     1   0.13872 301905.092579
     51     52     1   0.13872 301905.092579
     51     74     1   0.10854 332422.631675
     52     53     1   0.13872 301905.092579
     52     75     1   0.10854 332422.631675
     53     54     1   0.14546 233580.248618
     53     56     1   0.13872 301905.092579
     54     55     1   0.12252 487602.327766
     56     57     1   0.13872 301905.092579
     56     76     1   0.10854 332422.631675
     57     77     1   0.10854 332422.631675
     58     59     1   0.13872 301905.092579
     58     78     1   0.10854 332422.631675
     59     60     1   0.14546 233580.248618
     59     69     1   0.13872 301905.092579
     60     61     1   0.13872 301905.092579
     60     68     1   0.13872 301905.092579
     61     62     1   0.13872 301905.092579
     61     79     1   0.10854 332422.631675
     62     63     1   0.13872 301905.092579
     62     80     1   0.10854 332422.631675
     63     64     1   0.14986 242452.869388
     63     67     1   0.13872 301905.092579
     64     65     1   0.15219 221435.259290
     64     66     1   0.14501 294600.927776
     64     81     1   0.10929 317186.185379
     65     82     1   0.10929 317186.185379
     65     83     1   0.10929 317186.185379
     65     84     1   0.10929 317186.185379
     66     85     1   0.10195 422704.914414
     66     98     1   0.13819 412347.817359
     67     68     1   0.13872 301905.092579
     67     86     1   0.10854 332422.631675
     68     87     1   0.10854 332422.631675
     69     88     1   0.10854 332422.631675
     89     90     1   0.14259 306888.771877
     89    114     1   0.10929 317186.185379
     89    115     1   0.10929 317186.185379
     89    116     1   0.10929 317186.185379
     90     91     1   0.13629 356218.264001
     91     92     1   0.13872 301905.092579
     91    113     1   0.13872 301905.092579
     92     93     1   0.13872 301905.092579
     92    117     1   0.10854 332422.631675
     93     94     1   0.14546 233580.248618
     93    102     1   0.13872 301905.092579
     94     95     1   0.13872 301905.092579
     94    101     1   0.13872 301905.092579
     95     96     1   0.13872 301905.092579
     95    118     1   0.10854 332422.631675
     96     97     1   0.13872 301905.092579
     96    119     1   0.10854 332422.631675
     97     98     1   0.14546 233580.248618
     97    100     1   0.13872 301905.092579
     98     99     1   0.12252 487602.327766
    100    101     1   0.13872 301905.092579
    100    120     1   0.10854 332422.631675
    101    121     1   0.10854 332422.631675
    102    103     1   0.13872 301905.092579
    102    122     1   0.10854 332422.631675
    103    104     1   0.14546 233580.248618
    103    113     1   0.13872 301905.092579
    104    105     1   0.13872 301905.092579
    104    112     1   0.13872 301905.092579
    105    106     1   0.13872 301905.092579
    105    123     1   0.10854 332422.631675
    106    107     1   0.13872 301905.092579
    106    124     1   0.10854 332422.631675
    107    108     1   0.14986 242452.869388
    107    111     1   0.13872 301905.092579
    108    109     1   0.15219 221435.259290
    108    110     1   0.14501 294600.927776
    108    125     1   0.10929 317186.185379
    109    126     1   0.10929 317186.185379
    109    127     1   0.10929 317186.185379
    109    128     1   0.10929 317186.185379
    110    129     1   0.10195 422704.914414
    110    142     1   0.13819 412347.817359
    111    112     1   0.13872 301905.092579
    111    130     1   0.10854 332422.631675
    112    131     1   0.10854 332422.631675
    113    132     1   0.10854 332422.631675
    133    134     1   0.14259 306888.771877
    133    158     1   0.10929 317186.185379
    133    159     1   0.10929 317186.185379
    133    160     1   0.10929 317186.185379
    134    135     1   0.13629 356218.264001
    135    136     1   0.13872 301905.092579
    135    157     1   0.13872 301905.092579
    136    137     1   0.13872 301905.092579
    136    161     1   0.10854 332422.631675
    137    138     1   0.14546 233580.248618
    137    146     1   0.13872 301905.092579
    138    139     1   0.13872 301905.092579
    138    145     1   0.13872 301905.092579
    139    140     1   0.13872 301905.092579
    139    162     1   0.10854 332422.631675
    140    141     1   0.13872 301905.092579
    140    163     1   0.10854 332422.631675
    141    142     1   0.14546 233580.248618
    141    144     1   0.13872 301905.092579
    142    143     1   0.12252 487602.327766
    144    145     1   0.13872 301905.092579
    144    164     1   0.10854 332422.631675
    145    165     1   0.10854 332422.631675
    146    147     1   0.13872 301905.092579
    146    166     1   0.10854 332422.631675
    147    148     1   0.14546 233580.248618
    147    157     1   0.13872 301905.092579
    148    149     1   0.13872 301905.092579
    148    156     1   0.13872 301905.092579
    149    150     1   0.13872 301905.092579
    149    167     1   0.10854 332422.631675
    150    151     1   0.13872 301905.092579
    150    168     1   0.10854 332422.631675
    151    152     1   0.14986 242452.869388
    151    155     1   0.13872 301905.092579
    152    153     1   0.15219 221435.259290
    152    154     1   0.14501 294600.927776
    152    169     1   0.10929 317186.185379
    153    170     1   0.10929 317186.185379
    153    171     1   0.10929 317186.185379
    153    172     1   0.10929 317186.185379
    154    173     1   0.10195 422704.914414
    154    187     1   0.13819 412347.817359
    155    156     1   0.13872 301905.092579
    155    174     1   0.10854 332422.631675
    156    175     1   0.10854 332422.631675
    157    176     1   0.10854 332422.631675
    177    178     1   0.14259 306888.771877
    177    179     1   0.10929 317186.185379
    177    180     1   0.10929 317186.185379
    177    181     1   0.10929 317186.185379
    182    183     1   0.15219 221435.259290
    182    189     1   0.10929 317186.185379
    182    190     1   0.10929 317186.185379
    182    191     1   0.10929 317186.185379
    183    184     1   0.15219 221435.259290
    183    185     1   0.15219 221435.259290
    183    186     1   0.14259 306888.771877
    184    192     1   0.10929 317186.185379
    184    193     1   0.10929 317186.185379
    184    194     1   0.10929 317186.185379
    185    195     1   0.10929 317186.185379
    185    196     1   0.10929 317186.185379
    185    197     1   0.10929 317186.185379
    186    187     1   0.13457 252005.673257
    187    188     1   0.12252 487602.327766

[ pairs ]
;    ai     aj funct         c0         c1         c2         c3
    104    132     1
     89     92     1
    153    187     1
    125    142     1
     18     21     1
     42     43     1
    108    130     1
    150    174     1
     37     40     1
    186    191     1
     96    101     1
     66     67     1
    107    128     1
      3     28     1
    152    188     1
      4      7     1
    162    163     1
     53     74     1
      6     34     1
     54     76     1
     85     97     1
    151    172     1
     98    101     1
    185    194     1
    150    169     1
     93    121     1
      6     15     1
     46     73     1
    186    195     1
      7     33     1
     16     34     1
     90    103     1
    149    157     1
     19     35     1
    153    155     1
    104    107     1
    148    166     1
      8    178     1
      7     14     1
    139    146     1
     91    115     1
    145    162     1
    149    175     1
     66     83     1
     48     59     1
     67     80     1
     95     98     1
     63     98     1
     94    120     1
     62     86     1
     62     65     1
     90    132     1
    150    153     1
    139    142     1
     12    178     1
    134    161     1
    109    142     1
      5     33     1
     60     63     1
     54     57     1
    129    141     1
      3     26     1
      7     12     1
     15     35     1
    186    193     1
      4     44     1
      2     15     1
     66    100     1
     93     96     1
     64     80     1
    104    124     1
     21     54     1
     58     88     1
    136    166     1
    157    166     1
      8     11     1
     61     64     1
     64     86     1
     10     32     1
    134    147     1
     16     19     1
    125    126     1
     48     51     1
    147    175     1
      9    177     1
     81     85     1
     91    102     1
    144    163     1
    186    196     1
     52     57     1
    151    175     1
    157    161     1
     22     40     1
    182    197     1
     81     83     1
     17     43     1
     23     37     1
    152    168     1
    155    169     1
      8     32     1
     59     87     1
    151    167     1
    102    117     1
     94     97     1
    141    162     1
     95    100     1
      6     32     1
    142    145     1
     23     36     1
    125    129     1
    156    157     1
      5      8     1
    140    145     1
    136    147     1
     98    119     1
     17     20     1
     85     99     1
     92    122     1
     92    103     1
    105    113     1
     92    101     1
     48     78     1
     95    121     1
    108    112     1
      3     16     1
     50     78     1
    185    192     1
     19     39     1
      3     27     1
     90     93     1
     60     80     1
     51     56     1
    185    193     1
     92     95     1
      9     30     1
    156    167     1
     66     96     1
     47     71     1
    148    168     1
     92    132     1
    134    137     1
     89    113     1
    169    170     1
     64     99     1
    100    119     1
     93    100     1
     37     39     1
     19     43     1
     49     69     1
    110    126     1
     94    122     1
     47     70     1
     94    103     1
    154    170     1
     22     56     1
    151    173     1
    107    131     1
    169    187     1
    109    129     1
     61     69     1
     16     42     1
    139    165     1
     10    181     1
     46     59     1
     15     18     1
    125    127     1
    137    162     1
     59     79     1
     91    114     1
    164    165     1
     46     88     1
    140    143     1
     19     41     1
     90    117     1
    154    183     1
    106    109     1
    182    194     1
    108    141     1
    137    148     1
    110    111     1
      6     29     1
     49     60     1
     15     43     1
     20     42     1
     64     97     1
    149    155     1
     60     88     1
     18     22     1
     52     76     1
    182    187     1
     66     84     1
    110    140     1
    174    175     1
     51     54     1
    169    171     1
     79     80     1
    138    163     1
    129    143     1
     37     41     1
     66     82     1
    154    155     1
     91    116     1
    105    111     1
     65     98     1
    186    192     1
     16     44     1
    111    125     1
    184    190     1
    102    112     1
     50     76     1
    138    164     1
     50     73     1
    137    157     1
     63     85     1
     13     30     1
    136    145     1
     63     87     1
    103    131     1
    113    117     1
     22     52     1
     56     75     1
    146    149     1
     25     34     1
      2     29     1
      4     13     1
    125    128     1
    133    136     1
     63     83     1
     68     79     1
    137    140     1
    139    144     1
    102    105     1
    137    165     1
     22     39     1
     57     74     1
     58     68     1
     91     94     1
      2     44     1
    149    152     1
     49     77     1
    147    167     1
     35     36     1
     49     56     1
     97    118     1
    110    127     1
     81     84     1
     10     31     1
    182    195     1
     11     12     1
    107    142     1
     24     25     1
    148    176     1
    184    189     1
    136    139     1
    104    130     1
     81     82     1
    146    156     1
    106    130     1
     19     38     1
    148    151     1
     94    119     1
    110    144     1
     19     54     1
     52     55     1
     62     68     1
    118    119     1
     20     53     1
    184    187     1
      2      5     1
    153    173     1
     76     77     1
    140    164     1
     17     23     1
     20     24     1
     53     77     1
    135    146     1
    138    147     1
     14     29     1
     30     31     1
      6     31     1
     99    100     1
     22     23     1
    169    172     1
     37     54     1
      3     14     1
    145    146     1
      5     30     1
     63     79     1
     91    104     1
     14     44     1
     47     72     1
    182    193     1
    135    159     1
     64     68     1
     12     31     1
    185    190     1
     50     53     1
     95    102     1
    102    132     1
    154    172     1
    143    144     1
      1      4     1
     57     58     1
    152    156     1
    110    128     1
    138    141     1
    155    168     1
    112    113     1
     18     42     1
    137    144     1
     16     36     1
     14     17     1
    109    111     1
     94    117     1
    184    191     1
     50     75     1
     47     50     1
    106    125     1
    173    188     1
      1     25     1
    184    197     1
    108    143     1
    141    165     1
    146    176     1
    182    196     1
    101    102     1
     93    118     1
     62     81     1
     47     58     1
     67     81     1
    184    195     1
     20     36     1
     10     13     1
    123    124     1
     69     78     1
     14     24     1
    105    131     1
    186    197     1
    107    126     1
    173    186     1
    185    189     1
    151    170     1
    152    174     1
      4     34     1
    185    187     1
    183    188     1
    152    186     1
     93    113     1
      8     13     1
     68     69     1
    135    160     1
    135    148     1
      7     10     1
    154    171     1
     86     87     1
      4     15     1
     15     23     1
    151    187     1
     65     67     1
     96    120     1
    107    129     1
     50     59     1
     48     88     1
     98    120     1
      9     33     1
      5     16     1
     22     38     1
    107    123     1
    105    108     1
    186    190     1
     96     99     1
     65     85     1
    147    155     1
     81     98     1
    106    112     1
     63     84     1
    138    166     1
    133    157     1
     62     66     1
    103    106     1
     18     24     1
    135    158     1
     58     73     1
     63     82     1
    148    174     1
    184    196     1
     59     62     1
    113    122     1
    151    171     1
    142    163     1
     55     56     1
    185    191     1
     25     29     1
     93    104     1
     51     58     1
     45     69     1
    138    161     1
     11    177     1
     59     67     1
     17     25     1
     20     55     1
     48     57     1
    112    123     1
    134    176     1
     10    180     1
    167    168     1
      5     12     1
    142    164     1
    106    110     1
    103    111     1
    130    131     1
     69     73     1
     60     78     1
     97    121     1
    186    194     1
     61     67     1
    147    150     1
    186    189     1
    107    127     1
      5     25     1
    150    156     1
    146    161     1
      3      6     1
    150    154     1
     37     38     1
    169    173     1
     54     75     1
    108    124     1
    120    121     1
     18     37     1
    103    123     1
    135    138     1
     58     61     1
     46     49     1
    182    192     1
    111    124     1
     61     87     1
     41     55     1
    104    122     1
     32     33     1
     24     35     1
      6      9     1
    101    118     1
    136    176     1
     51     77     1
     41     53     1
     49     74     1
     45     48     1
     19     40     1
     21     41     1
     21     23     1
     10    179     1
     74     75     1
     60     86     1
     49     52     1
     13     14     1
     47     60     1

[ angles ]
;    ai     aj     ak funct         c0         c1         c2         c3
      1      2      3     1   110.3538806 544.678275
      2      1     26     1   107.6607822 425.669015
      2      1     27     1   107.6607822 425.669015
      2      1     28     1   107.6607822 425.669015
      2      3      4     1   126.8062420 484.492885
      2      3     25     1   126.8062420 484.492885
      3      4      5     1   126.8062420 484.492885
      3      4     29     1   129.1835930 285.070775
      3     25     15     1   126.8062420 484.492885
      3     25     44     1   129.1835930 285.070775
      4      3     25     1   126.8062420 484.492885
      4      5      6     1   126.8062420 484.492885
      4      5     14     1   126.8062420 484.492885
      5      4     29     1   129.1835930 285.070775
      5      6      7     1   126.8062420 484.492885
      5      6     13     1   126.8062420 484.492885
      5     14     15     1   126.8062420 484.492885
      5     14     34     1   129.1835930 285.070775
      6      5     14     1   126.8062420 484.492885
      6      7      8     1   126.8062420 484.492885
      6      7     30     1   129.1835930 285.070775
      6     13     12     1   126.8062420 484.492885
      6     13     33     1   129.1835930 285.070775
      7      6     13     1   126.8062420 484.492885
      7      8      9     1   126.8062420 484.492885
      7      8     31     1   129.1835930 285.070775
      8      7     30     1   129.1835930 285.070775
      8      9     10     1   126.8062420 484.492885
      8      9     12     1   126.8062420 484.492885
      9      8     31     1   129.1835930 285.070775
      9     10     11     1   126.8062420 484.492885
      9     10    178     1   126.8062420 484.492885
      9     12     13     1   126.8062420 484.492885
      9     12     32     1   129.1835930 285.070775
     10      9     12     1   126.8062420 484.492885
     10    178    177     1   110.3538806 544.678275
     11     10    178     1   127.4691416 1685.413543
     12     13     33     1   129.1835930 285.070775
     13     12     32     1   129.1835930 285.070775
     14     15     16     1   126.8062420 484.492885
     14     15     25     1   126.8062420 484.492885
     15     14     34     1   129.1835930 285.070775
     15     16     17     1   126.8062420 484.492885
     15     16     24     1   126.8062420 484.492885
     15     25     44     1   129.1835930 285.070775
     16     15     25     1   126.8062420 484.492885
     16     17     18     1   126.8062420 484.492885
     16     17     35     1   129.1835930 285.070775
     16     24     23     1   126.8062420 484.492885
     16     24     43     1   129.1835930 285.070775
     17     16     24     1   126.8062420 484.492885
     17     18     19     1   126.8062420 484.492885
     17     18     36     1   129.1835930 285.070775
     18     17     35     1   129.1835930 285.070775
     18     19     20     1   126.8062420 484.492885
     18     19     23     1   126.8062420 484.492885
     19     18     36     1   129.1835930 285.070775
     19     20     21     1   107.6607822 425.669015
     19     20     22     1   107.6607822 425.669015
     19     20     37     1   107.6607822 425.669015
     19     23     24     1   126.8062420 484.492885
     19     23     42     1   129.1835930 285.070775
     20     19     23     1   126.8062420 484.492885
     20     21     38     1   107.6607822 425.669015
     20     21     39     1   107.6607822 425.669015
     20     21     40     1   107.6607822 425.669015
     20     22     41     1   115.5071328 530.901283
     20     22     54     1   117.3465571 463.769802
     21     20     22     1   107.6607822 425.669015
     21     20     37     1   107.6607822 425.669015
     22     20     37     1   107.6607822 425.669015
     22     54     53     1   126.8062420 484.492885
     22     54     55     1   126.8062420 484.492885
     23     24     43     1   129.1835930 285.070775
     24     23     42     1   129.1835930 285.070775
     26      1     27     1   115.6031000 408.161690
     26      1     28     1   115.6031000 408.161690
     27      1     28     1   115.6031000 408.161690
     38     21     39     1   115.6031000 408.161690
     38     21     40     1   115.6031000 408.161690
     39     21     40     1   115.6031000 408.161690
     41     22     54     1   115.5071328 530.901283
     45     46     47     1   110.3538806 544.678275
     46     45     70     1   107.6607822 425.669015
     46     45     71     1   107.6607822 425.669015
     46     45     72     1   107.6607822 425.669015
     46     47     48     1   126.8062420 484.492885
     46     47     69     1   126.8062420 484.492885
     47     48     49     1   126.8062420 484.492885
     47     48     73     1   129.1835930 285.070775
     47     69     59     1   126.8062420 484.492885
     47     69     88     1   129.1835930 285.070775
     48     47     69     1   126.8062420 484.492885
     48     49     50     1   126.8062420 484.492885
     48     49     58     1   126.8062420 484.492885
     49     48     73     1   129.1835930 285.070775
     49     50     51     1   126.8062420 484.492885
     49     50     57     1   126.8062420 484.492885
     49     58     59     1   126.8062420 484.492885
     49     58     78     1   129.1835930 285.070775
     50     49     58     1   126.8062420 484.492885
     50     51     52     1   126.8062420 484.492885
     50     51     74     1   129.1835930 285.070775
     50     57     56     1   126.8062420 484.492885
     50     57     77     1   129.1835930 285.070775
     51     50     57     1   126.8062420 484.492885
     51     52     53     1   126.8062420 484.492885
     51     52     75     1   129.1835930 285.070775
     52     51     74     1   129.1835930 285.070775
     52     53     54     1   126.8062420 484.492885
     52     53     56     1   126.8062420 484.492885
     53     52     75     1   129.1835930 285.070775
     53     54     55     1   126.8062420 484.492885
     53     56     57     1   126.8062420 484.492885
     53     56     76     1   129.1835930 285.070775
     54     53     56     1   126.8062420 484.492885
     56     57     77     1   129.1835930 285.070775
     57     56     76     1   129.1835930 285.070775
     58     59     60     1   126.8062420 484.492885
     58     59     69     1   126.8062420 484.492885
     59     58     78     1   129.1835930 285.070775
     59     60     61     1   126.8062420 484.492885
     59     60     68     1   126.8062420 484.492885
     59     69     88     1   129.1835930 285.070775
     60     59     69     1   126.8062420 484.492885
     60     61     62     1   126.8062420 484.492885
     60     61     79     1   129.1835930 285.070775
     60     68     67     1   126.8062420 484.492885
     60     68     87     1   129.1835930 285.070775
     61     60     68     1   126.8062420 484.492885
     61     62     63     1   126.8062420 484.492885
     61     62     80     1   129.1835930 285.070775
     62     61     79     1   129.1835930 285.070775
     62     63     64     1   126.8062420 484.492885
     62     63     67     1   126.8062420 484.492885
     63     62     80     1   129.1835930 285.070775
     63     64     65     1   107.6607822 425.669015
     63     64     66     1   107.6607822 425.669015
     63     64     81     1   107.6607822 425.669015
     63     67     68     1   126.8062420 484.492885
     63     67     86     1   129.1835930 285.070775
     64     63     67     1   126.8062420 484.492885
     64     65     82     1   107.6607822 425.669015
     64     65     83     1   107.6607822 425.669015
     64     65     84     1   107.6607822 425.669015
     64     66     85     1   115.5071328 530.901283
     64     66     98     1   117.3465571 463.769802
     65     64     66     1   107.6607822 425.669015
     65     64     81     1   107.6607822 425.669015
     66     64     81     1   107.6607822 425.669015
     66     98     97     1   126.8062420 484.492885
     66     98     99     1   126.8062420 484.492885
     67     68     87     1   129.1835930 285.070775
     68     67     86     1   129.1835930 285.070775
     70     45     71     1   115.6031000 408.161690
     70     45     72     1   115.6031000 408.161690
     71     45     72     1   115.6031000 408.161690
     82     65     83     1   115.6031000 408.161690
     82     65     84     1   115.6031000 408.161690
     83     65     84     1   115.6031000 408.161690
     85     66     98     1   115.5071328 530.901283
     89     90     91     1   110.3538806 544.678275
     90     89    114     1   107.6607822 425.669015
     90     89    115     1   107.6607822 425.669015
     90     89    116     1   107.6607822 425.669015
     90     91     92     1   126.8062420 484.492885
     90     91    113     1   126.8062420 484.492885
     91     92     93     1   126.8062420 484.492885
     91     92    117     1   129.1835930 285.070775
     91    113    103     1   126.8062420 484.492885
     91    113    132     1   129.1835930 285.070775
     92     91    113     1   126.8062420 484.492885
     92     93     94     1   126.8062420 484.492885
     92     93    102     1   126.8062420 484.492885
     93     92    117     1   129.1835930 285.070775
     93     94     95     1   126.8062420 484.492885
     93     94    101     1   126.8062420 484.492885
     93    102    103     1   126.8062420 484.492885
     93    102    122     1   129.1835930 285.070775
     94     93    102     1   126.8062420 484.492885
     94     95     96     1   126.8062420 484.492885
     94     95    118     1   129.1835930 285.070775
     94    101    100     1   126.8062420 484.492885
     94    101    121     1   129.1835930 285.070775
     95     94    101     1   126.8062420 484.492885
     95     96     97     1   126.8062420 484.492885
     95     96    119     1   129.1835930 285.070775
     96     95    118     1   129.1835930 285.070775
     96     97     98     1   126.8062420 484.492885
     96     97    100     1   126.8062420 484.492885
     97     96    119     1   129.1835930 285.070775
     97     98     99     1   126.8062420 484.492885
     97    100    101     1   126.8062420 484.492885
     97    100    120     1   129.1835930 285.070775
     98     97    100     1   126.8062420 484.492885
    100    101    121     1   129.1835930 285.070775
    101    100    120     1   129.1835930 285.070775
    102    103    104     1   126.8062420 484.492885
    102    103    113     1   126.8062420 484.492885
    103    102    122     1   129.1835930 285.070775
    103    104    105     1   126.8062420 484.492885
    103    104    112     1   126.8062420 484.492885
    103    113    132     1   129.1835930 285.070775
    104    103    113     1   126.8062420 484.492885
    104    105    106     1   126.8062420 484.492885
    104    105    123     1   129.1835930 285.070775
    104    112    111     1   126.8062420 484.492885
    104    112    131     1   129.1835930 285.070775
    105    104    112     1   126.8062420 484.492885
    105    106    107     1   126.8062420 484.492885
    105    106    124     1   129.1835930 285.070775
    106    105    123     1   129.1835930 285.070775
    106    107    108     1   126.8062420 484.492885
    106    107    111     1   126.8062420 484.492885
    107    106    124     1   129.1835930 285.070775
    107    108    109     1   107.6607822 425.669015
    107    108    110     1   107.6607822 425.669015
    107    108    125     1   107.6607822 425.669015
    107    111    112     1   126.8062420 484.492885
    107    111    130     1   129.1835930 285.070775
    108    107    111     1   126.8062420 484.492885
    108    109    126     1   107.6607822 425.669015
    108    109    127     1   107.6607822 425.669015
    108    109    128     1   107.6607822 425.669015
    108    110    129     1   115.5071328 530.901283
    108    110    142     1   117.3465571 463.769802
    109    108    110     1   107.6607822 425.669015
    109    108    125     1   107.6607822 425.669015
    110    108    125     1   107.6607822 425.669015
    110    142    141     1   126.8062420 484.492885
    110    142    143     1   126.8062420 484.492885
    111    112    131     1   129.1835930 285.070775
    112    111    130     1   129.1835930 285.070775
    114     89    115     1   115.6031000 408.161690
    114     89    116     1   115.6031000 408.161690
    115     89    116     1   115.6031000 408.161690
    126    109    127     1   115.6031000 408.161690
    126    109    128     1   115.6031000 408.161690
    127    109    128     1   115.6031000 408.161690
    129    110    142     1   115.5071328 530.901283
    133    134    135     1   110.3538806 544.678275
    134    133    158     1   107.6607822 425.669015
    134    133    159     1   107.6607822 425.669015
    134    133    160     1   107.6607822 425.669015
    134    135    136     1   126.8062420 484.492885
    134    135    157     1   126.8062420 484.492885
    135    136    137     1   126.8062420 484.492885
    135    136    161     1   129.1835930 285.070775
    135    157    147     1   126.8062420 484.492885
    135    157    176     1   129.1835930 285.070775
    136    135    157     1   126.8062420 484.492885
    136    137    138     1   126.8062420 484.492885
    136    137    146     1   126.8062420 484.492885
    137    136    161     1   129.1835930 285.070775
    137    138    139     1   126.8062420 484.492885
    137    138    145     1   126.8062420 484.492885
    137    146    147     1   126.8062420 484.492885
    137    146    166     1   129.1835930 285.070775
    138    137    146     1   126.8062420 484.492885
    138    139    140     1   126.8062420 484.492885
    138    139    162     1   129.1835930 285.070775
    138    145    144     1   126.8062420 484.492885
    138    145    165     1   129.1835930 285.070775
    139    138    145     1   126.8062420 484.492885
    139    140    141     1   126.8062420 484.492885
    139    140    163     1   129.1835930 285.070775
    140    139    162     1   129.1835930 285.070775
    140    141    142     1   126.8062420 484.492885
    140    141    144     1   126.8062420 484.492885
    141    140    163     1   129.1835930 285.070775
    141    142    143     1   126.8062420 484.492885
    141    144    145     1   126.8062420 484.492885
    141    144    164     1   129.1835930 285.070775
    142    141    144     1   126.8062420 484.492885
    144    145    165     1   129.1835930 285.070775
    145    144    164     1   129.1835930 285.070775
    146    147    148     1   126.8062420 484.492885
    146    147    157     1   126.8062420 484.492885
    147    146    166     1   129.1835930 285.070775
    147    148    149     1   126.8062420 484.492885
    147    148    156     1   126.8062420 484.492885
    147    157    176     1   129.1835930 285.070775
    148    147    157     1   126.8062420 484.492885
    148    149    150     1   126.8062420 484.492885
    148    149    167     1   129.1835930 285.070775
    148    156    155     1   126.8062420 484.492885
    148    156    175     1   129.1835930 285.070775
    149    148    156     1   126.8062420 484.492885
    149    150    151     1   126.8062420 484.492885
    149    150    168     1   129.1835930 285.070775
    150    149    167     1   129.1835930 285.070775
    150    151    152     1   126.8062420 484.492885
    150    151    155     1   126.8062420 484.492885
    151    150    168     1   129.1835930 285.070775
    151    152    153     1   107.6607822 425.669015
    151    152    154     1   107.6607822 425.669015
    151    152    169     1   107.6607822 425.669015
    151    155    156     1   126.8062420 484.492885
    151    155    174     1   129.1835930 285.070775
    152    151    155     1   126.8062420 484.492885
    152    153    170     1   107.6607822 425.669015
    152    153    171     1   107.6607822 425.669015
    152    153    172     1   107.6607822 425.669015
    152    154    173     1   115.5071328 530.901283
    152    154    187     1   117.3465571 463.769802
    153    152    154     1   107.6607822 425.669015
    153    152    169     1   107.6607822 425.669015
    154    152    169     1   107.6607822 425.669015
    154    187    186     1   126.8062420 484.492885
    154    187    188     1   126.8062420 484.492885
    155    156    175     1   129.1835930 285.070775
    156    155    174     1   129.1835930 285.070775
    158    133    159     1   115.6031000 408.161690
    158    133    160     1   115.6031000 408.161690
    159    133    160     1   115.6031000 408.161690
    170    153    171     1   115.6031000 408.161690
    170    153    172     1   115.6031000 408.161690
    171    153    172     1   115.6031000 408.161690
    173    154    187     1   115.5071328 530.901283
    178    177    179     1   107.6607822 425.669015
    178    177    180     1   107.6607822 425.669015
    178    177    181     1   107.6607822 425.669015
    179    177    180     1   115.6031000 408.161690
    179    177    181     1   115.6031000 408.161690
    180    177    181     1   115.6031000 408.161690
    182    183    184     1   107.6607822 425.669015
    182    183    185     1   107.6607822 425.669015
    182    183    186     1   107.6607822 425.669015
    183    182    189     1   107.6607822 425.669015
    183    182    190     1   107.6607822 425.669015
    183    182    191     1   107.6607822 425.669015
    183    184    192     1   107.6607822 425.669015
    183    184    193     1   107.6607822 425.669015
    183    184    194     1   107.6607822 425.669015
    183    185    195     1   107.6607822 425.669015
    183    185    196     1   107.6607822 425.669015
    183    185    197     1   107.6607822 425.669015
    183    186    187     1   110.3538806 544.678275
    184    183    185     1   107.6607822 425.669015
    184    183    186     1   107.6607822 425.669015
    185    183    186     1   107.6607822 425.669015
    186    187    188     1   127.4691416 1685.413543
    189    182    190     1   115.6031000 408.161690
    189    182    191     1   115.6031000 408.161690
    190    182    191     1   115.6031000 408.161690
    192    184    193     1   115.6031000 408.161690
    192    184    194     1   115.6031000 408.161690
    193    184    194     1   115.6031000 408.161690
    195    185    196     1   115.6031000 408.161690
    195    185    197     1   115.6031000 408.161690
    196    185    197     1   115.6031000 408.161690

[ dihedrals ]
;    ai     aj     ak     al funct         c0         c1         c2         c3         c4         c5
      1      2      3      4     1  180.0000000  6.4108617  2
      1      2      3     25     1  180.0000000  6.4108617  2
      2      3      4      5     1  180.0000000  15.3215155  2
      2      3      4     29     1  180.0000000  15.3215155  2
      2      3     25     15     1  180.0000000  15.3215155  2
      2      3     25     44     1  180.0000000  15.3215155  2
      3      2      1     26     1  0.0000000  0.1982205  3
      3      2      1     27     1  0.0000000  0.1982205  3
      3      2      1     28     1  0.0000000  0.1982205  3
      3      4      5      6     1  180.0000000  15.3215155  2
      3      4      5     14     1  180.0000000  15.3215155  2
      3     25     15     14     1  180.0000000  15.3215155  2
      3     25     15     16     1  180.0000000  15.3215155  2
      4      3     25     15     1  180.0000000  15.3215155  2
      4      3     25     44     1  180.0000000  15.3215155  2
      4      5      6      7     1  180.0000000  4.8669776  2
      4      5      6     13     1  180.0000000  4.8669776  2
      4      5     14     15     1  180.0000000  15.3215155  2
      4      5     14     34     1  180.0000000  15.3215155  2
      5      4      3     25     1  180.0000000  15.3215155  2
      5      6      7      8     1  180.0000000  15.3215155  2
      5      6      7     30     1  180.0000000  15.3215155  2
      5      6     13     12     1  180.0000000  15.3215155  2
      5      6     13     33     1  180.0000000  15.3215155  2
      5     14     15     16     1  180.0000000  15.3215155  2
      5     14     15     25     1  180.0000000  15.3215155  2
      6      5      4     29     1  180.0000000  15.3215155  2
      6      5     14     15     1  180.0000000  15.3215155  2
      6      5     14     34     1  180.0000000  15.3215155  2
      6      7      8      9     1  180.0000000  15.3215155  2
      6      7      8     31     1  180.0000000  15.3215155  2
      6     13     12      9     1  180.0000000  15.3215155  2
      6     13     12     32     1  180.0000000  15.3215155  2
      7      6      5     14     1  180.0000000  4.8669776  2
      7      6     13     12     1  180.0000000  15.3215155  2
      7      6     13     33     1  180.0000000  15.3215155  2
      7      8      9     10     1  180.0000000  15.3215155  2
      7      8      9     12     1  180.0000000  15.3215155  2
      8      7      6     13     1  180.0000000  15.3215155  2
      8      9     10     11     1  180.0000000  4.1731909  2
      8      9     10    178     1  180.0000000  4.1731909  2
      8      9     12     13     1  180.0000000  15.3215155  2
      8      9     12     32     1  180.0000000  15.3215155  2
      9      8      7     30     1  180.0000000  15.3215155  2
      9     10    178    177     1  180.0000000  11.6309081  2
      9     12     13     33     1  180.0000000  15.3215155  2
     10      9      8     31     1  180.0000000  15.3215155  2
     10      9     12     13     1  180.0000000  15.3215155  2
     10      9     12     32     1  180.0000000  15.3215155  2
     10    178    177    179     1  0.0000000  0.1982205  3
     10    178    177    180     1  0.0000000  0.1982205  3
     10    178    177    181     1  0.0000000  0.1982205  3
     11     10      9     12     1  180.0000000  4.1731909  2
     11     10    178    177     1  180.0000000  4.8693776  2
     11     10    178    177     1  180.0000000  0.7025718  1
     12      9      8     31     1  180.0000000  15.3215155  2
     12      9     10    178     1  180.0000000  4.1731909  2
     13      6      5     14     1  180.0000000  4.8669776  2
     13      6      7     30     1  180.0000000  15.3215155  2
     14      5      4     29     1  180.0000000  15.3215155  2
     14     15     16     17     1  180.0000000  4.8669776  2
     14     15     16     24     1  180.0000000  4.8669776  2
     14     15     25     44     1  180.0000000  15.3215155  2
     15     16     17     18     1  180.0000000  15.3215155  2
     15     16     17     35     1  180.0000000  15.3215155  2
     15     16     24     23     1  180.0000000  15.3215155  2
     15     16     24     43     1  180.0000000  15.3215155  2
     16     15     14     34     1  180.0000000  15.3215155  2
     16     15     25     44     1  180.0000000  15.3215155  2
     16     17     18     19     1  180.0000000  15.3215155  2
     16     17     18     36     1  180.0000000  15.3215155  2
     16     24     23     19     1  180.0000000  15.3215155  2
     16     24     23     42     1  180.0000000  15.3215155  2
     17     16     15     25     1  180.0000000  4.8669776  2
     17     16     24     23     1  180.0000000  15.3215155  2
     17     16     24     43     1  180.0000000  15.3215155  2
     17     18     19     20     1  180.0000000  15.3215155  2
     17     18     19     23     1  180.0000000  15.3215155  2
     18     17     16     24     1  180.0000000  15.3215155  2
     18     19     20     21     1  0.0000000  0.1115010  3
     18     19     20     22     1  0.0000000  0.1115010  3
     18     19     20     37     1  0.0000000  0.1115010  3
     18     19     23     24     1  180.0000000  15.3215155  2
     18     19     23     42     1  180.0000000  15.3215155  2
     19     18     17     35     1  180.0000000  15.3215155  2
     19     20     21     38     1  0.0000000  0.4834079  3
     19     20     21     39     1  0.0000000  0.4834079  3
     19     20     21     40     1  0.0000000  0.4834079  3
     19     20     22     41     1  0.0000000  0.7624859  2
     19     20     22     41     1  0.0000000  0.1243628  3
     19     20     22     54     1  180.0000000  -2.8834993  2
     19     20     22     54     1  0.0000000  1.1413309  1
     19     23     24     43     1  180.0000000  15.3215155  2
     20     19     18     36     1  180.0000000  15.3215155  2
     20     19     23     24     1  180.0000000  15.3215155  2
     20     19     23     42     1  180.0000000  15.3215155  2
     20     22     54     53     1  180.0000000  7.5690543  2
     20     22     54     53     1  0.0000000  -0.2015131  1
     20     22     54     55     1  180.0000000  12.9785537  2
     20     22     54     55     1  0.0000000  -1.7791009  1
     21     20     19     23     1  0.0000000  0.1115010  3
     21     20     22     41     1  0.0000000  0.7624859  2
     21     20     22     41     1  0.0000000  0.1243628  3
     21     20     22     54     1  180.0000000  -0.6228629  4
     21     20     22     54     1  180.0000000  -0.5147696  3
     21     20     22     54     1  0.0000000  1.2298012  2
     21     20     22     54     1  0.0000000  -1.2652947  1
     22     20     19     23     1  0.0000000  0.1115010  3
     22     20     21     38     1  0.0000000  0.4834079  3
     22     20     21     39     1  0.0000000  0.4834079  3
     22     20     21     40     1  0.0000000  0.4834079  3
     22     54     53     52     1  180.0000000  4.1731909  2
     22     54     53     56     1  180.0000000  4.1731909  2
     23     19     18     36     1  180.0000000  15.3215155  2
     23     19     20     37     1  0.0000000  0.1115010  3
     24     16     15     25     1  180.0000000  4.8669776  2
     24     16     17     35     1  180.0000000  15.3215155  2
     25      3      4     29     1  180.0000000  15.3215155  2
     25     15     14     34     1  180.0000000  15.3215155  2
     30      7      8     31     1  180.0000000  15.3215155  2
     32     12     13     33     1  180.0000000  15.3215155  2
     35     17     18     36     1  180.0000000  15.3215155  2
     37     20     21     38     1  0.0000000  0.7999501  3
     37     20     21     39     1  0.0000000  0.7999501  3
     37     20     21     40     1  0.0000000  0.7999501  3
     37     20     22     41     1  0.0000000  0.7624859  2
     37     20     22     41     1  0.0000000  0.1243628  3
     37     20     22     54     1  0.0000000  0.7624859  2
     37     20     22     54     1  0.0000000  0.1243628  3
     41     22     54     53     1  180.0000000  7.5690543  2
     41     22     54     53     1  0.0000000  -0.2015131  1
     41     22     54     55     1  180.0000000  9.8256037  2
     41     22     54     55     1  0.0000000  5.2557574  1
     42     23     24     43     1  180.0000000  15.3215155  2
     45     46     47     48     1  180.0000000  6.4108617  2
     45     46     47     69     1  180.0000000  6.4108617  2
     46     47     48     49     1  180.0000000  15.3215155  2
     46     47     48     73     1  180.0000000  15.3215155  2
     46     47     69     59     1  180.0000000  15.3215155  2
     46     47     69     88     1  180.0000000  15.3215155  2
     47     46     45     70     1  0.0000000  0.1982205  3
     47     46     45     71     1  0.0000000  0.1982205  3
     47     46     45     72     1  0.0000000  0.1982205  3
     47     48     49     50     1  180.0000000  15.3215155  2
     47     48     49     58     1  180.0000000  15.3215155  2
     47     69     59     58     1  180.0000000  15.3215155  2
     47     69     59     60     1  180.0000000  15.3215155  2
     48     47     69     59     1  180.0000000  15.3215155  2
     48     47     69     88     1  180.0000000  15.3215155  2
     48     49     50     51     1  180.0000000  4.8669776  2
     48     49     50     57     1  180.0000000  4.8669776  2
     48     49     58     59     1  180.0000000  15.3215155  2
     48     49     58     78     1  180.0000000  15.3215155  2
     49     48     47     69     1  180.0000000  15.3215155  2
     49     50     51     52     1  180.0000000  15.3215155  2
     49     50     51     74     1  180.0000000  15.3215155  2
     49     50     57     56     1  180.0000000  15.3215155  2
     49     50     57     77     1  180.0000000  15.3215155  2
     49     58     59     60     1  180.0000000  15.3215155  2
     49     58     59     69     1  180.0000000  15.3215155  2
     50     49     48     73     1  180.0000000  15.3215155  2
     50     49     58     59     1  180.0000000  15.3215155  2
     50     49     58     78     1  180.0000000  15.3215155  2
     50     51     52     53     1  180.0000000  15.3215155  2
     50     51     52     75     1  180.0000000  15.3215155  2
     50     57     56     53     1  180.0000000  15.3215155  2
     50     57     56     76     1  180.0000000  15.3215155  2
     51     50     49     58     1  180.0000000  4.8669776  2
     51     50     57     56     1  180.0000000  15.3215155  2
     51     50     57     77     1  180.0000000  15.3215155  2
     51     52     53     54     1  180.0000000  15.3215155  2
     51     52     53     56     1  180.0000000  15.3215155  2
     52     51     50     57     1  180.0000000  15.3215155  2
     52     53     54     55     1  180.0000000  4.1731909  2
     52     53     56     57     1  180.0000000  15.3215155  2
     52     53     56     76     1  180.0000000  15.3215155  2
     53     52     51     74     1  180.0000000  15.3215155  2
     53     56     57     77     1  180.0000000  15.3215155  2
     54     53     52     75     1  180.0000000  15.3215155  2
     54     53     56     57     1  180.0000000  15.3215155  2
     54     53     56     76     1  180.0000000  15.3215155  2
     55     54     53     56     1  180.0000000  4.1731909  2
     56     53     52     75     1  180.0000000  15.3215155  2
     57     50     49     58     1  180.0000000  4.8669776  2
     57     50     51     74     1  180.0000000  15.3215155  2
     58     49     48     73     1  180.0000000  15.3215155  2
     58     59     60     61     1  180.0000000  4.8669776  2
     58     59     60     68     1  180.0000000  4.8669776  2
     58     59     69     88     1  180.0000000  15.3215155  2
     59     60     61     62     1  180.0000000  15.3215155  2
     59     60     61     79     1  180.0000000  15.3215155  2
     59     60     68     67     1  180.0000000  15.3215155  2
     59     60     68     87     1  180.0000000  15.3215155  2
     60     59     58     78     1  180.0000000  15.3215155  2
     60     59     69     88     1  180.0000000  15.3215155  2
     60     61     62     63     1  180.0000000  15.3215155  2
     60     61     62     80     1  180.0000000  15.3215155  2
     60     68     67     63     1  180.0000000  15.3215155  2
     60     68     67     86     1  180.0000000  15.3215155  2
     61     60     59     69     1  180.0000000  4.8669776  2
     61     60     68     67     1  180.0000000  15.3215155  2
     61     60     68     87     1  180.0000000  15.3215155  2
     61     62     63     64     1  180.0000000  15.3215155  2
     61     62     63     67     1  180.0000000  15.3215155  2
     62     61     60     68     1  180.0000000  15.3215155  2
     62     63     64     65     1  0.0000000  0.1115010  3
     62     63     64     66     1  0.0000000  0.1115010  3
     62     63     64     81     1  0.0000000  0.1115010  3
     62     63     67     68     1  180.0000000  15.3215155  2
     62     63     67     86     1  180.0000000  15.3215155  2
     63     62     61     79     1  180.0000000  15.3215155  2
     63     64     65     82     1  0.0000000  0.4834079  3
     63     64     65     83     1  0.0000000  0.4834079  3
     63     64     65     84     1  0.0000000  0.4834079  3
     63     64     66     85     1  0.0000000  0.7624859  2
     63     64     66     85     1  0.0000000  0.1243628  3
     63     64     66     98     1  180.0000000  -2.8834993  2
     63     64     66     98     1  0.0000000  1.1413309  1
     63     67     68     87     1  180.0000000  15.3215155  2
     64     63     62     80     1  180.0000000  15.3215155  2
     64     63     67     68     1  180.0000000  15.3215155  2
     64     63     67     86     1  180.0000000  15.3215155  2
     64     66     98     97     1  180.0000000  7.5690543  2
     64     66     98     97     1  0.0000000  -0.2015131  1
     64     66     98     99     1  180.0000000  12.9785537  2
     64     66     98     99     1  0.0000000  -1.7791009  1
     65     64     63     67     1  0.0000000  0.1115010  3
     65     64     66     85     1  0.0000000  0.7624859  2
     65     64     66     85     1  0.0000000  0.1243628  3
     65     64     66     98     1  180.0000000  -0.6228629  4
     65     64     66     98     1  180.0000000  -0.5147696  3
     65     64     66     98     1  0.0000000  1.2298012  2
     65     64     66     98     1  0.0000000  -1.2652947  1
     66     64     63     67     1  0.0000000  0.1115010  3
     66     64     65     82     1  0.0000000  0.4834079  3
     66     64     65     83     1  0.0000000  0.4834079  3
     66     64     65     84     1  0.0000000  0.4834079  3
     66     98     97     96     1  180.0000000  4.1731909  2
     66     98     97    100     1  180.0000000  4.1731909  2
     67     63     62     80     1  180.0000000  15.3215155  2
     67     63     64     81     1  0.0000000  0.1115010  3
     68     60     59     69     1  180.0000000  4.8669776  2
     68     60     61     79     1  180.0000000  15.3215155  2
     69     47     48     73     1  180.0000000  15.3215155  2
     69     59     58     78     1  180.0000000  15.3215155  2
     74     51     52     75     1  180.0000000  15.3215155  2
     76     56     57     77     1  180.0000000  15.3215155  2
     79     61     62     80     1  180.0000000  15.3215155  2
     81     64     65     82     1  0.0000000  0.7999501  3
     81     64     65     83     1  0.0000000  0.7999501  3
     81     64     65     84     1  0.0000000  0.7999501  3
     81     64     66     85     1  0.0000000  0.7624859  2
     81     64     66     85     1  0.0000000  0.1243628  3
     81     64     66     98     1  0.0000000  0.7624859  2
     81     64     66     98     1  0.0000000  0.1243628  3
     85     66     98     97     1  180.0000000  7.5690543  2
     85     66     98     97     1  0.0000000  -0.2015131  1
     85     66     98     99     1  180.0000000  9.8256037  2
     85     66     98     99     1  0.0000000  5.2557574  1
     86     67     68     87     1  180.0000000  15.3215155  2
     89     90     91     92     1  180.0000000  6.4108617  2
     89     90     91    113     1  180.0000000  6.4108617  2
     90     91     92     93     1  180.0000000  15.3215155  2
     90     91     92    117     1  180.0000000  15.3215155  2
     90     91    113    103     1  180.0000000  15.3215155  2
     90     91    113    132     1  180.0000000  15.3215155  2
     91     90     89    114     1  0.0000000  0.1982205  3
     91     90     89    115     1  0.0000000  0.1982205  3
     91     90     89    116     1  0.0000000  0.1982205  3
     91     92     93     94     1  180.0000000  15.3215155  2
     91     92     93    102     1  180.0000000  15.3215155  2
     91    113    103    102     1  180.0000000  15.3215155  2
     91    113    103    104     1  180.0000000  15.3215155  2
     92     91    113    103     1  180.0000000  15.3215155  2
     92     91    113    132     1  180.0000000  15.3215155  2
     92     93     94     95     1  180.0000000  4.8669776  2
     92     93     94    101     1  180.0000000  4.8669776  2
     92     93    102    103     1  180.0000000  15.3215155  2
     92     93    102    122     1  180.0000000  15.3215155  2
     93     92     91    113     1  180.0000000  15.3215155  2
     93     94     95     96     1  180.0000000  15.3215155  2
     93     94     95    118     1  180.0000000  15.3215155  2
     93     94    101    100     1  180.0000000  15.3215155  2
     93     94    101    121     1  180.0000000  15.3215155  2
     93    102    103    104     1  180.0000000  15.3215155  2
     93    102    103    113     1  180.0000000  15.3215155  2
     94     93     92    117     1  180.0000000  15.3215155  2
     94     93    102    103     1  180.0000000  15.3215155  2
     94     93    102    122     1  180.0000000  15.3215155  2
     94     95     96     97     1  180.0000000  15.3215155  2
     94     95     96    119     1  180.0000000  15.3215155  2
     94    101    100     97     1  180.0000000  15.3215155  2
     94    101    100    120     1  180.0000000  15.3215155  2
     95     94     93    102     1  180.0000000  4.8669776  2
     95     94    101    100     1  180.0000000  15.3215155  2
     95     94    101    121     1  180.0000000  15.3215155  2
     95     96     97     98     1  180.0000000  15.3215155  2
     95     96     97    100     1  180.0000000  15.3215155  2
     96     95     94    101     1  180.0000000  15.3215155  2
     96     97     98     99     1  180.0000000  4.1731909  2
     96     97    100    101     1  180.0000000  15.3215155  2
     96     97    100    120     1  180.0000000  15.3215155  2
     97     96     95    118     1  180.0000000  15.3215155  2
     97    100    101    121     1  180.0000000  15.3215155  2
     98     97     96    119     1  180.0000000  15.3215155  2
     98     97    100    101     1  180.0000000  15.3215155  2
     98     97    100    120     1  180.0000000  15.3215155  2
     99     98     97    100     1  180.0000000  4.1731909  2
    100     97     96    119     1  180.0000000  15.3215155  2
    101     94     93    102     1  180.0000000  4.8669776  2
    101     94     95    118     1  180.0000000  15.3215155  2
    102     93     92    117     1  180.0000000  15.3215155  2
    102    103    104    105     1  180.0000000  4.8669776  2
    102    103    104    112     1  180.0000000  4.8669776  2
    102    103    113    132     1  180.0000000  15.3215155  2
    103    104    105    106     1  180.0000000  15.3215155  2
    103    104    105    123     1  180.0000000  15.3215155  2
    103    104    112    111     1  180.0000000  15.3215155  2
    103    104    112    131     1  180.0000000  15.3215155  2
    104    103    102    122     1  180.0000000  15.3215155  2
    104    103    113    132     1  180.0000000  15.3215155  2
    104    105    106    107     1  180.0000000  15.3215155  2
    104    105    106    124     1  180.0000000  15.3215155  2
    104    112    111    107     1  180.0000000  15.3215155  2
    104    112    111    130     1  180.0000000  15.3215155  2
    105    104    103    113     1  180.0000000  4.8669776  2
    105    104    112    111     1  180.0000000  15.3215155  2
    105    104    112    131     1  180.0000000  15.3215155  2
    105    106    107    108     1  180.0000000  15.3215155  2
    105    106    107    111     1  180.0000000  15.3215155  2
    106    105    104    112     1  180.0000000  15.3215155  2
    106    107    108    109     1  0.0000000  0.1115010  3
    106    107    108    110     1  0.0000000  0.1115010  3
    106    107    108    125     1  0.0000000  0.1115010  3
    106    107    111    112     1  180.0000000  15.3215155  2
    106    107    111    130     1  180.0000000  15.3215155  2
    107    106    105    123     1  180.0000000  15.3215155  2
    107    108    109    126     1  0.0000000  0.4834079  3
    107    108    109    127     1  0.0000000  0.4834079  3
    107    108    109    128     1  0.0000000  0.4834079  3
    107    108    110    129     1  0.0000000  0.7624859  2
    107    108    110    129     1  0.0000000  0.1243628  3
    107    108    110    142     1  180.0000000  -2.8834993  2
    107    108    110    142     1  0.0000000  1.1413309  1
    107    111    112    131     1  180.0000000  15.3215155  2
    108    107    106    124     1  180.0000000  15.3215155  2
    108    107    111    112     1  180.0000000  15.3215155  2
    108    107    111    130     1  180.0000000  15.3215155  2
    108    110    142    141     1  180.0000000  7.5690543  2
    108    110    142    141     1  0.0000000  -0.2015131  1
    108    110    142    143     1  180.0000000  12.9785537  2
    108    110    142    143     1  0.0000000  -1.7791009  1
    109    108    107    111     1  0.0000000  0.1115010  3
    109    108    110    129     1  0.0000000  0.7624859  2
    109    108    110    129     1  0.0000000  0.1243628  3
    109    108    110    142     1  180.0000000  -0.6228629  4
    109    108    110    142     1  180.0000000  -0.5147696  3
    109    108    110    142     1  0.0000000  1.2298012  2
    109    108    110    142     1  0.0000000  -1.2652947  1
    110    108    107    111     1  0.0000000  0.1115010  3
    110    108    109    126     1  0.0000000  0.4834079  3
    110    108    109    127     1  0.0000000  0.4834079  3
    110    108    109    128     1  0.0000000  0.4834079  3
    110    142    141    140     1  180.0000000  4.1731909  2
    110    142    141    144     1  180.0000000  4.1731909  2
    111    107    106    124     1  180.0000000  15.3215155  2
    111    107    108    125     1  0.0000000  0.1115010  3
    112    104    103    113     1  180.0000000  4.8669776  2
    112    104    105    123     1  180.0000000  15.3215155  2
    113     91     92    117     1  180.0000000  15.3215155  2
    113    103    102    122     1  180.0000000  15.3215155  2
    118     95     96    119     1  180.0000000  15.3215155  2
    120    100    101    121     1  180.0000000  15.3215155  2
    123    105    106    124     1  180.0000000  15.3215155  2
    125    108    109    126     1  0.0000000  0.7999501  3
    125    108    109    127     1  0.0000000  0.7999501  3
    125    108    109    128     1  0.0000000  0.7999501  3
    125    108    110    129     1  0.0000000  0.7624859  2
    125    108    110    129     1  0.0000000  0.1243628  3
    125    108    110    142     1  0.0000000  0.7624859  2
    125    108    110    142     1  0.0000000  0.1243628  3
    129    110    142    141     1  180.0000000  7.5690543  2
    129    110    142    141     1  0.0000000  -0.2015131  1
    129    110    142    143     1  180.0000000  9.8256037  2
    129    110    142    143     1  0.0000000  5.2557574  1
    130    111    112    131     1  180.0000000  15.3215155  2
    133    134    135    136     1  180.0000000  6.4108617  2
    133    134    135    157     1  180.0000000  6.4108617  2
    134    135    136    137     1  180.0000000  15.3215155  2
    134    135    136    161     1  180.0000000  15.3215155  2
    134    135    157    147     1  180.0000000  15.3215155  2
    134    135    157    176     1  180.0000000  15.3215155  2
    135    134    133    158     1  0.0000000  0.1982205  3
    135    134    133    159     1  0.0000000  0.1982205  3
    135    134    133    160     1  0.0000000  0.1982205  3
    135    136    137    138     1  180.0000000  15.3215155  2
    135    136    137    146     1  180.0000000  15.3215155  2
    135    157    147    146     1  180.0000000  15.3215155  2
    135    157    147    148     1  180.0000000  15.3215155  2
    136    135    157    147     1  180.0000000  15.3215155  2
    136    135    157    176     1  180.0000000  15.3215155  2
    136    137    138    139     1  180.0000000  4.8669776  2
    136    137    138    145     1  180.0000000  4.8669776  2
    136    137    146    147     1  180.0000000  15.3215155  2
    136    137    146    166     1  180.0000000  15.3215155  2
    137    136    135    157     1  180.0000000  15.3215155  2
    137    138    139    140     1  180.0000000  15.3215155  2
    137    138    139    162     1  180.0000000  15.3215155  2
    137    138    145    144     1  180.0000000  15.3215155  2
    137    138    145    165     1  180.0000000  15.3215155  2
    137    146    147    148     1  180.0000000  15.3215155  2
    137    146    147    157     1  180.0000000  15.3215155  2
    138    137    136    161     1  180.0000000  15.3215155  2
    138    137    146    147     1  180.0000000  15.3215155  2
    138    137    146    166     1  180.0000000  15.3215155  2
    138    139    140    141     1  180.0000000  15.3215155  2
    138    139    140    163     1  180.0000000  15.3215155  2
    138    145    144    141     1  180.0000000  15.3215155  2
    138    145    144    164     1  180.0000000  15.3215155  2
    139    138    137    146     1  180.0000000  4.8669776  2
    139    138    145    144     1  180.0000000  15.3215155  2
    139    138    145    165     1  180.0000000  15.3215155  2
    139    140    141    142     1  180.0000000  15.3215155  2
    139    140    141    144     1  180.0000000  15.3215155  2
    140    139    138    145     1  180.0000000  15.3215155  2
    140    141    142    143     1  180.0000000  4.1731909  2
    140    141    144    145     1  180.0000000  15.3215155  2
    140    141    144    164     1  180.0000000  15.3215155  2
    141    140    139    162     1  180.0000000  15.3215155  2
    141    144    145    165     1  180.0000000  15.3215155  2
    142    141    140    163     1  180.0000000  15.3215155  2
    142    141    144    145     1  180.0000000  15.3215155  2
    142    141    144    164     1  180.0000000  15.3215155  2
    143    142    141    144     1  180.0000000  4.1731909  2
    144    141    140    163     1  180.0000000  15.3215155  2
    145    138    137    146     1  180.0000000  4.8669776  2
    145    138    139    162     1  180.0000000  15.3215155  2
    146    137    136    161     1  180.0000000  15.3215155  2
    146    147    148    149     1  180.0000000  4.8669776  2
    146    147    148    156     1  180.0000000  4.8669776  2
    146    147    157    176     1  180.0000000  15.3215155  2
    147    148    149    150     1  180.0000000  15.3215155  2
    147    148    149    167     1  180.0000000  15.3215155  2
    147    148    156    155     1  180.0000000  15.3215155  2
    147    148    156    175     1  180.0000000  15.3215155  2
    148    147    146    166     1  180.0000000  15.3215155  2
    148    147    157    176     1  180.0000000  15.3215155  2
    148    149    150    151     1  180.0000000  15.3215155  2
    148    149    150    168     1  180.0000000  15.3215155  2
    148    156    155    151     1  180.0000000  15.3215155  2
    148    156    155    174     1  180.0000000  15.3215155  2
    149    148    147    157     1  180.0000000  4.8669776  2
    149    148    156    155     1  180.0000000  15.3215155  2
    149    148    156    175     1  180.0000000  15.3215155  2
    149    150    151    152     1  180.0000000  15.3215155  2
    149    150    151    155     1  180.0000000  15.3215155  2
    150    149    148    156     1  180.0000000  15.3215155  2
    150    151    152    153     1  0.0000000  0.1115010  3
    150    151    152    154     1  0.0000000  0.1115010  3
    150    151    152    169     1  0.0000000  0.1115010  3
    150    151    155    156     1  180.0000000  15.3215155  2
    150    151    155    174     1  180.0000000  15.3215155  2
    151    150    149    167     1  180.0000000  15.3215155  2
    151    152    153    170     1  0.0000000  0.4834079  3
    151    152    153    171     1  0.0000000  0.4834079  3
    151    152    153    172     1  0.0000000  0.4834079  3
    151    152    154    173     1  0.0000000  0.7624859  2
    151    152    154    173     1  0.0000000  0.1243628  3
    151    152    154    187     1  180.0000000  -2.8834993  2
    151    152    154    187     1  0.0000000  1.1413309  1
    151    155    156    175     1  180.0000000  15.3215155  2
    152    151    150    168     1  180.0000000  15.3215155  2
    152    151    155    156     1  180.0000000  15.3215155  2
    152    151    155    174     1  180.0000000  15.3215155  2
    152    154    187    186     1  180.0000000  7.5690543  2
    152    154    187    186     1  0.0000000  -0.2015131  1
    152    154    187    188     1  180.0000000  7.5690543  2
    152    154    187    188     1  0.0000000  -0.2015131  1
    153    152    151    155     1  0.0000000  0.1115010  3
    153    152    154    173     1  0.0000000  0.7624859  2
    153    152    154    173     1  0.0000000  0.1243628  3
    153    152    154    187     1  180.0000000  -0.6228629  4
    153    152    154    187     1  180.0000000  -0.5147696  3
    153    152    154    187     1  0.0000000  1.2298012  2
    153    152    154    187     1  0.0000000  -1.2652947  1
    154    152    151    155     1  0.0000000  0.1115010  3
    154    152    153    170     1  0.0000000  0.4834079  3
    154    152    153    171     1  0.0000000  0.4834079  3
    154    152    153    172     1  0.0000000  0.4834079  3
    154    187    186    183     1  180.0000000  11.6309081  2
    155    151    150    168     1  180.0000000  15.3215155  2
    155    151    152    169     1  0.0000000  0.1115010  3
    156    148    147    157     1  180.0000000  4.8669776  2
    156    148    149    167     1  180.0000000  15.3215155  2
    157    135    136    161     1  180.0000000  15.3215155  2
    157    147    146    166     1  180.0000000  15.3215155  2
    162    139    140    163     1  180.0000000  15.3215155  2
    164    144    145    165     1  180.0000000  15.3215155  2
    167    149    150    168     1  180.0000000  15.3215155  2
    169    152    153    170     1  0.0000000  0.7999501  3
    169    152    153    171     1  0.0000000  0.7999501  3
    169    152    153    172     1  0.0000000  0.7999501  3
    169    152    154    173     1  0.0000000  0.7624859  2
    169    152    154    173     1  0.0000000  0.1243628  3
    169    152    154    187     1  0.0000000  0.7624859  2
    169    152    154    187     1  0.0000000  0.1243628  3
    173    154    187    186     1  180.0000000  7.5690543  2
    173    154    187    186     1  0.0000000  -0.2015131  1
    173    154    187    188     1  180.0000000  2.0338395  2
    173    154    187    188     1  0.0000000  3.7308670  1
    174    155    156    175     1  180.0000000  15.3215155  2
    182    183    184    192     1  0.0000000  0.4354138  3
    182    183    184    193     1  0.0000000  0.4354138  3
    182    183    184    194     1  0.0000000  0.4354138  3
    182    183    185    195     1  0.0000000  0.4354138  3
    182    183    185    196     1  0.0000000  0.4354138  3
    182    183    185    197     1  0.0000000  0.4354138  3
    182    183    186    187     1  0.0000000  0.8026052  3
    182    183    186    187     1  180.0000000  3.8501921  1
    183    186    187    188     1  180.0000000  4.8693776  2
    183    186    187    188     1  180.0000000  0.7025718  1
    184    183    182    189     1  0.0000000  0.4354138  3
    184    183    182    190     1  0.0000000  0.4354138  3
    184    183    182    191     1  0.0000000  0.4354138  3
    184    183    185    195     1  0.0000000  0.4354138  3
    184    183    185    196     1  0.0000000  0.4354138  3
    184    183    185    197     1  0.0000000  0.4354138  3
    184    183    186    187     1  0.0000000  0.8026052  3
    184    183    186    187     1  180.0000000  3.8501921  1
    185    183    182    189     1  0.0000000  0.4354138  3
    185    183    182    190     1  0.0000000  0.4354138  3
    185    183    182    191     1  0.0000000  0.4354138  3
    185    183    184    192     1  0.0000000  0.4354138  3
    185    183    184    193     1  0.0000000  0.4354138  3
    185    183    184    194     1  0.0000000  0.4354138  3
    185    183    186    187     1  0.0000000  0.8026052  3
    185    183    186    187     1  180.0000000  3.8501921  1
    186    183    182    189     1  0.0000000  0.4667359  3
    186    183    182    189     1  0.0000000  1.4361539  1
    186    183    182    190     1  0.0000000  0.4667359  3
    186    183    182    190     1  0.0000000  1.4361539  1
    186    183    182    191     1  0.0000000  0.4667359  3
    186    183    182    191     1  0.0000000  1.4361539  1
    186    183    184    192     1  0.0000000  0.4667359  3
    186    183    184    192     1  0.0000000  1.4361539  1
    186    183    184    193     1  0.0000000  0.4667359  3
    186    183    184    193     1  0.0000000  1.4361539  1
    186    183    184    194     1  0.0000000  0.4667359  3
    186    183    184    194     1  0.0000000  1.4361539  1
    186    183    185    195     1  0.0000000  0.4667359  3
    186    183    185    195     1  0.0000000  1.4361539  1
    186    183    185    196     1  0.0000000  0.4667359  3
    186    183    185    196     1  0.0000000  1.4361539  1
    186    183    185    197     1  0.0000000  0.4667359  3
    186    183    185    197     1  0.0000000  1.4361539  1
     19     23     18     20     4  180.0000000  1.5341333  2
    101    100    121     94     4  180.0000000  1.5341333  2
    154    173    187    152     4  180.0000000  1.3946667  2
     98     99     66     97     4  180.0000000  1.5341333  2
    156    155    175    148     4  180.0000000  1.5341333  2
      6      7     13      5     4  180.0000000  1.5341333  2
      8      7      9     31     4  180.0000000  1.5341333  2
    150    151    168    149     4  180.0000000  1.5341333  2
     24     43     16     23     4  180.0000000  1.5341333  2
      9      8     10     12     4  180.0000000  1.5341333  2
    156    148    155    175     4  180.0000000  1.5341333  2
     59     69     58     60     4  180.0000000  1.5341333  2
    106    105    107    124     4  180.0000000  1.5341333  2
    148    149    156    147     4  180.0000000  1.5341333  2
    142    141    143    110     4  180.0000000  1.5341333  2
     91    113     90     92     4  180.0000000  1.5341333  2
     93    102     92     94     4  180.0000000  1.5341333  2
    151    150    152    155     4  180.0000000  1.5341333  2
      5      4      6     14     4  180.0000000  1.5341333  2
     52     75     51     53     4  180.0000000  1.5341333  2
     23     19     24     42     4  180.0000000  1.5341333  2
     12     13     32      9     4  180.0000000  1.5341333  2
     96    119     95     97     4  180.0000000  1.5341333  2
     94     93     95    101     4  180.0000000  1.5341333  2
     14     34      5     15     4  180.0000000  1.5341333  2
    103    102    104    113     4  180.0000000  1.5341333  2
    155    151    156    174     4  180.0000000  1.5341333  2
     93     94    102     92     4  180.0000000  1.5341333  2
    102    103    122     93     4  180.0000000  1.5341333  2
     48     49     73     47     4  180.0000000  1.5341333  2
     58     59     78     49     4  180.0000000  1.5341333  2
      3     25      2      4     4  180.0000000  1.5341333  2
    147    148    157    146     4  180.0000000  1.5341333  2
     51     52     74     50     4  180.0000000  1.5341333  2
     59     58     60     69     4  180.0000000  1.5341333  2
      9     12      8     10     4  180.0000000  1.5341333  2
    113    103    132     91     4  180.0000000  1.5341333  2
    101     94    100    121     4  180.0000000  1.5341333  2
     69     59     88     47     4  180.0000000  1.5341333  2
     10     11    178      9     4  180.0000000  14.6440000  2
    113     91    103    132     4  180.0000000  1.5341333  2
    149    167    148    150     4  180.0000000  1.5341333  2
     57     56     77     50     4  180.0000000  1.5341333  2
      8     31      7      9     4  180.0000000  1.5341333  2
     18     19     36     17     4  180.0000000  1.5341333  2
     23     24     42     19     4  180.0000000  1.5341333  2
     54     53     55     22     4  180.0000000  1.5341333  2
     63     67     62     64     4  180.0000000  1.5341333  2
     22     20     41     54     4  180.0000000  1.3946667  2
     56     57     76     53     4  180.0000000  1.5341333  2
    102     93    103    122     4  180.0000000  1.5341333  2
     10      9     11    178     4  180.0000000  14.6440000  2
    154    187    152    173     4  180.0000000  1.3946667  2
     13     12     33      6     4  180.0000000  1.5341333  2
    107    111    106    108     4  180.0000000  1.5341333  2
    139    162    138    140     4  180.0000000  1.5341333  2
     16     24     15     17     4  180.0000000  1.5341333  2
     67     86     63     68     4  180.0000000  1.5341333  2
    146    166    137    147     4  180.0000000  1.5341333  2
     17     35     16     18     4  180.0000000  1.5341333  2
     67     63     68     86     4  180.0000000  1.5341333  2
     60     59     61     68     4  180.0000000  1.5341333  2
     54     55     22     53     4  180.0000000  1.5341333  2
     19     18     20     23     4  180.0000000  1.5341333  2
     69     47     59     88     4  180.0000000  1.5341333  2
    151    155    150    152     4  180.0000000  1.5341333  2
    138    137    139    145     4  180.0000000  1.5341333  2
    145    165    138    144     4  180.0000000  1.5341333  2
     62     61     63     80     4  180.0000000  1.5341333  2
    112    131    104    111     4  180.0000000  1.5341333  2
     15     16     25     14     4  180.0000000  1.5341333  2
     92     91     93    117     4  180.0000000  1.5341333  2
    135    134    136    157     4  180.0000000  1.5341333  2
    107    108    111    106     4  180.0000000  1.5341333  2
    187    186    188    154     4  180.0000000  14.6440000  2
     94    101     93     95     4  180.0000000  1.5341333  2
    144    141    145    164     4  180.0000000  1.5341333  2
    149    148    150    167     4  180.0000000  1.5341333  2
      5     14      4      6     4  180.0000000  1.5341333  2
    111    112    130    107     4  180.0000000  1.5341333  2
    135    136    157    134     4  180.0000000  1.5341333  2
     53     56     52     54     4  180.0000000  1.5341333  2
     16     15     17     24     4  180.0000000  1.5341333  2
    102    122     93    103     4  180.0000000  1.5341333  2
     63     64     67     62     4  180.0000000  1.5341333  2
     92    117     91     93     4  180.0000000  1.5341333  2
    147    157    146    148     4  180.0000000  1.5341333  2
      4     29      3      5     4  180.0000000  1.5341333  2
     60     61     68     59     4  180.0000000  1.5341333  2
      9     10     12      8     4  180.0000000  1.5341333  2
    146    147    166    137     4  180.0000000  1.5341333  2
    144    145    164    141     4  180.0000000  1.5341333  2
    148    147    149    156     4  180.0000000  1.5341333  2
    156    175    148    155     4  180.0000000  1.5341333  2
      8      9     31      7     4  180.0000000  1.5341333  2
     92     93    117     91     4  180.0000000  1.5341333  2
     47     48     69     46     4  180.0000000  1.5341333  2
    110    142    108    129     4  180.0000000  1.3946667  2
    110    108    129    142     4  180.0000000  1.3946667  2
    148    156    147    149     4  180.0000000  1.5341333  2
     68     60     67     87     4  180.0000000  1.5341333  2
     48     73     47     49     4  180.0000000  1.5341333  2
     95     94     96    118     4  180.0000000  1.5341333  2
    136    161    135    137     4  180.0000000  1.5341333  2
     66     64     85     98     4  180.0000000  1.3946667  2
     94     95    101     93     4  180.0000000  1.5341333  2
     66     85     98     64     4  180.0000000  1.3946667  2
     69     88     47     59     4  180.0000000  1.5341333  2
    150    168    149    151     4  180.0000000  1.5341333  2
     97    100     96     98     4  180.0000000  1.5341333  2
      4      5     29      3     4  180.0000000  1.5341333  2
    136    137    161    135     4  180.0000000  1.5341333  2
    106    124    105    107     4  180.0000000  1.5341333  2
    140    139    141    163     4  180.0000000  1.5341333  2
    100     97    101    120     4  180.0000000  1.5341333  2
     14      5     15     34     4  180.0000000  1.5341333  2
     10    178      9     11     4  180.0000000  14.6440000  2
    157    176    135    147     4  180.0000000  1.5341333  2
     48     47     49     73     4  180.0000000  1.5341333  2
     61     62     79     60     4  180.0000000  1.5341333  2
     24     16     23     43     4  180.0000000  1.5341333  2
     98     66     97     99     4  180.0000000  1.5341333  2
     50     57     49     51     4  180.0000000  1.5341333  2
     61     79     60     62     4  180.0000000  1.5341333  2
    101    121     94    100     4  180.0000000  1.5341333  2
    104    105    112    103     4  180.0000000  1.5341333  2
    138    139    145    137     4  180.0000000  1.5341333  2
    137    138    146    136     4  180.0000000  1.5341333  2
    105    106    123    104     4  180.0000000  1.5341333  2
     18     17     19     36     4  180.0000000  1.5341333  2
     61     60     62     79     4  180.0000000  1.5341333  2
    155    156    174    151     4  180.0000000  1.5341333  2
     93     92     94    102     4  180.0000000  1.5341333  2
     58     78     49     59     4  180.0000000  1.5341333  2
    140    141    163    139     4  180.0000000  1.5341333  2
     47     46     48     69     4  180.0000000  1.5341333  2
    145    144    165    138     4  180.0000000  1.5341333  2
     97     96     98    100     4  180.0000000  1.5341333  2
     53     54     56     52     4  180.0000000  1.5341333  2
    103    113    102    104     4  180.0000000  1.5341333  2
    146    137    147    166     4  180.0000000  1.5341333  2
     22     54     20     41     4  180.0000000  1.3946667  2
     13      6     12     33     4  180.0000000  1.5341333  2
     50     49     51     57     4  180.0000000  1.5341333  2
     68     67     87     60     4  180.0000000  1.5341333  2
    104    112    103    105     4  180.0000000  1.5341333  2
     59     60     69     58     4  180.0000000  1.5341333  2
     97     98    100     96     4  180.0000000  1.5341333  2
    139    140    162    138     4  180.0000000  1.5341333  2
     50     51     57     49     4  180.0000000  1.5341333  2
     12      9     13     32     4  180.0000000  1.5341333  2
     56     53     57     76     4  180.0000000  1.5341333  2
     49     50     58     48     4  180.0000000  1.5341333  2
    111    130    107    112     4  180.0000000  1.5341333  2
     17     18     35     16     4  180.0000000  1.5341333  2
    154    152    173    187     4  180.0000000  1.3946667  2
    140    163    139    141     4  180.0000000  1.5341333  2
      6      5      7     13     4  180.0000000  1.5341333  2
     51     50     52     74     4  180.0000000  1.5341333  2
     54     22     53     55     4  180.0000000  1.5341333  2
     56     76     53     57     4  180.0000000  1.5341333  2
    107    106    108    111     4  180.0000000  1.5341333  2
     19     20     23     18     4  180.0000000  1.5341333  2
    145    138    144    165     4  180.0000000  1.5341333  2
     15     25     14     16     4  180.0000000  1.5341333  2
      7     30      6      8     4  180.0000000  1.5341333  2
     60     68     59     61     4  180.0000000  1.5341333  2
     17     16     18     35     4  180.0000000  1.5341333  2
     91     92    113     90     4  180.0000000  1.5341333  2
    155    174    151    156     4  180.0000000  1.5341333  2
     24     23     43     16     4  180.0000000  1.5341333  2
     25     15     44      3     4  180.0000000  1.5341333  2
    104    103    105    112     4  180.0000000  1.5341333  2
     67     68     86     63     4  180.0000000  1.5341333  2
     25      3     15     44     4  180.0000000  1.5341333  2
     49     58     48     50     4  180.0000000  1.5341333  2
    100    120     97    101     4  180.0000000  1.5341333  2
    187    188    154    186     4  180.0000000  14.6440000  2
     12     32      9     13     4  180.0000000  1.5341333  2
    142    143    110    141     4  180.0000000  1.5341333  2
     62     63     80     61     4  180.0000000  1.5341333  2
    112    104    111    131     4  180.0000000  1.5341333  2
    136    135    137    161     4  180.0000000  1.5341333  2
      3      4     25      2     4  180.0000000  1.5341333  2
    112    111    131    104     4  180.0000000  1.5341333  2
     18     36     17     19     4  180.0000000  1.5341333  2
      7      8     30      6     4  180.0000000  1.5341333  2
     52     53     75     51     4  180.0000000  1.5341333  2
     15     14     16     25     4  180.0000000  1.5341333  2
     96     95     97    119     4  180.0000000  1.5341333  2
     63     62     64     67     4  180.0000000  1.5341333  2
    142    110    141    143     4  180.0000000  1.5341333  2
    187    154    186    188     4  180.0000000  14.6440000  2
     25     44      3     15     4  180.0000000  1.5341333  2
     57     77     50     56     4  180.0000000  1.5341333  2
    105    104    106    123     4  180.0000000  1.5341333  2
     51     74     50     52     4  180.0000000  1.5341333  2
     47     69     46     48     4  180.0000000  1.5341333  2
      7      6      8     30     4  180.0000000  1.5341333  2
    144    164    141    145     4  180.0000000  1.5341333  2
     52     51     53     75     4  180.0000000  1.5341333  2
    139    138    140    162     4  180.0000000  1.5341333  2
    157    147    176    135     4  180.0000000  1.5341333  2
     62     80     61     63     4  180.0000000  1.5341333  2
     91     90     92    113     4  180.0000000  1.5341333  2
    103    104    113    102     4  180.0000000  1.5341333  2
    111    107    112    130     4  180.0000000  1.5341333  2
      5      6     14      4     4  180.0000000  1.5341333  2
    138    145    137    139     4  180.0000000  1.5341333  2
     58     49     59     78     4  180.0000000  1.5341333  2
    110    129    142    108     4  180.0000000  1.3946667  2
    113    132     91    103     4  180.0000000  1.5341333  2
     13     33      6     12     4  180.0000000  1.5341333  2
      3      2      4     25     4  180.0000000  1.5341333  2
    100    101    120     97     4  180.0000000  1.5341333  2
    105    123    104    106     4  180.0000000  1.5341333  2
     98     97     99     66     4  180.0000000  1.5341333  2
     66     98     64     85     4  180.0000000  1.3946667  2
    141    144    140    142     4  180.0000000  1.5341333  2
     96     97    119     95     4  180.0000000  1.5341333  2
      4      3      5     29     4  180.0000000  1.5341333  2
    141    142    144    140     4  180.0000000  1.5341333  2
     95    118     94     96     4  180.0000000  1.5341333  2
     53     52     54     56     4  180.0000000  1.5341333  2
     49     48     50     58     4  180.0000000  1.5341333  2
    149    150    167    148     4  180.0000000  1.5341333  2
     68     87     60     67     4  180.0000000  1.5341333  2
     14     15     34      5     4  180.0000000  1.5341333  2
     23     42     19     24     4  180.0000000  1.5341333  2
     95     96    118     94     4  180.0000000  1.5341333  2
    157    135    147    176     4  180.0000000  1.5341333  2
    137    146    136    138     4  180.0000000  1.5341333  2
    137    136    138    146     4  180.0000000  1.5341333  2
      6     13      5      7     4  180.0000000  1.5341333  2
     16     17     24     15     4  180.0000000  1.5341333  2
    151    152    155    150     4  180.0000000  1.5341333  2
     22     41     54     20     4  180.0000000  1.3946667  2
    147    146    148    157     4  180.0000000  1.5341333  2
     57     50     56     77     4  180.0000000  1.5341333  2
    150    149    151    168     4  180.0000000  1.5341333  2
    135    157    134    136     4  180.0000000  1.5341333  2
    141    140    142    144     4  180.0000000  1.5341333  2
    106    107    124    105     4  180.0000000  1.5341333  2


[ moleculetype ]
; Name            nrexcl
TCM          3

[ atoms ]
;   nr       type  resnr residue  atom   cgnr    charge       mass  typeB    chargeB      massB
; residue    1 TCM rtp TCM q 0.0
    1      TCM_0      1    TCM     c1      1 0.22438000   9.994886   ; qtot 0.224380
    2      TCM_1      1    TCM    cl1      2 -0.11463000  35.453200   ; qtot 0.109750
    3      TCM_2      1    TCM    cl2      3 -0.11463000  35.453200   ; qtot -0.004880
    4      TCM_3      1    TCM     h1      4 0.11951000   3.023841   ; qtot 0.114630
    5      TCM_4      1    TCM    cl3      5 -0.11463000  35.453200   ; qtot 0.000000

[ bonds ]
;    ai     aj funct         c0         c1         c2         c3
      1      2     1   0.17948 173885.040698
      1      3     1   0.17948 173885.040698
      1      4     1   0.10929 317186.185379
      1      5     1   0.17948 173885.040698

[ angles ]
;    ai     aj     ak funct         c0         c1         c2         c3
      2      1      3     1   107.6607822 425.669015
      2      1      4     1   107.6607822 425.669015
      2      1      5     1   107.6607822 425.669015
      3      1      4     1   107.6607822 425.669015
      3      1      5     1   107.6607822 425.669015
      4      1      5     1   107.6607822 425.669015

[ system ]
; Name
FOO

[ molecules ]
; Compound       #mols
system1              1
TCM                634
