Generated by Interchange
197
    1MOP     C1    1  -0.264   0.549   0.090
    1MOP     O2    2  -0.152   0.466   0.059
    1MOP     C3    3  -0.172   0.332   0.045
    1MOP     C4    4  -0.293   0.264   0.059
    1MOP     C5    5  -0.298   0.125   0.046
    1MOP     C6    6  -0.183   0.048   0.017
    1MOP     C7    7  -0.195  -0.100   0.010
    1MOP     C8    8  -0.284  -0.163  -0.079
    1MOP     C9    9  -0.292  -0.303  -0.088
    1MOP    C10   10  -0.395  -0.361  -0.178
    1MOP    O11   11  -0.472  -0.293  -0.243
    1MOP    C12   12  -0.213  -0.383  -0.005
    1MOP    C13   13  -0.125  -0.322   0.084
    1MOP    C14   14  -0.118  -0.183   0.092
    1MOP    C15   15  -0.060   0.117  -0.001
    1MOP    C16   16   0.064   0.046  -0.038
    1MOP    C17   17   0.180   0.054   0.042
    1MOP    C18   18   0.294  -0.022   0.012
    1MOP    C19   19   0.422  -0.010   0.093
    1MOP    C20   20   0.452  -0.139   0.168
    1MOP    N21   21   0.538   0.036   0.013
    1MOP    C22   22   0.286  -0.111  -0.096
    1MOP    C23   23   0.178  -0.112  -0.182
    1MOP    C24   24   0.067  -0.034  -0.153
    1MOP    C25   25  -0.057   0.258   0.014
    1MOP    H26   26  -0.306   0.524   0.187
    1MOP    H27   27  -0.339   0.544   0.011
    1MOP    H28   28  -0.228   0.652   0.095
    1MOP    H29   29  -0.385   0.317   0.082
    1MOP    H30   30  -0.394   0.075   0.059
    1MOP    H31   31  -0.348  -0.102  -0.143
    1MOP    H32   32  -0.220  -0.491  -0.008
    1MOP    H33   33  -0.062  -0.383   0.148
    1MOP    H34   34  -0.049  -0.139   0.164
    1MOP    H35   35   0.179   0.118   0.131
    1MOP    H36   36   0.408   0.069   0.168
    1MOP    H37   37   0.540  -0.126   0.232
    1MOP    H38   38   0.368  -0.170   0.230
    1MOP    H39   39   0.474  -0.222   0.099
    1MOP    H40   40   0.609   0.063   0.080
    1MOP    H41   41   0.369  -0.176  -0.119
    1MOP    H42   42   0.181  -0.174  -0.272
    1MOP    H43   43  -0.019  -0.041  -0.219
    1MOP    H44   44   0.036   0.312   0.001
    2MOP    C45   45   0.714  -0.706  -0.771
    2MOP    O46   46   0.736  -0.568  -0.795
    2MOP    C47   47   0.691  -0.478  -0.703
    2MOP    C48   48   0.625  -0.507  -0.584
    2MOP    C49   49   0.584  -0.404  -0.498
    2MOP    C50   50   0.608  -0.268  -0.529
    2MOP    C51   51   0.559  -0.162  -0.437
    2MOP    C52   52   0.601  -0.155  -0.303
    2MOP    C53   53   0.561  -0.050  -0.219
    2MOP    C54   54   0.599  -0.054  -0.074
    2MOP    O55   55   0.680  -0.135  -0.032
    2MOP    C56   56   0.475   0.049  -0.269
    2MOP    C57   57   0.429   0.042  -0.400
    2MOP    C58   58   0.472  -0.062  -0.483
    2MOP    C59   59   0.677  -0.238  -0.649
    2MOP    C60   60   0.713  -0.100  -0.687
    2MOP    C61   61   0.670  -0.045  -0.810
    2MOP    C62   62   0.695   0.090  -0.840
    2MOP    C63   63   0.654   0.149  -0.974
    2MOP    C64   64   0.543   0.253  -0.956
    2MOP    N65   65   0.767   0.201  -1.053
    2MOP    C66   66   0.757   0.169  -0.743
    2MOP    C67   67   0.810   0.114  -0.627
    2MOP    C68   68   0.788  -0.020  -0.599
    2MOP    C69   69   0.716  -0.344  -0.734
    2MOP    H70   70   0.607  -0.729  -0.764
    2MOP    H71   71   0.767  -0.741  -0.682
    2MOP    H72   72   0.754  -0.762  -0.856
    2MOP    H73   73   0.603  -0.610  -0.555
    2MOP    H74   74   0.532  -0.430  -0.406
    2MOP    H75   75   0.666  -0.234  -0.263
    2MOP    H76   76   0.435   0.126  -0.204
    2MOP    H77   77   0.359   0.116  -0.437
    2MOP    H78   78   0.437  -0.063  -0.586
    2MOP    H79   79   0.614  -0.107  -0.879
    2MOP    H80   80   0.612   0.068  -1.036
    2MOP    H81   81   0.507   0.289  -1.053
    2MOP    H82   82   0.458   0.211  -0.901
    2MOP    H83   83   0.578   0.340  -0.900
    2MOP    H84   84   0.732   0.215  -1.147
    2MOP    H85   85   0.771   0.275  -0.759
    2MOP    H86   86   0.868   0.176  -0.559
    2MOP    H87   87   0.825  -0.060  -0.505
    2MOP    H88   88   0.768  -0.322  -0.827
    3MOP    C89   89   1.235   0.997  -0.466
    3MOP    O90   90   1.314   0.910  -0.546
    3MOP    C91   91   1.254   0.799  -0.600
    3MOP    C92   92   1.121   0.762  -0.586
    3MOP    C93   93   1.074   0.645  -0.647
    3MOP    C94   94   1.158   0.562  -0.723
    3MOP    C95   95   1.103   0.436  -0.781
    3MOP    C96   96   0.993   0.436  -0.869
    3MOP    C97   97   0.948   0.318  -0.930
    3MOP    C98   98   0.826   0.321  -1.016
    3MOP    O99   99   0.776   0.428  -1.052
    3MOP   C100  100   1.013   0.197  -0.901
    3MOP   C101  101   1.119   0.194  -0.811
    3MOP   C102  102   1.164   0.312  -0.753
    3MOP   C103  103   1.293   0.602  -0.740
    3MOP   C104  104   1.387   0.526  -0.826
    3MOP   C105  105   1.509   0.475  -0.776
    3MOP   C106  106   1.591   0.395  -0.855
    3MOP   C107  107   1.725   0.344  -0.804
    3MOP   C108  108   1.724   0.192  -0.787
    3MOP   N109  109   1.841   0.390  -0.886
    3MOP   C110  110   1.546   0.360  -0.983
    3MOP   C111  111   1.432   0.418  -1.039
    3MOP   C112  112   1.354   0.500  -0.960
    3MOP   C113  113   1.339   0.719  -0.677
    3MOP   H114  114   1.196   0.946  -0.378
    3MOP   H115  115   1.154   1.041  -0.525
    3MOP   H116  116   1.300   1.078  -0.432
    3MOP   H117  117   1.051   0.822  -0.529
    3MOP   H118  118   0.969   0.617  -0.632
    3MOP   H119  119   0.940   0.529  -0.889
    3MOP   H120  120   0.975   0.103  -0.940
    3MOP   H121  121   1.165   0.099  -0.785
    3MOP   H122  122   1.250   0.308  -0.686
    3MOP   H123  123   1.537   0.497  -0.673
    3MOP   H124  124   1.743   0.388  -0.705
    3MOP   H125  125   1.818   0.158  -0.743
    3MOP   H126  126   1.642   0.161  -0.722
    3MOP   H127  127   1.712   0.141  -0.883
    3MOP   H128  128   1.923   0.369  -0.830
    3MOP   H129  129   1.603   0.293  -1.046
    3MOP   H130  130   1.407   0.398  -1.143
    3MOP   H131  131   1.262   0.539  -1.003
    3MOP   H132  132   1.442   0.750  -0.690
    4MOP   C133  133   1.704  -0.002  -1.894
    4MOP   O134  134   1.761   0.128  -1.875
    4MOP   C135  135   1.756   0.182  -1.749
    4MOP   C136  136   1.699   0.123  -1.637
    4MOP   C137  137   1.701   0.191  -1.514
    4MOP   C138  138   1.759   0.319  -1.501
    4MOP   C139  139   1.753   0.388  -1.369
    4MOP   C140  140   1.809   0.330  -1.254
    4MOP   C141  141   1.811   0.400  -1.132
    4MOP   C142  142   1.862   0.331  -1.009
    4MOP   O143  143   1.923   0.225  -1.017
    4MOP   C144  144   1.753   0.528  -1.125
    4MOP   C145  145   1.693   0.584  -1.237
    4MOP   C146  146   1.694   0.515  -1.358
    4MOP   C147  147   1.820   0.378  -1.615
    4MOP   C148  148   1.890   0.508  -1.609
    4MOP   C149  149   1.854   0.616  -1.693
    4MOP   C150  150   1.917   0.741  -1.682
    4MOP   C151  151   1.876   0.859  -1.770
    4MOP   C152  152   1.795   0.963  -1.692
    4MOP   N153  153   1.993   0.916  -1.838
    4MOP   C154  154   2.018   0.756  -1.585
    4MOP   C155  155   2.057   0.651  -1.504
    4MOP   C156  156   1.994   0.528  -1.516
    4MOP   C157  157   1.816   0.308  -1.738
    4MOP   H158  158   1.596  -0.002  -1.874
    4MOP   H159  159   1.756  -0.077  -1.833
    4MOP   H160  160   1.718  -0.029  -1.999
    4MOP   H161  161   1.652   0.026  -1.641
    4MOP   H162  162   1.655   0.143  -1.428
    4MOP   H163  163   1.852   0.230  -1.258
    4MOP   H164  164   1.744   0.580  -1.030
    4MOP   H165  165   1.643   0.680  -1.230
    4MOP   H166  166   1.650   0.562  -1.446
    4MOP   H167  167   1.774   0.602  -1.765
    4MOP   H168  168   1.812   0.821  -1.850
    4MOP   H169  169   1.764   1.044  -1.759
    4MOP   H170  170   1.706   0.919  -1.645
    4MOP   H171  171   1.851   1.008  -1.610
    4MOP   H172  172   1.974   0.953  -1.930
    4MOP   H173  173   2.068   0.850  -1.570
    4MOP   H174  174   2.135   0.666  -1.430
    4MOP   H175  175   2.024   0.447  -1.449
    4MOP   H176  176   1.862   0.352  -1.826
    5CAP   C177  177  -0.537  -0.543  -0.165
    5CAP   O178  178  -0.402  -0.496  -0.164
    5CAP   H179  179  -0.580  -0.516  -0.069
    5CAP   H180  180  -0.538  -0.652  -0.174
    5CAP   H181  181  -0.596  -0.500  -0.247
    6CAP   C182  182   2.444   1.035  -1.814
    6CAP   C183  183   2.310   1.058  -1.740
    6CAP   C184  184   2.328   1.003  -1.596
    6CAP   C185  185   2.285   1.211  -1.734
    6CAP   O186  186   2.208   0.990  -1.818
    6CAP   C187  187   2.081   0.997  -1.771
    6CAP   O188  188   2.050   1.066  -1.674
    6CAP   H189  189   2.528   1.086  -1.765
    6CAP   H190  190   2.468   0.928  -1.818
    6CAP   H191  191   2.437   1.071  -1.917
    6CAP   H192  192   2.342   0.895  -1.596
    6CAP   H193  193   2.242   1.024  -1.532
    6CAP   H194  194   2.415   1.048  -1.546
    6CAP   H195  195   2.266   1.249  -1.835
    6CAP   H196  196   2.198   1.236  -1.673
    6CAP   H197  197   2.369   1.265  -1.690
  5.0000000  5.0000000  5.0000000
