Generated by Interchange
197
    1POP     C1    1  -0.209  -0.457  -0.157
    1POP     O2    2  -0.134  -0.498  -0.244
    1POP     C3    3  -0.225  -0.313  -0.122
    1POP     C4    4  -0.302  -0.272  -0.013
    1POP     C5    5  -0.294  -0.139   0.032
    1POP     C6    6  -0.212  -0.046  -0.034
    1POP     C7    7  -0.198   0.090   0.020
    1POP     C8    8  -0.073   0.147   0.057
    1POP     C9    9  -0.072   0.280   0.106
    1POP    C10   10  -0.189   0.354   0.120
    1POP    O11   11  -0.171   0.481   0.169
    1POP    C12   12  -0.288   0.561   0.181
    1POP    C13   13  -0.311   0.297   0.087
    1POP    C14   14  -0.315   0.167   0.037
    1POP    C15   15   0.056   0.074   0.047
    1POP    C16   16   0.162   0.124  -0.031
    1POP    C17   17   0.281   0.052  -0.047
    1POP    C18   18   0.298  -0.072   0.016
    1POP    C19   19   0.195  -0.120   0.098
    1POP    C20   20   0.076  -0.048   0.113
    1POP    C21   21   0.424  -0.154  -0.003
    1POP    N22   22   0.540  -0.088   0.058
    1POP    C23   23   0.444  -0.203  -0.146
    1POP    C24   24  -0.143  -0.087  -0.149
    1POP    C25   25  -0.148  -0.220  -0.192
    1POP    H26   26  -0.364  -0.342   0.043
    1POP    H27   27  -0.350  -0.111   0.121
    1POP    H28   28   0.023   0.326   0.134
    1POP    H29   29  -0.258   0.659   0.219
    1POP    H30   30  -0.358   0.517   0.253
    1POP    H31   31  -0.336   0.576   0.084
    1POP    H32   32  -0.405   0.351   0.097
    1POP    H33   33  -0.412   0.125   0.010
    1POP    H34   34   0.151   0.219  -0.083
    1POP    H35   35   0.359   0.092  -0.110
    1POP    H36   36   0.205  -0.215   0.150
    1POP    H37   37  -0.003  -0.089   0.176
    1POP    H38   38   0.414  -0.245   0.058
    1POP    H39   39   0.534  -0.082   0.158
    1POP    H40   40   0.360  -0.266  -0.177
    1POP    H41   41   0.450  -0.121  -0.219
    1POP    H42   42   0.535  -0.262  -0.155
    1POP    H43   43  -0.080  -0.016  -0.202
    1POP    H44   44  -0.087  -0.250  -0.276
    2POP    C45   45   0.630  -0.006  -0.005
    2POP    O46   46   0.626   0.023  -0.125
    2POP    C47   47   0.739   0.050   0.081
    2POP    C48   48   0.771  -0.006   0.205
    2POP    C49   49   0.876   0.045   0.281
    2POP    C50   50   0.953   0.153   0.235
    2POP    C51   51   1.068   0.200   0.315
    2POP    C52   52   1.203   0.182   0.274
    2POP    C53   53   1.306   0.226   0.360
    2POP    C54   54   1.279   0.284   0.484
    2POP    O55   55   1.389   0.320   0.557
    2POP    C56   56   1.367   0.380   0.683
    2POP    C57   57   1.146   0.301   0.524
    2POP    C58   58   1.043   0.260   0.440
    2POP    C59   59   1.240   0.118   0.146
    2POP    C60   60   1.314   0.186   0.048
    2POP    C61   61   1.342   0.129  -0.077
    2POP    C62   62   1.295   0.000  -0.108
    2POP    C63   63   1.226  -0.071  -0.009
    2POP    C64   64   1.200  -0.014   0.116
    2POP    C65   65   1.313  -0.060  -0.246
    2POP    N66   66   1.451  -0.096  -0.274
    2POP    C67   67   1.241   0.019  -0.355
    2POP    C68   68   0.920   0.210   0.111
    2POP    C69   69   0.815   0.158   0.034
    2POP    H70   70   0.719  -0.093   0.244
    2POP    H71   71   0.902  -0.002   0.376
    2POP    H72   72   1.410   0.212   0.331
    2POP    H73   73   1.464   0.402   0.728
    2POP    H74   74   1.314   0.312   0.751
    2POP    H75   75   1.312   0.475   0.673
    2POP    H76   76   1.120   0.346   0.619
    2POP    H77   77   0.940   0.274   0.473
    2POP    H78   78   1.348   0.288   0.068
    2POP    H79   79   1.397   0.186  -0.151
    2POP    H80   80   1.189  -0.171  -0.029
    2POP    H81   81   1.144  -0.071   0.189
    2POP    H82   82   1.263  -0.158  -0.244
    2POP    H83   83   1.488  -0.171  -0.218
    2POP    H84   84   1.134   0.026  -0.334
    2POP    H85   85   1.278   0.122  -0.364
    2POP    H86   86   1.254  -0.030  -0.452
    2POP    H87   87   0.978   0.293   0.072
    2POP    H88   88   0.793   0.202  -0.063
    3POP    C89   89   1.537  -0.029  -0.358
    3POP    O90   90   1.515   0.080  -0.409
    3POP    C91   91   1.664  -0.101  -0.389
    3POP    C92   92   1.671  -0.241  -0.388
    3POP    C93   93   1.789  -0.305  -0.425
    3POP    C94   94   1.902  -0.232  -0.465
    3POP    C95   95   2.023  -0.303  -0.509
    3POP    C96   96   2.060  -0.313  -0.646
    3POP    C97   97   2.174  -0.391  -0.678
    3POP    C98   98   2.250  -0.456  -0.580
    3POP    O99   99   2.356  -0.528  -0.627
    3POP   C100  100   2.435  -0.598  -0.531
    3POP   C101  101   2.213  -0.444  -0.447
    3POP   C102  102   2.101  -0.368  -0.412
    3POP   C103  103   1.985  -0.247  -0.755
    3POP   C104  104   2.045  -0.150  -0.837
    3POP   C105  105   1.972  -0.081  -0.935
    3POP   C106  106   1.835  -0.106  -0.952
    3POP   C107  107   1.775  -0.205  -0.873
    3POP   C108  108   1.849  -0.275  -0.778
    3POP   C109  109   1.749  -0.025  -1.048
    3POP   N110  110   1.774  -0.058  -1.187
    3POP   C111  111   1.748   0.125  -1.015
    3POP   C112  112   1.894  -0.092  -0.465
    3POP   C113  113   1.776  -0.027  -0.428
    3POP   H114  114   1.584  -0.301  -0.365
    3POP   H115  115   1.792  -0.414  -0.428
    3POP   H116  116   2.204  -0.402  -0.783
    3POP   H117  117   2.517  -0.648  -0.584
    3POP   H118  118   2.376  -0.675  -0.480
    3POP   H119  119   2.480  -0.528  -0.459
    3POP   H120  120   2.268  -0.494  -0.367
    3POP   H121  121   2.074  -0.360  -0.307
    3POP   H122  122   2.150  -0.126  -0.824
    3POP   H123  123   2.022  -0.006  -0.995
    3POP   H124  124   1.669  -0.228  -0.883
    3POP   H125  125   1.799  -0.351  -0.718
    3POP   H126  126   1.645  -0.057  -1.034
    3POP   H127  127   1.743  -0.150  -1.216
    3POP   H128  128   1.709   0.142  -0.915
    3POP   H129  129   1.849   0.169  -1.018
    3POP   H130  130   1.686   0.180  -1.086
    3POP   H131  131   1.980  -0.032  -0.496
    3POP   H132  132   1.770   0.082  -0.433
    4POP   C133  133   1.845   0.018  -1.278
    4POP   O134  134   1.911   0.117  -1.249
    4POP   C135  135   1.835  -0.025  -1.420
    4POP   C136  136   1.725  -0.098  -1.467
    4POP   C137  137   1.717  -0.133  -1.602
    4POP   C138  138   1.816  -0.095  -1.693
    4POP   C139  139   1.799  -0.128  -1.836
    4POP   C140  140   1.760  -0.030  -1.931
    4POP   C141  141   1.736  -0.071  -2.064
    4POP   C142  142   1.750  -0.205  -2.103
    4POP   O143  143   1.722  -0.230  -2.235
    4POP   C144  144   1.734  -0.365  -2.278
    4POP   C145  145   1.790  -0.299  -2.009
    4POP   C146  146   1.814  -0.261  -1.877
    4POP   C147  147   1.739   0.111  -1.894
    4POP   C148  148   1.818   0.212  -1.949
    4POP   C149  149   1.801   0.345  -1.910
    4POP   C150  150   1.704   0.379  -1.814
    4POP   C151  151   1.624   0.278  -1.760
    4POP   C152  152   1.641   0.146  -1.801
    4POP   C153  153   1.675   0.524  -1.778
    4POP   N154  154   1.630   0.597  -1.895
    4POP   C155  155   1.798   0.589  -1.714
    4POP   C156  156   1.926  -0.021  -1.646
    4POP   C157  157   1.935   0.014  -1.511
    4POP   H158  158   1.642  -0.123  -1.402
    4POP   H159  159   1.629  -0.186  -1.637
    4POP   H160  160   1.703   0.002  -2.138
    4POP   H161  161   1.714  -0.367  -2.386
    4POP   H162  162   1.660  -0.429  -2.229
    4POP   H163  163   1.835  -0.403  -2.263
    4POP   H164  164   1.803  -0.404  -2.035
    4POP   H165  165   1.842  -0.337  -1.804
    4POP   H166  166   1.894   0.188  -2.023
    4POP   H167  167   1.862   0.422  -1.956
    4POP   H168  168   1.545   0.302  -1.690
    4POP   H169  169   1.575   0.070  -1.759
    4POP   H170  170   1.593   0.528  -1.705
    4POP   H171  171   1.664   0.690  -1.914
    4POP   H172  172   1.829   0.534  -1.625
    4POP   H173  173   1.883   0.592  -1.783
    4POP   H174  174   1.776   0.692  -1.685
    4POP   H175  175   2.002   0.014  -1.715
    4POP   H176  176   2.018   0.075  -1.476
    5CAP   C177  177  -0.218  -0.660  -0.040
    5CAP   O178  178  -0.274  -0.532  -0.065
    5CAP   H179  179  -0.163  -0.701  -0.125
    5CAP   H180  180  -0.298  -0.729  -0.012
    5CAP   H181  181  -0.150  -0.650   0.046
    6CAP   C182  182   1.407   0.718  -2.274
    6CAP   C183  183   1.410   0.600  -2.176
    6CAP   C184  184   1.269   0.581  -2.119
    6CAP   C185  185   1.458   0.475  -2.251
    6CAP   O186  186   1.506   0.638  -2.074
    6CAP   C187  187   1.522   0.556  -1.967
    6CAP   O188  188   1.453   0.459  -1.941
    6CAP   H189  189   1.335   0.702  -2.354
    6CAP   H190  190   1.381   0.811  -2.221
    6CAP   H191  191   1.506   0.734  -2.319
    6CAP   H192  192   1.244   0.662  -2.050
    6CAP   H193  193   1.259   0.488  -2.063
    6CAP   H194  194   1.194   0.578  -2.198
    6CAP   H195  195   1.559   0.490  -2.291
    6CAP   H196  196   1.463   0.388  -2.185
    6CAP   H197  197   1.392   0.450  -2.334
  5.0000000  5.0000000  5.0000000
