[ defaults ]
; nbfunc	comb-rule	gen-pairs	fudgeLJ	fudgeQQ
     1	     2	yes   	0.500000	0.833333

[ atomtypes ]
;type, bondingtype, atomic_number, mass, charge, ptype, sigma, epsilon
pop_tetramer.pdb_0	     6	12.01078	0.0000000000000000	A    	0.3480646886945065	0.3635030558377792
pop_tetramer.pdb_1	     8	15.99943	0.0000000000000000	A    	0.3039812205065809	0.8795023257036865
pop_tetramer.pdb_2	     6	12.01078	0.0000000000000000	A    	0.3480646886945065	0.3635030558377792
pop_tetramer.pdb_3	     6	12.01078	0.0000000000000000	A    	0.3480646886945065	0.3635030558377792
pop_tetramer.pdb_4	     6	12.01078	0.0000000000000000	A    	0.3480646886945065	0.3635030558377792
pop_tetramer.pdb_5	     6	12.01078	0.0000000000000000	A    	0.3480646886945065	0.3635030558377792
pop_tetramer.pdb_6	     6	12.01078	0.0000000000000000	A    	0.3480646886945065	0.3635030558377792
pop_tetramer.pdb_7	     6	12.01078	0.0000000000000000	A    	0.3480646886945065	0.3635030558377792
pop_tetramer.pdb_8	     6	12.01078	0.0000000000000000	A    	0.3480646886945065	0.3635030558377792
pop_tetramer.pdb_9	     6	12.01078	0.0000000000000000	A    	0.3480646886945065	0.3635030558377792
pop_tetramer.pdb_10	     8	15.99943	0.0000000000000000	A    	0.3025106490435313	0.7048581468486769
pop_tetramer.pdb_11	     6	12.01078	0.0000000000000000	A    	0.337953176162662	0.4553891161106184
pop_tetramer.pdb_12	     6	12.01078	0.0000000000000000	A    	0.3480646886945065	0.3635030558377792
pop_tetramer.pdb_13	     6	12.01078	0.0000000000000000	A    	0.3480646886945065	0.3635030558377792
pop_tetramer.pdb_14	     6	12.01078	0.0000000000000000	A    	0.3480646886945065	0.3635030558377792
pop_tetramer.pdb_15	     6	12.01078	0.0000000000000000	A    	0.3480646886945065	0.3635030558377792
pop_tetramer.pdb_16	     6	12.01078	0.0000000000000000	A    	0.3480646886945065	0.3635030558377792
pop_tetramer.pdb_17	     6	12.01078	0.0000000000000000	A    	0.3480646886945065	0.3635030558377792
pop_tetramer.pdb_18	     6	12.01078	0.0000000000000000	A    	0.3480646886945065	0.3635030558377792
pop_tetramer.pdb_19	     6	12.01078	0.0000000000000000	A    	0.3480646886945065	0.3635030558377792
pop_tetramer.pdb_20	     6	12.01078	0.0000000000000000	A    	0.337953176162662	0.4553891161106184
pop_tetramer.pdb_21	     7	14.00672	0.0000000000000000	A    	0.3206876023663901	0.7016212989374017
pop_tetramer.pdb_22	     6	12.01078	0.0000000000000000	A    	0.337953176162662	0.4553891161106184
pop_tetramer.pdb_23	     6	12.01078	0.0000000000000000	A    	0.3480646886945065	0.3635030558377792
pop_tetramer.pdb_24	     6	12.01078	0.0000000000000000	A    	0.3480646886945065	0.3635030558377792
pop_tetramer.pdb_25	     1	1.007947	0.0000000000000000	A    	0.2572581535063279	0.06531785996356952
pop_tetramer.pdb_26	     1	1.007947	0.0000000000000000	A    	0.2572581535063279	0.06531785996356952
pop_tetramer.pdb_27	     1	1.007947	0.0000000000000000	A    	0.2572581535063279	0.06531785996356952
pop_tetramer.pdb_28	     1	1.007947	0.0000000000000000	A    	0.2583225710839196	0.068656285380106
pop_tetramer.pdb_29	     1	1.007947	0.0000000000000000	A    	0.2583225710839196	0.068656285380106
pop_tetramer.pdb_30	     1	1.007947	0.0000000000000000	A    	0.2583225710839196	0.068656285380106
pop_tetramer.pdb_31	     1	1.007947	0.0000000000000000	A    	0.2572581535063279	0.06531785996356952
pop_tetramer.pdb_32	     1	1.007947	0.0000000000000000	A    	0.2572581535063279	0.06531785996356952
pop_tetramer.pdb_33	     1	1.007947	0.0000000000000000	A    	0.2572581535063279	0.06531785996356952
pop_tetramer.pdb_34	     1	1.007947	0.0000000000000000	A    	0.2572581535063279	0.06531785996356952
pop_tetramer.pdb_35	     1	1.007947	0.0000000000000000	A    	0.2572581535063279	0.06531785996356952
pop_tetramer.pdb_36	     1	1.007947	0.0000000000000000	A    	0.2572581535063279	0.06531785996356952
pop_tetramer.pdb_37	     1	1.007947	0.0000000000000000	A    	0.2583225710839196	0.068656285380106
pop_tetramer.pdb_38	     1	1.007947	0.0000000000000000	A    	0.1103427677297317	0.05895596890015097
pop_tetramer.pdb_39	     1	1.007947	0.0000000000000000	A    	0.2644543413268124	0.06602135607582665
pop_tetramer.pdb_40	     1	1.007947	0.0000000000000000	A    	0.2644543413268124	0.06602135607582665
pop_tetramer.pdb_41	     1	1.007947	0.0000000000000000	A    	0.2644543413268124	0.06602135607582665
pop_tetramer.pdb_42	     1	1.007947	0.0000000000000000	A    	0.2572581535063279	0.06531785996356952
pop_tetramer.pdb_43	     1	1.007947	0.0000000000000000	A    	0.2572581535063279	0.06531785996356952
pop_tetramer.pdb_44	     6	12.01078	0.0000000000000000	A    	0.3480646886945065	0.3635030558377792
pop_tetramer.pdb_45	     8	15.99943	0.0000000000000000	A    	0.3039812205065809	0.8795023257036865
pop_tetramer.pdb_46	     6	12.01078	0.0000000000000000	A    	0.3480646886945065	0.3635030558377792
pop_tetramer.pdb_47	     6	12.01078	0.0000000000000000	A    	0.3480646886945065	0.3635030558377792
pop_tetramer.pdb_48	     6	12.01078	0.0000000000000000	A    	0.3480646886945065	0.3635030558377792
pop_tetramer.pdb_49	     6	12.01078	0.0000000000000000	A    	0.3480646886945065	0.3635030558377792
pop_tetramer.pdb_50	     6	12.01078	0.0000000000000000	A    	0.3480646886945065	0.3635030558377792
pop_tetramer.pdb_51	     6	12.01078	0.0000000000000000	A    	0.3480646886945065	0.3635030558377792
pop_tetramer.pdb_52	     6	12.01078	0.0000000000000000	A    	0.3480646886945065	0.3635030558377792
pop_tetramer.pdb_53	     6	12.01078	0.0000000000000000	A    	0.3480646886945065	0.3635030558377792
pop_tetramer.pdb_54	     8	15.99943	0.0000000000000000	A    	0.3025106490435313	0.7048581468486769
pop_tetramer.pdb_55	     6	12.01078	0.0000000000000000	A    	0.337953176162662	0.4553891161106184
pop_tetramer.pdb_56	     6	12.01078	0.0000000000000000	A    	0.3480646886945065	0.3635030558377792
pop_tetramer.pdb_57	     6	12.01078	0.0000000000000000	A    	0.3480646886945065	0.3635030558377792
pop_tetramer.pdb_58	     6	12.01078	0.0000000000000000	A    	0.3480646886945065	0.3635030558377792
pop_tetramer.pdb_59	     6	12.01078	0.0000000000000000	A    	0.3480646886945065	0.3635030558377792
pop_tetramer.pdb_60	     6	12.01078	0.0000000000000000	A    	0.3480646886945065	0.3635030558377792
pop_tetramer.pdb_61	     6	12.01078	0.0000000000000000	A    	0.3480646886945065	0.3635030558377792
pop_tetramer.pdb_62	     6	12.01078	0.0000000000000000	A    	0.3480646886945065	0.3635030558377792
pop_tetramer.pdb_63	     6	12.01078	0.0000000000000000	A    	0.3480646886945065	0.3635030558377792
pop_tetramer.pdb_64	     6	12.01078	0.0000000000000000	A    	0.337953176162662	0.4553891161106184
pop_tetramer.pdb_65	     7	14.00672	0.0000000000000000	A    	0.3206876023663901	0.7016212989374017
pop_tetramer.pdb_66	     6	12.01078	0.0000000000000000	A    	0.337953176162662	0.4553891161106184
pop_tetramer.pdb_67	     6	12.01078	0.0000000000000000	A    	0.3480646886945065	0.3635030558377792
pop_tetramer.pdb_68	     6	12.01078	0.0000000000000000	A    	0.3480646886945065	0.3635030558377792
pop_tetramer.pdb_69	     1	1.007947	0.0000000000000000	A    	0.2572581535063279	0.06531785996356952
pop_tetramer.pdb_70	     1	1.007947	0.0000000000000000	A    	0.2572581535063279	0.06531785996356952
pop_tetramer.pdb_71	     1	1.007947	0.0000000000000000	A    	0.2572581535063279	0.06531785996356952
pop_tetramer.pdb_72	     1	1.007947	0.0000000000000000	A    	0.2583225710839196	0.068656285380106
pop_tetramer.pdb_73	     1	1.007947	0.0000000000000000	A    	0.2583225710839196	0.068656285380106
pop_tetramer.pdb_74	     1	1.007947	0.0000000000000000	A    	0.2583225710839196	0.068656285380106
pop_tetramer.pdb_75	     1	1.007947	0.0000000000000000	A    	0.2572581535063279	0.06531785996356952
pop_tetramer.pdb_76	     1	1.007947	0.0000000000000000	A    	0.2572581535063279	0.06531785996356952
pop_tetramer.pdb_77	     1	1.007947	0.0000000000000000	A    	0.2572581535063279	0.06531785996356952
pop_tetramer.pdb_78	     1	1.007947	0.0000000000000000	A    	0.2572581535063279	0.06531785996356952
pop_tetramer.pdb_79	     1	1.007947	0.0000000000000000	A    	0.2572581535063279	0.06531785996356952
pop_tetramer.pdb_80	     1	1.007947	0.0000000000000000	A    	0.2572581535063279	0.06531785996356952
pop_tetramer.pdb_81	     1	1.007947	0.0000000000000000	A    	0.2583225710839196	0.068656285380106
pop_tetramer.pdb_82	     1	1.007947	0.0000000000000000	A    	0.1103427677297317	0.05895596890015097
pop_tetramer.pdb_83	     1	1.007947	0.0000000000000000	A    	0.2644543413268124	0.06602135607582665
pop_tetramer.pdb_84	     1	1.007947	0.0000000000000000	A    	0.2644543413268124	0.06602135607582665
pop_tetramer.pdb_85	     1	1.007947	0.0000000000000000	A    	0.2644543413268124	0.06602135607582665
pop_tetramer.pdb_86	     1	1.007947	0.0000000000000000	A    	0.2572581535063279	0.06531785996356952
pop_tetramer.pdb_87	     1	1.007947	0.0000000000000000	A    	0.2572581535063279	0.06531785996356952
pop_tetramer.pdb_88	     6	12.01078	0.0000000000000000	A    	0.3480646886945065	0.3635030558377792
pop_tetramer.pdb_89	     8	15.99943	0.0000000000000000	A    	0.3039812205065809	0.8795023257036865
pop_tetramer.pdb_90	     6	12.01078	0.0000000000000000	A    	0.3480646886945065	0.3635030558377792
pop_tetramer.pdb_91	     6	12.01078	0.0000000000000000	A    	0.3480646886945065	0.3635030558377792
pop_tetramer.pdb_92	     6	12.01078	0.0000000000000000	A    	0.3480646886945065	0.3635030558377792
pop_tetramer.pdb_93	     6	12.01078	0.0000000000000000	A    	0.3480646886945065	0.3635030558377792
pop_tetramer.pdb_94	     6	12.01078	0.0000000000000000	A    	0.3480646886945065	0.3635030558377792
pop_tetramer.pdb_95	     6	12.01078	0.0000000000000000	A    	0.3480646886945065	0.3635030558377792
pop_tetramer.pdb_96	     6	12.01078	0.0000000000000000	A    	0.3480646886945065	0.3635030558377792
pop_tetramer.pdb_97	     6	12.01078	0.0000000000000000	A    	0.3480646886945065	0.3635030558377792
pop_tetramer.pdb_98	     8	15.99943	0.0000000000000000	A    	0.3025106490435313	0.7048581468486769
pop_tetramer.pdb_99	     6	12.01078	0.0000000000000000	A    	0.337953176162662	0.4553891161106184
pop_tetramer.pdb_100	     6	12.01078	0.0000000000000000	A    	0.3480646886945065	0.3635030558377792
pop_tetramer.pdb_101	     6	12.01078	0.0000000000000000	A    	0.3480646886945065	0.3635030558377792
pop_tetramer.pdb_102	     6	12.01078	0.0000000000000000	A    	0.3480646886945065	0.3635030558377792
pop_tetramer.pdb_103	     6	12.01078	0.0000000000000000	A    	0.3480646886945065	0.3635030558377792
pop_tetramer.pdb_104	     6	12.01078	0.0000000000000000	A    	0.3480646886945065	0.3635030558377792
pop_tetramer.pdb_105	     6	12.01078	0.0000000000000000	A    	0.3480646886945065	0.3635030558377792
pop_tetramer.pdb_106	     6	12.01078	0.0000000000000000	A    	0.3480646886945065	0.3635030558377792
pop_tetramer.pdb_107	     6	12.01078	0.0000000000000000	A    	0.3480646886945065	0.3635030558377792
pop_tetramer.pdb_108	     6	12.01078	0.0000000000000000	A    	0.337953176162662	0.4553891161106184
pop_tetramer.pdb_109	     7	14.00672	0.0000000000000000	A    	0.3206876023663901	0.7016212989374017
pop_tetramer.pdb_110	     6	12.01078	0.0000000000000000	A    	0.337953176162662	0.4553891161106184
pop_tetramer.pdb_111	     6	12.01078	0.0000000000000000	A    	0.3480646886945065	0.3635030558377792
pop_tetramer.pdb_112	     6	12.01078	0.0000000000000000	A    	0.3480646886945065	0.3635030558377792
pop_tetramer.pdb_113	     1	1.007947	0.0000000000000000	A    	0.2572581535063279	0.06531785996356952
pop_tetramer.pdb_114	     1	1.007947	0.0000000000000000	A    	0.2572581535063279	0.06531785996356952
pop_tetramer.pdb_115	     1	1.007947	0.0000000000000000	A    	0.2572581535063279	0.06531785996356952
pop_tetramer.pdb_116	     1	1.007947	0.0000000000000000	A    	0.2583225710839196	0.068656285380106
pop_tetramer.pdb_117	     1	1.007947	0.0000000000000000	A    	0.2583225710839196	0.068656285380106
pop_tetramer.pdb_118	     1	1.007947	0.0000000000000000	A    	0.2583225710839196	0.068656285380106
pop_tetramer.pdb_119	     1	1.007947	0.0000000000000000	A    	0.2572581535063279	0.06531785996356952
pop_tetramer.pdb_120	     1	1.007947	0.0000000000000000	A    	0.2572581535063279	0.06531785996356952
pop_tetramer.pdb_121	     1	1.007947	0.0000000000000000	A    	0.2572581535063279	0.06531785996356952
pop_tetramer.pdb_122	     1	1.007947	0.0000000000000000	A    	0.2572581535063279	0.06531785996356952
pop_tetramer.pdb_123	     1	1.007947	0.0000000000000000	A    	0.2572581535063279	0.06531785996356952
pop_tetramer.pdb_124	     1	1.007947	0.0000000000000000	A    	0.2572581535063279	0.06531785996356952
pop_tetramer.pdb_125	     1	1.007947	0.0000000000000000	A    	0.2583225710839196	0.068656285380106
pop_tetramer.pdb_126	     1	1.007947	0.0000000000000000	A    	0.1103427677297317	0.05895596890015097
pop_tetramer.pdb_127	     1	1.007947	0.0000000000000000	A    	0.2644543413268124	0.06602135607582665
pop_tetramer.pdb_128	     1	1.007947	0.0000000000000000	A    	0.2644543413268124	0.06602135607582665
pop_tetramer.pdb_129	     1	1.007947	0.0000000000000000	A    	0.2644543413268124	0.06602135607582665
pop_tetramer.pdb_130	     1	1.007947	0.0000000000000000	A    	0.2572581535063279	0.06531785996356952
pop_tetramer.pdb_131	     1	1.007947	0.0000000000000000	A    	0.2572581535063279	0.06531785996356952
pop_tetramer.pdb_132	     6	12.01078	0.0000000000000000	A    	0.3480646886945065	0.3635030558377792
pop_tetramer.pdb_133	     8	15.99943	0.0000000000000000	A    	0.3039812205065809	0.8795023257036865
pop_tetramer.pdb_134	     6	12.01078	0.0000000000000000	A    	0.3480646886945065	0.3635030558377792
pop_tetramer.pdb_135	     6	12.01078	0.0000000000000000	A    	0.3480646886945065	0.3635030558377792
pop_tetramer.pdb_136	     6	12.01078	0.0000000000000000	A    	0.3480646886945065	0.3635030558377792
pop_tetramer.pdb_137	     6	12.01078	0.0000000000000000	A    	0.3480646886945065	0.3635030558377792
pop_tetramer.pdb_138	     6	12.01078	0.0000000000000000	A    	0.3480646886945065	0.3635030558377792
pop_tetramer.pdb_139	     6	12.01078	0.0000000000000000	A    	0.3480646886945065	0.3635030558377792
pop_tetramer.pdb_140	     6	12.01078	0.0000000000000000	A    	0.3480646886945065	0.3635030558377792
pop_tetramer.pdb_141	     6	12.01078	0.0000000000000000	A    	0.3480646886945065	0.3635030558377792
pop_tetramer.pdb_142	     8	15.99943	0.0000000000000000	A    	0.3025106490435313	0.7048581468486769
pop_tetramer.pdb_143	     6	12.01078	0.0000000000000000	A    	0.337953176162662	0.4553891161106184
pop_tetramer.pdb_144	     6	12.01078	0.0000000000000000	A    	0.3480646886945065	0.3635030558377792
pop_tetramer.pdb_145	     6	12.01078	0.0000000000000000	A    	0.3480646886945065	0.3635030558377792
pop_tetramer.pdb_146	     6	12.01078	0.0000000000000000	A    	0.3480646886945065	0.3635030558377792
pop_tetramer.pdb_147	     6	12.01078	0.0000000000000000	A    	0.3480646886945065	0.3635030558377792
pop_tetramer.pdb_148	     6	12.01078	0.0000000000000000	A    	0.3480646886945065	0.3635030558377792
pop_tetramer.pdb_149	     6	12.01078	0.0000000000000000	A    	0.3480646886945065	0.3635030558377792
pop_tetramer.pdb_150	     6	12.01078	0.0000000000000000	A    	0.3480646886945065	0.3635030558377792
pop_tetramer.pdb_151	     6	12.01078	0.0000000000000000	A    	0.3480646886945065	0.3635030558377792
pop_tetramer.pdb_152	     6	12.01078	0.0000000000000000	A    	0.337953176162662	0.4553891161106184
pop_tetramer.pdb_153	     7	14.00672	0.0000000000000000	A    	0.3206876023663901	0.7016212989374017
pop_tetramer.pdb_154	     6	12.01078	0.0000000000000000	A    	0.337953176162662	0.4553891161106184
pop_tetramer.pdb_155	     6	12.01078	0.0000000000000000	A    	0.3480646886945065	0.3635030558377792
pop_tetramer.pdb_156	     6	12.01078	0.0000000000000000	A    	0.3480646886945065	0.3635030558377792
pop_tetramer.pdb_157	     1	1.007947	0.0000000000000000	A    	0.2572581535063279	0.06531785996356952
pop_tetramer.pdb_158	     1	1.007947	0.0000000000000000	A    	0.2572581535063279	0.06531785996356952
pop_tetramer.pdb_159	     1	1.007947	0.0000000000000000	A    	0.2572581535063279	0.06531785996356952
pop_tetramer.pdb_160	     1	1.007947	0.0000000000000000	A    	0.2583225710839196	0.068656285380106
pop_tetramer.pdb_161	     1	1.007947	0.0000000000000000	A    	0.2583225710839196	0.068656285380106
pop_tetramer.pdb_162	     1	1.007947	0.0000000000000000	A    	0.2583225710839196	0.068656285380106
pop_tetramer.pdb_163	     1	1.007947	0.0000000000000000	A    	0.2572581535063279	0.06531785996356952
pop_tetramer.pdb_164	     1	1.007947	0.0000000000000000	A    	0.2572581535063279	0.06531785996356952
pop_tetramer.pdb_165	     1	1.007947	0.0000000000000000	A    	0.2572581535063279	0.06531785996356952
pop_tetramer.pdb_166	     1	1.007947	0.0000000000000000	A    	0.2572581535063279	0.06531785996356952
pop_tetramer.pdb_167	     1	1.007947	0.0000000000000000	A    	0.2572581535063279	0.06531785996356952
pop_tetramer.pdb_168	     1	1.007947	0.0000000000000000	A    	0.2572581535063279	0.06531785996356952
pop_tetramer.pdb_169	     1	1.007947	0.0000000000000000	A    	0.2583225710839196	0.068656285380106
pop_tetramer.pdb_170	     1	1.007947	0.0000000000000000	A    	0.1103427677297317	0.05895596890015097
pop_tetramer.pdb_171	     1	1.007947	0.0000000000000000	A    	0.2644543413268124	0.06602135607582665
pop_tetramer.pdb_172	     1	1.007947	0.0000000000000000	A    	0.2644543413268124	0.06602135607582665
pop_tetramer.pdb_173	     1	1.007947	0.0000000000000000	A    	0.2644543413268124	0.06602135607582665
pop_tetramer.pdb_174	     1	1.007947	0.0000000000000000	A    	0.2572581535063279	0.06531785996356952
pop_tetramer.pdb_175	     1	1.007947	0.0000000000000000	A    	0.2572581535063279	0.06531785996356952
pop_tetramer.pdb_176	     6	12.01078	0.0000000000000000	A    	0.337953176162662	0.4553891161106184
pop_tetramer.pdb_177	     8	15.99943	0.0000000000000000	A    	0.3025106490435313	0.7048581468486769
pop_tetramer.pdb_178	     1	1.007947	0.0000000000000000	A    	0.2583225710839196	0.068656285380106
pop_tetramer.pdb_179	     1	1.007947	0.0000000000000000	A    	0.2583225710839196	0.068656285380106
pop_tetramer.pdb_180	     1	1.007947	0.0000000000000000	A    	0.2583225710839196	0.068656285380106
pop_tetramer.pdb_181	     6	12.01078	0.0000000000000000	A    	0.337953176162662	0.4553891161106184
pop_tetramer.pdb_182	     6	12.01078	0.0000000000000000	A    	0.337953176162662	0.4553891161106184
pop_tetramer.pdb_183	     6	12.01078	0.0000000000000000	A    	0.337953176162662	0.4553891161106184
pop_tetramer.pdb_184	     6	12.01078	0.0000000000000000	A    	0.337953176162662	0.4553891161106184
pop_tetramer.pdb_185	     8	15.99943	0.0000000000000000	A    	0.3025106490435313	0.7048581468486769
pop_tetramer.pdb_186	     6	12.01078	0.0000000000000000	A    	0.3480646886945065	0.3635030558377792
pop_tetramer.pdb_187	     8	15.99943	0.0000000000000000	A    	0.3039812205065809	0.8795023257036865
pop_tetramer.pdb_188	     1	1.007947	0.0000000000000000	A    	0.2644543413268124	0.06602135607582665
pop_tetramer.pdb_189	     1	1.007947	0.0000000000000000	A    	0.2644543413268124	0.06602135607582665
pop_tetramer.pdb_190	     1	1.007947	0.0000000000000000	A    	0.2644543413268124	0.06602135607582665
pop_tetramer.pdb_191	     1	1.007947	0.0000000000000000	A    	0.2644543413268124	0.06602135607582665
pop_tetramer.pdb_192	     1	1.007947	0.0000000000000000	A    	0.2644543413268124	0.06602135607582665
pop_tetramer.pdb_193	     1	1.007947	0.0000000000000000	A    	0.2644543413268124	0.06602135607582665
pop_tetramer.pdb_194	     1	1.007947	0.0000000000000000	A    	0.2644543413268124	0.06602135607582665
pop_tetramer.pdb_195	     1	1.007947	0.0000000000000000	A    	0.2644543413268124	0.06602135607582665
pop_tetramer.pdb_196	     1	1.007947	0.0000000000000000	A    	0.2644543413268124	0.06602135607582665

[ moleculetype ]
pop_tetramer.pdb	         3

[ atoms ]
;index, atom type, resnum, resname, name, cgnr, charge, mass
     1 pop_tetramer.pdb_0       1 POP      C1         1      0.644649982035     12.010780000000
     2 pop_tetramer.pdb_1       1 POP      O2         1     -0.540970027865     15.999430000000
     3 pop_tetramer.pdb_2       1 POP      C3         1     -0.135480001987     12.010780000000
     4 pop_tetramer.pdb_3       1 POP      C4         1     -0.076860003591     12.010780000000
     5 pop_tetramer.pdb_4       1 POP      C5         1     -0.129810005844     12.010780000000
     6 pop_tetramer.pdb_5       1 POP      C6         1     -0.000230000423     12.010780000000
     7 pop_tetramer.pdb_6       1 POP      C7         1     -0.079630002797     12.010780000000
     8 pop_tetramer.pdb_7       1 POP      C8         1      0.007899999201     12.010780000000
     9 pop_tetramer.pdb_8       1 POP      C9         1     -0.144429997027     12.010780000000
    10 pop_tetramer.pdb_9       1 POP      C10        1      0.129439994275     12.010780000000
    11 pop_tetramer.pdb_10       1 POP      O11        1     -0.326249987305     15.999430000000
    12 pop_tetramer.pdb_11       1 POP      C12        1      0.112899995922     12.010780000000
    13 pop_tetramer.pdb_12       1 POP      C13        1     -0.203040004194     12.010780000000
    14 pop_tetramer.pdb_13       1 POP      C14        1     -0.081670001567     12.010780000000
    15 pop_tetramer.pdb_14       1 POP      C15        1     -0.040360000402     12.010780000000
    16 pop_tetramer.pdb_15       1 POP      C16        1     -0.109789997757     12.010780000000
    17 pop_tetramer.pdb_16       1 POP      C17        1     -0.122819997788     12.010780000000
    18 pop_tetramer.pdb_17       1 POP      C18        1     -0.093410000623     12.010780000000
    19 pop_tetramer.pdb_18       1 POP      C19        1     -0.122819997788     12.010780000000
    20 pop_tetramer.pdb_19       1 POP      C20        1     -0.109789997757     12.010780000000
    21 pop_tetramer.pdb_20       1 POP      C21        1      0.152810006916     12.010780000000
    22 pop_tetramer.pdb_21       1 POP      N22        1     -0.571879983366     14.006720000000
    23 pop_tetramer.pdb_22       1 POP      C23        1     -0.110469997347     12.010780000000
    24 pop_tetramer.pdb_23       1 POP      C24        1     -0.129810005844     12.010780000000
    25 pop_tetramer.pdb_24       1 POP      C25        1     -0.076860003591     12.010780000000
    26 pop_tetramer.pdb_25       1 POP      H26        1      0.152869998991      1.007947000000
    27 pop_tetramer.pdb_26       1 POP      H27        1      0.143680005848      1.007947000000
    28 pop_tetramer.pdb_27       1 POP      H28        1      0.158460005700      1.007947000000
    29 pop_tetramer.pdb_28       1 POP      H29        1      0.046279999941      1.007947000000
    30 pop_tetramer.pdb_29       1 POP      H30        1      0.046279999941      1.007947000000
    31 pop_tetramer.pdb_30       1 POP      H31        1      0.046279999941      1.007947000000
    32 pop_tetramer.pdb_31       1 POP      H32        1      0.141369998037      1.007947000000
    33 pop_tetramer.pdb_32       1 POP      H33        1      0.141149997293      1.007947000000
    34 pop_tetramer.pdb_33       1 POP      H34        1      0.138919993817      1.007947000000
    35 pop_tetramer.pdb_34       1 POP      H35        1      0.135159998714      1.007947000000
    36 pop_tetramer.pdb_35       1 POP      H36        1      0.135159998714      1.007947000000
    37 pop_tetramer.pdb_36       1 POP      H37        1      0.138919993817      1.007947000000
    38 pop_tetramer.pdb_37       1 POP      H38        1      0.082730002283      1.007947000000
    39 pop_tetramer.pdb_38       1 POP      H39        1      0.311390012085      1.007947000000
    40 pop_tetramer.pdb_39       1 POP      H40        1      0.045790001332      1.007947000000
    41 pop_tetramer.pdb_40       1 POP      H41        1      0.045790001332      1.007947000000
    42 pop_tetramer.pdb_41       1 POP      H42        1      0.045790001332      1.007947000000
    43 pop_tetramer.pdb_42       1 POP      H43        1      0.143680005848      1.007947000000
    44 pop_tetramer.pdb_43       1 POP      H44        1      0.152869998991      1.007947000000
    45 pop_tetramer.pdb_44       2 POP      C45        1      0.676280021250     12.010780000000
    46 pop_tetramer.pdb_45       2 POP      O46        1     -0.610040009440     15.999430000000
    47 pop_tetramer.pdb_46       2 POP      C47        1     -0.141780004323     12.010780000000
    48 pop_tetramer.pdb_47       2 POP      C48        1     -0.092249997378     12.010780000000
    49 pop_tetramer.pdb_48       2 POP      C49        1     -0.126029998482     12.010780000000
    50 pop_tetramer.pdb_49       2 POP      C50        1     -0.009620000095     12.010780000000
    51 pop_tetramer.pdb_50       2 POP      C51        1     -0.077150002540     12.010780000000
    52 pop_tetramer.pdb_51       2 POP      C52        1      0.007369999356     12.010780000000
    53 pop_tetramer.pdb_52       2 POP      C53        1     -0.145219996989     12.010780000000
    54 pop_tetramer.pdb_53       2 POP      C54        1      0.127869993030     12.010780000000
    55 pop_tetramer.pdb_54       2 POP      O55        1     -0.326079994858     15.999430000000
    56 pop_tetramer.pdb_55       2 POP      C56        1      0.112970001578     12.010780000000
    57 pop_tetramer.pdb_56       2 POP      C57        1     -0.203659996808     12.010780000000
    58 pop_tetramer.pdb_57       2 POP      C58        1     -0.082920000375     12.010780000000
    59 pop_tetramer.pdb_58       2 POP      C59        1     -0.039609998882     12.010780000000
    60 pop_tetramer.pdb_59       2 POP      C60        1     -0.111699998797     12.010780000000
    61 pop_tetramer.pdb_60       2 POP      C61        1     -0.120909996749     12.010780000000
    62 pop_tetramer.pdb_61       2 POP      C62        1     -0.091830000699     12.010780000000
    63 pop_tetramer.pdb_62       2 POP      C63        1     -0.120909996749     12.010780000000
    64 pop_tetramer.pdb_63       2 POP      C64        1     -0.111699998797     12.010780000000
    65 pop_tetramer.pdb_64       2 POP      C65        1      0.151089995682     12.010780000000
    66 pop_tetramer.pdb_65       2 POP      N66        1     -0.574339986265     14.006720000000
    67 pop_tetramer.pdb_66       2 POP      C67        1     -0.108280003489     12.010780000000
    68 pop_tetramer.pdb_67       2 POP      C68        1     -0.126029998482     12.010780000000
    69 pop_tetramer.pdb_68       2 POP      C69        1     -0.092249997378     12.010780000000
    70 pop_tetramer.pdb_69       2 POP      H70        1      0.147630005657      1.007947000000
    71 pop_tetramer.pdb_70       2 POP      H71        1      0.141430005013      1.007947000000
    72 pop_tetramer.pdb_71       2 POP      H72        1      0.157629996120      1.007947000000
    73 pop_tetramer.pdb_72       2 POP      H73        1      0.046289998620      1.007947000000
    74 pop_tetramer.pdb_73       2 POP      H74        1      0.046289998620      1.007947000000
    75 pop_tetramer.pdb_74       2 POP      H75        1      0.046289998620      1.007947000000
    76 pop_tetramer.pdb_75       2 POP      H76        1      0.141039996921      1.007947000000
    77 pop_tetramer.pdb_76       2 POP      H77        1      0.140359997332      1.007947000000
    78 pop_tetramer.pdb_77       2 POP      H78        1      0.135719999253      1.007947000000
    79 pop_tetramer.pdb_78       2 POP      H79        1      0.135639994919      1.007947000000
    80 pop_tetramer.pdb_79       2 POP      H80        1      0.135639994919      1.007947000000
    81 pop_tetramer.pdb_80       2 POP      H81        1      0.135719999253      1.007947000000
    82 pop_tetramer.pdb_81       2 POP      H82        1      0.085909999489      1.007947000000
    83 pop_tetramer.pdb_82       2 POP      H83        1      0.310499995529      1.007947000000
    84 pop_tetramer.pdb_83       2 POP      H84        1      0.044739998459      1.007947000000
    85 pop_tetramer.pdb_84       2 POP      H85        1      0.044739998459      1.007947000000
    86 pop_tetramer.pdb_85       2 POP      H86        1      0.044739998459      1.007947000000
    87 pop_tetramer.pdb_86       2 POP      H87        1      0.141430005013      1.007947000000
    88 pop_tetramer.pdb_87       2 POP      H88        1      0.147630005657      1.007947000000
    89 pop_tetramer.pdb_88       3 POP      C89        1      0.677980005323     12.010780000000
    90 pop_tetramer.pdb_89       3 POP      O90        1     -0.607509971083     15.999430000000
    91 pop_tetramer.pdb_90       3 POP      C91        1     -0.142910004080     12.010780000000
    92 pop_tetramer.pdb_91       3 POP      C92        1     -0.089850001455     12.010780000000
    93 pop_tetramer.pdb_92       3 POP      C93        1     -0.123329997480     12.010780000000
    94 pop_tetramer.pdb_93       3 POP      C94        1     -0.012020000674     12.010780000000
    95 pop_tetramer.pdb_94       3 POP      C95        1     -0.071529999793     12.010780000000
    96 pop_tetramer.pdb_95       3 POP      C96        1      0.012470000006     12.010780000000
    97 pop_tetramer.pdb_96       3 POP      C97        1     -0.146830007852     12.010780000000
    98 pop_tetramer.pdb_97       3 POP      C98        1      0.123989998876     12.010780000000
    99 pop_tetramer.pdb_98       3 POP      O99        1     -0.325690001667     15.999430000000
   100 pop_tetramer.pdb_99       3 POP      C100       1      0.113130002796     12.010780000000
   101 pop_tetramer.pdb_100       3 POP      C101       1     -0.206200004042     12.010780000000
   102 pop_tetramer.pdb_101       3 POP      C102       1     -0.086010002018     12.010780000000
   103 pop_tetramer.pdb_102       3 POP      C103       1     -0.044799998820     12.010780000000
   104 pop_tetramer.pdb_103       3 POP      C104       1     -0.113229997874     12.010780000000
   105 pop_tetramer.pdb_104       3 POP      C105       1     -0.113119997502     12.010780000000
   106 pop_tetramer.pdb_105       3 POP      C106       1     -0.103090003551     12.010780000000
   107 pop_tetramer.pdb_106       3 POP      C107       1     -0.113119997502     12.010780000000
   108 pop_tetramer.pdb_107       3 POP      C108       1     -0.113229997874     12.010780000000
   109 pop_tetramer.pdb_108       3 POP      C109       1      0.148570000708     12.010780000000
   110 pop_tetramer.pdb_109       3 POP      N110       1     -0.564050019205     14.006720000000
   111 pop_tetramer.pdb_110       3 POP      C111       1     -0.102370001793     12.010780000000
   112 pop_tetramer.pdb_111       3 POP      C112       1     -0.123329997480     12.010780000000
   113 pop_tetramer.pdb_112       3 POP      C113       1     -0.089850001455     12.010780000000
   114 pop_tetramer.pdb_113       3 POP      H114       1      0.148069992244      1.007947000000
   115 pop_tetramer.pdb_114       3 POP      H115       1      0.141069992959      1.007947000000
   116 pop_tetramer.pdb_115       3 POP      H116       1      0.156770005404      1.007947000000
   117 pop_tetramer.pdb_116       3 POP      H117       1      0.044649999171      1.007947000000
   118 pop_tetramer.pdb_117       3 POP      H118       1      0.044649999171      1.007947000000
   119 pop_tetramer.pdb_118       3 POP      H119       1      0.044649999171      1.007947000000
   120 pop_tetramer.pdb_119       3 POP      H120       1      0.138569995343      1.007947000000
   121 pop_tetramer.pdb_120       3 POP      H121       1      0.138199999511      1.007947000000
   122 pop_tetramer.pdb_121       3 POP      H122       1      0.133090003907      1.007947000000
   123 pop_tetramer.pdb_122       3 POP      H123       1      0.138740002691      1.007947000000
   124 pop_tetramer.pdb_123       3 POP      H124       1      0.138740002691      1.007947000000
   125 pop_tetramer.pdb_124       3 POP      H125       1      0.133090003907      1.007947000000
   126 pop_tetramer.pdb_125       3 POP      H126       1      0.084969996988      1.007947000000
   127 pop_tetramer.pdb_126       3 POP      H127       1      0.308360009968      1.007947000000
   128 pop_tetramer.pdb_127       3 POP      H128       1      0.043939999818      1.007947000000
   129 pop_tetramer.pdb_128       3 POP      H129       1      0.043939999818      1.007947000000
   130 pop_tetramer.pdb_129       3 POP      H130       1      0.043939999818      1.007947000000
   131 pop_tetramer.pdb_130       3 POP      H131       1      0.141069992959      1.007947000000
   132 pop_tetramer.pdb_131       3 POP      H132       1      0.148069992244      1.007947000000
   133 pop_tetramer.pdb_132       4 POP      C133       1      0.677640020430     12.010780000000
   134 pop_tetramer.pdb_133       4 POP      O134       1     -0.605939984739     15.999430000000
   135 pop_tetramer.pdb_134       4 POP      C135       1     -0.141059995115     12.010780000000
   136 pop_tetramer.pdb_135       4 POP      C136       1     -0.085380003274     12.010780000000
   137 pop_tetramer.pdb_136       4 POP      C137       1     -0.124930002213     12.010780000000
   138 pop_tetramer.pdb_137       4 POP      C138       1     -0.015900001348     12.010780000000
   139 pop_tetramer.pdb_138       4 POP      C139       1     -0.068000004113     12.010780000000
   140 pop_tetramer.pdb_139       4 POP      C140       1      0.009419999599     12.010780000000
   141 pop_tetramer.pdb_140       4 POP      C141       1     -0.145590007723     12.010780000000
   142 pop_tetramer.pdb_141       4 POP      C142       1      0.125499993145     12.010780000000
   143 pop_tetramer.pdb_142       4 POP      O143       1     -0.327149987639     15.999430000000
   144 pop_tetramer.pdb_143       4 POP      C144       1      0.113839998423     12.010780000000
   145 pop_tetramer.pdb_144       4 POP      C145       1     -0.208450004876     12.010780000000
   146 pop_tetramer.pdb_145       4 POP      C146       1     -0.088019997299     12.010780000000
   147 pop_tetramer.pdb_146       4 POP      C147       1     -0.037889998824     12.010780000000
   148 pop_tetramer.pdb_147       4 POP      C148       1     -0.112489998758     12.010780000000
   149 pop_tetramer.pdb_148       4 POP      C149       1     -0.114249997259     12.010780000000
   150 pop_tetramer.pdb_149       4 POP      C150       1     -0.109829999924     12.010780000000
   151 pop_tetramer.pdb_150       4 POP      C151       1     -0.114249997259     12.010780000000
   152 pop_tetramer.pdb_151       4 POP      C152       1     -0.112489998758     12.010780000000
   153 pop_tetramer.pdb_152       4 POP      C153       1      0.154990002095     12.010780000000
   154 pop_tetramer.pdb_153       4 POP      N154       1     -0.545469999731     14.006720000000
   155 pop_tetramer.pdb_154       4 POP      C155       1     -0.099160001100     12.010780000000
   156 pop_tetramer.pdb_155       4 POP      C156       1     -0.124930002213     12.010780000000
   157 pop_tetramer.pdb_156       4 POP      C157       1     -0.085380003274     12.010780000000
   158 pop_tetramer.pdb_157       4 POP      H158       1      0.150099992334      1.007947000000
   159 pop_tetramer.pdb_158       4 POP      H159       1      0.139579996049      1.007947000000
   160 pop_tetramer.pdb_159       4 POP      H160       1      0.155680000364      1.007947000000
   161 pop_tetramer.pdb_160       4 POP      H161       1      0.044890000998      1.007947000000
   162 pop_tetramer.pdb_161       4 POP      H162       1      0.044890000998      1.007947000000
   163 pop_tetramer.pdb_162       4 POP      H163       1      0.044890000998      1.007947000000
   164 pop_tetramer.pdb_163       4 POP      H164       1      0.136539995253      1.007947000000
   165 pop_tetramer.pdb_164       4 POP      H165       1      0.142900004565      1.007947000000
   166 pop_tetramer.pdb_165       4 POP      H166       1      0.136089995086      1.007947000000
   167 pop_tetramer.pdb_166       4 POP      H167       1      0.135729997932      1.007947000000
   168 pop_tetramer.pdb_167       4 POP      H168       1      0.135729997932      1.007947000000
   169 pop_tetramer.pdb_168       4 POP      H169       1      0.136089995086      1.007947000000
   170 pop_tetramer.pdb_169       4 POP      H170       1      0.085790000438      1.007947000000
   171 pop_tetramer.pdb_170       4 POP      H171       1      0.320219993174      1.007947000000
   172 pop_tetramer.pdb_171       4 POP      H172       1      0.045699998319      1.007947000000
   173 pop_tetramer.pdb_172       4 POP      H173       1      0.045699998319      1.007947000000
   174 pop_tetramer.pdb_173       4 POP      H174       1      0.045699998319      1.007947000000
   175 pop_tetramer.pdb_174       4 POP      H175       1      0.139579996049      1.007947000000
   176 pop_tetramer.pdb_175       4 POP      H176       1      0.150099992334      1.007947000000
   177 pop_tetramer.pdb_176       5 CAP      C177       1      0.124319999992     12.010780000000
   178 pop_tetramer.pdb_177       5 CAP      O178       1     -0.429890007198     15.999430000000
   179 pop_tetramer.pdb_178       5 CAP      H179       1      0.051189999610      1.007947000000
   180 pop_tetramer.pdb_179       5 CAP      H180       1      0.051189999610      1.007947000000
   181 pop_tetramer.pdb_180       5 CAP      H181       1      0.051189999610      1.007947000000
   182 pop_tetramer.pdb_181       6 CAP      C182       1     -0.115120001555     12.010780000000
   183 pop_tetramer.pdb_182       6 CAP      C183       1      0.188590004622     12.010780000000
   184 pop_tetramer.pdb_183       6 CAP      C184       1     -0.115120001555     12.010780000000
   185 pop_tetramer.pdb_184       6 CAP      C185       1     -0.115120001555     12.010780000000
   186 pop_tetramer.pdb_185       6 CAP      O186       1     -0.445589989842     15.999430000000
   187 pop_tetramer.pdb_186       6 CAP      C187       1      0.750490009367     12.010780000000
   188 pop_tetramer.pdb_187       6 CAP      O188       1     -0.601029992521     15.999430000000
   189 pop_tetramer.pdb_188       6 CAP      H189       1      0.052110001027      1.007947000000
   190 pop_tetramer.pdb_189       6 CAP      H190       1      0.052110001027      1.007947000000
   191 pop_tetramer.pdb_190       6 CAP      H191       1      0.052110001027      1.007947000000
   192 pop_tetramer.pdb_191       6 CAP      H192       1      0.052110001027      1.007947000000
   193 pop_tetramer.pdb_192       6 CAP      H193       1      0.052110001027      1.007947000000
   194 pop_tetramer.pdb_193       6 CAP      H194       1      0.052110001027      1.007947000000
   195 pop_tetramer.pdb_194       6 CAP      H195       1      0.052110001027      1.007947000000
   196 pop_tetramer.pdb_195       6 CAP      H196       1      0.052110001027      1.007947000000
   197 pop_tetramer.pdb_196       6 CAP      H197       1      0.052110001027      1.007947000000

[ pairs ]
;ai    aj   funct
    18	    34	     1
   154	   173	     1
    82	    85	     1
   185	   194	     1
    58	    59	     1
     5	    14	     1
   154	   183	     1
   185	   193	     1
    82	    84	     1
   184	   190	     1
   185	   190	     1
   139	   157	     1
    94	   103	     1
   107	   126	     1
   110	   157	     1
   134	   136	     1
    66	    85	     1
    95	   120	     1
    82	    89	     1
     3	    43	     1
     2	     4	     1
    22	    69	     1
   108	   122	     1
    93	    96	     1
    66	    84	     1
    83	    90	     1
    96	   101	     1
    59	    80	     1
   103	   106	     1
    16	    19	     1
   139	   142	     1
   135	   138	     1
   142	   165	     1
   140	   169	     1
    96	    99	     1
   103	   124	     1
    39	    47	     1
    50	    70	     1
   124	   125	     1
     3	   177	     1
   112	   115	     1
   103	   123	     1
    98	   118	     1
    17	    36	     1
    94	   132	     1
    96	   107	     1
    93	   113	     1
    57	    72	     1
    49	    52	     1
    98	   117	     1
    38	    42	     1
   111	   133	     1
     3	     6	     1
    56	    57	     1
   147	   160	     1
   137	   140	     1
    17	    23	     1
   182	   197	     1
   182	   194	     1
   182	   196	     1
    18	    42	     1
   182	   193	     1
   106	   125	     1
    53	    58	     1
    50	    77	     1
   153	   168	     1
   186	   192	     1
    53	    60	     1
   109	   124	     1
   186	   189	     1
   131	   132	     1
    47	    71	     1
   138	   141	     1
   109	   123	     1
     1	   179	     1
    70	    71	     1
    92	   112	     1
   184	   189	     1
    52	    57	     1
    32	    33	     1
   133	   156	     1
   140	   166	     1
    61	    80	     1
    11	    28	     1
   148	   151	     1
    91	   131	     1
    39	    46	     1
   105	   111	     1
   170	   172	     1
    55	    76	     1
   105	   110	     1
    26	    27	     1
    91	    94	     1
   170	   171	     1
   110	   130	     1
    22	    42	     1
   110	   129	     1
   126	   133	     1
   110	   128	     1
    54	    75	     1
    65	    79	     1
    98	   119	     1
    12	    13	     1
   133	   137	     1
    54	    74	     1
    52	    78	     1
    95	   115	     1
     4	    24	     1
    17	    20	     1
   147	   150	     1
    21	    46	     1
    10	    31	     1
   146	   156	     1
    95	   113	     1
   170	   187	     1
    36	    37	     1
    23	    45	     1
    10	    33	     1
    68	    71	     1
   158	   159	     1
   139	   164	     1
     5	     8	     1
   141	   148	     1
    69	    70	     1
    23	    39	     1
    99	   116	     1
   143	   146	     1
   139	   159	     1
   106	   127	     1
   186	   191	     1
    97	   120	     1
   150	   171	     1
    93	   131	     1
   142	   147	     1
   120	   121	     1
   106	   122	     1
   149	   155	     1
     7	    43	     1
    62	    85	     1
    90	    92	     1
    62	    84	     1
   113	   114	     1
    34	    35	     1
   133	   176	     1
   100	   101	     1
   150	   187	     1
    96	   105	     1
   104	   109	     1
    46	    69	     1
    62	    89	     1
   126	   130	     1
   126	   129	     1
    92	   132	     1
     8	    17	     1
    63	    67	     1
    96	   125	     1
    38	    45	     1
    89	   114	     1
     5	    25	     1
     8	    11	     1
   105	   108	     1
   104	   125	     1
   135	   175	     1
    18	    45	     1
   140	   145	     1
   154	   172	     1
    18	    37	     1
   182	   195	     1
    52	    61	     1
    82	    83	     1
    94	   101	     1
   109	   135	     1
   107	   123	     1
    60	    81	     1
   105	   126	     1
   153	   186	     1
    63	    79	     1
     6	    13	     1
   153	   188	     1
    16	    37	     1
   186	   197	     1
   186	   194	     1
    58	    68	     1
     1	   180	     1
    59	    79	     1
    19	    35	     1
    51	    60	     1
    51	    64	     1
     1	     5	     1
   137	   175	     1
     7	    32	     1
    99	   120	     1
    19	    23	     1
   151	   155	     1
   143	   164	     1
     3	    27	     1
   142	   163	     1
    66	    92	     1
   133	   158	     1
     9	    32	     1
   110	   136	     1
   147	   167	     1
     6	    44	     1
   168	   169	     1
     7	    20	     1
    50	    53	     1
   142	   162	     1
   104	   107	     1
     6	    33	     1
    20	    34	     1
    92	    95	     1
    51	    72	     1
    21	    47	     1
    13	    28	     1
    61	    67	     1
   157	   158	     1
    49	    58	     1
   144	   145	     1
    45	    49	     1
    96	   122	     1
    96	   121	     1
   171	   186	     1
    53	    64	     1
    25	   178	     1
   139	   160	     1
   171	   188	     1
     2	   177	     1
   185	   192	     1
   185	   189	     1
   141	   146	     1
    51	    87	     1
    89	    93	     1
   140	   165	     1
   184	   187	     1
   185	   187	     1
   109	   134	     1
     1	   181	     1
    52	    63	     1
   138	   147	     1
   155	   171	     1
    55	    58	     1
    63	    66	     1
    54	    59	     1
    16	    21	     1
   151	   167	     1
    52	    68	     1
    48	    88	     1
    53	    76	     1
    93	   102	     1
   155	   187	     1
   148	   153	     1
    80	    81	     1
    15	    28	     1
    17	    38	     1
   111	   127	     1
   127	   135	     1
   139	   148	     1
    54	    73	     1
    52	    77	     1
    17	    22	     1
    97	   104	     1
    22	    48	     1
   107	   111	     1
    54	    77	     1
   101	   116	     1
   138	   176	     1
   182	   192	     1
    20	    21	     1
    45	    70	     1
   108	   109	     1
    24	    27	     1
    43	    44	     1
    98	   121	     1
    51	    69	     1
   136	   156	     1
   102	   112	     1
    45	    68	     1
   184	   191	     1
    10	    15	     1
    62	    78	     1
   185	   191	     1
   149	   154	     1
   140	   151	     1
   146	   147	     1
    62	    83	     1
   140	   156	     1
   150	   174	     1
    61	    66	     1
    11	    32	     1
   122	   123	     1
   103	   116	     1
   136	   139	     1
     8	    33	     1
   126	   128	     1
   156	   159	     1
   150	   169	     1
     8	    34	     1
   126	   127	     1
     7	    25	     1
     7	    27	     1
    96	   112	     1
     7	    28	     1
    45	    88	     1
   143	   160	     1
     8	    19	     1
   145	   160	     1
    49	    69	     1
    48	    51	     1
   148	   169	     1
    95	   104	     1
   151	   170	     1
    38	    39	     1
     1	    44	     1
    38	    40	     1
   153	   167	     1
    67	    83	     1
   134	   157	     1
   183	   188	     1
    18	    39	     1
     9	    14	     1
    67	    89	     1
   105	   124	     1
    47	    50	     1
    90	   113	     1
     9	    12	     1
    18	    40	     1
   137	   146	     1
   138	   158	     1
    91	   115	     1
   102	   103	     1
     1	    24	     1
     1	    26	     1
    64	    65	     1
   186	   196	     1
     6	     9	     1
    59	    72	     1
    94	    97	     1
   186	   193	     1
    89	   132	     1
    87	    88	     1
   186	   190	     1
   166	   167	     1
    82	    86	     1
    78	    79	     1
   184	   197	     1
    60	    65	     1
    95	   131	     1
   184	   196	     1
    63	    82	     1
    94	   114	     1
   150	   166	     1
   136	   176	     1
    66	    86	     1
   141	   152	     1
   151	   154	     1
    83	    91	     1
    51	    54	     1
    50	    57	     1
    51	    71	     1
     9	    20	     1
    94	   121	     1
    22	    40	     1
    50	    59	     1
     7	    16	     1
    22	    41	     1
    51	    76	     1
    61	    64	     1
     6	    26	     1
     9	    16	     1
    48	    68	     1
     2	    25	     1
     6	    15	     1
   135	   159	     1
    21	    35	     1
    21	    36	     1
   139	   175	     1
    46	    48	     1
     4	   178	     1
    66	   113	     1
   152	   153	     1
    53	    56	     1
    19	    38	     1
   106	   133	     1
    52	    55	     1
   114	   115	     1
    61	    82	     1
   149	   170	     1
    19	    22	     1
   138	   145	     1
    50	    88	     1
   149	   168	     1
    49	    87	     1
    55	    72	     1
   164	   165	     1
    89	   112	     1
    98	   103	     1
   170	   174	     1
    15	    35	     1
    97	   102	     1
   170	   173	     1
    47	    87	     1
    15	    36	     1
   107	   110	     1
     4	    44	     1
    11	    14	     1
    97	   100	     1
   142	   161	     1
    76	    77	     1
     7	    10	     1
    52	    81	     1
    25	    26	     1
    65	    80	     1
     8	    13	     1
   182	   187	     1
   147	   168	     1
    15	    18	     1
    95	   116	     1
    10	    29	     1
    97	   108	     1
    10	    30	     1
   141	   144	     1
    65	    91	     1
    65	    90	     1
   149	   152	     1
   186	   195	     1
     4	     7	     1
   106	   130	     1
   150	   173	     1
   106	   129	     1
    14	    24	     1
    62	    81	     1
   150	   172	     1
   106	   128	     1
   184	   195	     1
   141	   164	     1
   137	   157	     1
     8	    37	     1
    62	    86	     1
    14	    15	     1
   175	   176	     1
   140	   149	     1
     5	    43	     1
    59	    62	     1
    60	    63	     1
     8	    24	     1
   127	   134	     1
   138	   165	     1
    38	    41	     1
    95	    98	     1
    64	    78	     1
    18	    41	     1
   140	   143	     1
    95	   108	     1
    99	   102	     1
   152	   166	     1
   154	   174	     1
   139	   152	     1

[ bonds ]
;ai    aj   funct r k
     1      2      1      0.122500229618  637673.816836400889 
     1      3      1      0.146787322362  223784.907186336932 
     1    178      1      0.135606196339  243795.038367059984 
     3      4      1      0.140070606401  315369.603109081567 
     3     25      1      0.140070606401  315369.603109081567 
     4      5      1      0.140070606401  315369.603109081567 
     4     26      1      0.108603610657  323372.939138590940 
     5      6      1      0.140070606401  315369.603109081567 
     5     27      1      0.108603610657  323372.939138590940 
     6      7      1      0.146787322362  223784.907186336932 
     6     24      1      0.140070606401  315369.603109081567 
     7      8      1      0.140070606401  315369.603109081567 
     7     14      1      0.140070606401  315369.603109081567 
     8      9      1      0.140070606401  315369.603109081567 
     8     15      1      0.146787322362  223784.907186336932 
     9     10      1      0.140070606401  315369.603109081567 
     9     28      1      0.108603610657  323372.939138590940 
    10     11      1      0.137202606628  266731.066406706930 
    10     13      1      0.140070606401  315369.603109081567 
    11     12      1      0.143632390591  189984.684332368197 
    12     29      1      0.109420646075  299423.062557625177 
    12     30      1      0.109420646075  299423.062557625177 
    12     31      1      0.109420646075  299423.062557625177 
    13     14      1      0.140070606401  315369.603109081567 
    13     32      1      0.108603610657  323372.939138590940 
    14     33      1      0.108603610657  323372.939138590940 
    15     16      1      0.140070606401  315369.603109081567 
    15     20      1      0.140070606401  315369.603109081567 
    16     17      1      0.140070606401  315369.603109081567 
    16     34      1      0.108603610657  323372.939138590940 
    17     18      1      0.140070606401  315369.603109081567 
    17     35      1      0.108603610657  323372.939138590940 
    18     19      1      0.140070606401  315369.603109081567 
    18     21      1      0.150959128588  200304.454300773097 
    19     20      1      0.140070606401  315369.603109081567 
    19     36      1      0.108603610657  323372.939138590940 
    20     37      1      0.108603610657  323372.939138590940 
    21     22      1      0.146209979488  202028.005744964030 
    21     23      1      0.153362760384  180164.203623913403 
    21     38      1      0.109420646075  299423.062557625177 
    22     39      1      0.101860473038  402492.840307690029 
    22     45      1      0.138376574172  273614.770187574963 
    23     40      1      0.109420646075  299423.062557625177 
    23     41      1      0.109420646075  299423.062557625177 
    23     42      1      0.109420646075  299423.062557625177 
    24     25      1      0.140070606401  315369.603109081567 
    24     43      1      0.108603610657  323372.939138590940 
    25     44      1      0.108603610657  323372.939138590940 
    45     46      1      0.122500229618  637673.816836400889 
    45     47      1      0.146787322362  223784.907186336932 
    47     48      1      0.140070606401  315369.603109081567 
    47     69      1      0.140070606401  315369.603109081567 
    48     49      1      0.140070606401  315369.603109081567 
    48     70      1      0.108603610657  323372.939138590940 
    49     50      1      0.140070606401  315369.603109081567 
    49     71      1      0.108603610657  323372.939138590940 
    50     51      1      0.146787322362  223784.907186336932 
    50     68      1      0.140070606401  315369.603109081567 
    51     52      1      0.140070606401  315369.603109081567 
    51     58      1      0.140070606401  315369.603109081567 
    52     53      1      0.140070606401  315369.603109081567 
    52     59      1      0.146787322362  223784.907186336932 
    53     54      1      0.140070606401  315369.603109081567 
    53     72      1      0.108603610657  323372.939138590940 
    54     55      1      0.137202606628  266731.066406706930 
    54     57      1      0.140070606401  315369.603109081567 
    55     56      1      0.143632390591  189984.684332368197 
    56     73      1      0.109420646075  299423.062557625177 
    56     74      1      0.109420646075  299423.062557625177 
    56     75      1      0.109420646075  299423.062557625177 
    57     58      1      0.140070606401  315369.603109081567 
    57     76      1      0.108603610657  323372.939138590940 
    58     77      1      0.108603610657  323372.939138590940 
    59     60      1      0.140070606401  315369.603109081567 
    59     64      1      0.140070606401  315369.603109081567 
    60     61      1      0.140070606401  315369.603109081567 
    60     78      1      0.108603610657  323372.939138590940 
    61     62      1      0.140070606401  315369.603109081567 
    61     79      1      0.108603610657  323372.939138590940 
    62     63      1      0.140070606401  315369.603109081567 
    62     65      1      0.150959128588  200304.454300773097 
    63     64      1      0.140070606401  315369.603109081567 
    63     80      1      0.108603610657  323372.939138590940 
    64     81      1      0.108603610657  323372.939138590940 
    65     66      1      0.146209979488  202028.005744964030 
    65     67      1      0.153362760384  180164.203623913403 
    65     82      1      0.109420646075  299423.062557625177 
    66     83      1      0.101860473038  402492.840307690029 
    66     89      1      0.138376574172  273614.770187574963 
    67     84      1      0.109420646075  299423.062557625177 
    67     85      1      0.109420646075  299423.062557625177 
    67     86      1      0.109420646075  299423.062557625177 
    68     69      1      0.140070606401  315369.603109081567 
    68     87      1      0.108603610657  323372.939138590940 
    69     88      1      0.108603610657  323372.939138590940 
    89     90      1      0.122500229618  637673.816836400889 
    89     91      1      0.146787322362  223784.907186336932 
    91     92      1      0.140070606401  315369.603109081567 
    91    113      1      0.140070606401  315369.603109081567 
    92     93      1      0.140070606401  315369.603109081567 
    92    114      1      0.108603610657  323372.939138590940 
    93     94      1      0.140070606401  315369.603109081567 
    93    115      1      0.108603610657  323372.939138590940 
    94     95      1      0.146787322362  223784.907186336932 
    94    112      1      0.140070606401  315369.603109081567 
    95     96      1      0.140070606401  315369.603109081567 
    95    102      1      0.140070606401  315369.603109081567 
    96     97      1      0.140070606401  315369.603109081567 
    96    103      1      0.146787322362  223784.907186336932 
    97     98      1      0.140070606401  315369.603109081567 
    97    116      1      0.108603610657  323372.939138590940 
    98     99      1      0.137202606628  266731.066406706930 
    98    101      1      0.140070606401  315369.603109081567 
    99    100      1      0.143632390591  189984.684332368197 
   100    117      1      0.109420646075  299423.062557625177 
   100    118      1      0.109420646075  299423.062557625177 
   100    119      1      0.109420646075  299423.062557625177 
   101    102      1      0.140070606401  315369.603109081567 
   101    120      1      0.108603610657  323372.939138590940 
   102    121      1      0.108603610657  323372.939138590940 
   103    104      1      0.140070606401  315369.603109081567 
   103    108      1      0.140070606401  315369.603109081567 
   104    105      1      0.140070606401  315369.603109081567 
   104    122      1      0.108603610657  323372.939138590940 
   105    106      1      0.140070606401  315369.603109081567 
   105    123      1      0.108603610657  323372.939138590940 
   106    107      1      0.140070606401  315369.603109081567 
   106    109      1      0.150959128588  200304.454300773097 
   107    108      1      0.140070606401  315369.603109081567 
   107    124      1      0.108603610657  323372.939138590940 
   108    125      1      0.108603610657  323372.939138590940 
   109    110      1      0.146209979488  202028.005744964030 
   109    111      1      0.153362760384  180164.203623913403 
   109    126      1      0.109420646075  299423.062557625177 
   110    127      1      0.101860473038  402492.840307690029 
   110    133      1      0.138376574172  273614.770187574963 
   111    128      1      0.109420646075  299423.062557625177 
   111    129      1      0.109420646075  299423.062557625177 
   111    130      1      0.109420646075  299423.062557625177 
   112    113      1      0.140070606401  315369.603109081567 
   112    131      1      0.108603610657  323372.939138590940 
   113    132      1      0.108603610657  323372.939138590940 
   133    134      1      0.122500229618  637673.816836400889 
   133    135      1      0.146787322362  223784.907186336932 
   135    136      1      0.140070606401  315369.603109081567 
   135    157      1      0.140070606401  315369.603109081567 
   136    137      1      0.140070606401  315369.603109081567 
   136    158      1      0.108603610657  323372.939138590940 
   137    138      1      0.140070606401  315369.603109081567 
   137    159      1      0.108603610657  323372.939138590940 
   138    139      1      0.146787322362  223784.907186336932 
   138    156      1      0.140070606401  315369.603109081567 
   139    140      1      0.140070606401  315369.603109081567 
   139    146      1      0.140070606401  315369.603109081567 
   140    141      1      0.140070606401  315369.603109081567 
   140    147      1      0.146787322362  223784.907186336932 
   141    142      1      0.140070606401  315369.603109081567 
   141    160      1      0.108603610657  323372.939138590940 
   142    143      1      0.137202606628  266731.066406706930 
   142    145      1      0.140070606401  315369.603109081567 
   143    144      1      0.143632390591  189984.684332368197 
   144    161      1      0.109420646075  299423.062557625177 
   144    162      1      0.109420646075  299423.062557625177 
   144    163      1      0.109420646075  299423.062557625177 
   145    146      1      0.140070606401  315369.603109081567 
   145    164      1      0.108603610657  323372.939138590940 
   146    165      1      0.108603610657  323372.939138590940 
   147    148      1      0.140070606401  315369.603109081567 
   147    152      1      0.140070606401  315369.603109081567 
   148    149      1      0.140070606401  315369.603109081567 
   148    166      1      0.108603610657  323372.939138590940 
   149    150      1      0.140070606401  315369.603109081567 
   149    167      1      0.108603610657  323372.939138590940 
   150    151      1      0.140070606401  315369.603109081567 
   150    153      1      0.150959128588  200304.454300773097 
   151    152      1      0.140070606401  315369.603109081567 
   151    168      1      0.108603610657  323372.939138590940 
   152    169      1      0.108603610657  323372.939138590940 
   153    154      1      0.146209979488  202028.005744964030 
   153    155      1      0.153362760384  180164.203623913403 
   153    170      1      0.109420646075  299423.062557625177 
   154    171      1      0.101860473038  402492.840307690029 
   154    187      1      0.138376574172  273614.770187574963 
   155    172      1      0.109420646075  299423.062557625177 
   155    173      1      0.109420646075  299423.062557625177 
   155    174      1      0.109420646075  299423.062557625177 
   156    157      1      0.140070606401  315369.603109081567 
   156    175      1      0.108603610657  323372.939138590940 
   157    176      1      0.108603610657  323372.939138590940 
   177    178      1      0.143632390591  189984.684332368197 
   177    179      1      0.109420646075  299423.062557625177 
   177    180      1      0.109420646075  299423.062557625177 
   177    181      1      0.109420646075  299423.062557625177 
   182    183      1      0.153362760384  180164.203623913403 
   182    189      1      0.109420646075  299423.062557625177 
   182    190      1      0.109420646075  299423.062557625177 
   182    191      1      0.109420646075  299423.062557625177 
   183    184      1      0.153362760384  180164.203623913403 
   183    185      1      0.153362760384  180164.203623913403 
   183    186      1      0.143632390591  189984.684332368197 
   184    192      1      0.109420646075  299423.062557625177 
   184    193      1      0.109420646075  299423.062557625177 
   184    194      1      0.109420646075  299423.062557625177 
   185    195      1      0.109420646075  299423.062557625177 
   185    196      1      0.109420646075  299423.062557625177 
   185    197      1      0.109420646075  299423.062557625177 
   186    187      1      0.135606196339  243795.038367059984 
   187    188      1      0.122500229618  637673.816836400889 

[ angles ]
;ai    aj   ak   funct theta  k
     1      3      4      1     120.104999638600     707.494800457430 
     1      3     25      1     120.104999638600     707.494800457430 
     1    178    177      1     112.873616114500    1003.288803783688 
     2      1      3      1     120.104999638600     707.494800457430 
     2      1    178      1     123.605890003500     529.778359969850 
     3      1    178      1     120.104999638600     707.494800457430 
     3      4      5      1     120.104999638600     707.494800457430 
     3      4     26      1     119.854485991700     275.494453586476 
     3     25     24      1     120.104999638600     707.494800457430 
     3     25     44      1     119.854485991700     275.494453586476 
     4      3     25      1     120.104999638600     707.494800457430 
     4      5      6      1     120.104999638600     707.494800457430 
     4      5     27      1     119.854485991700     275.494453586476 
     5      4     26      1     119.854485991700     275.494453586476 
     5      6      7      1     120.104999638600     707.494800457430 
     5      6     24      1     120.104999638600     707.494800457430 
     6      5     27      1     119.854485991700     275.494453586476 
     6      7      8      1     120.104999638600     707.494800457430 
     6      7     14      1     120.104999638600     707.494800457430 
     6     24     25      1     120.104999638600     707.494800457430 
     6     24     43      1     119.854485991700     275.494453586476 
     7      6     24      1     120.104999638600     707.494800457430 
     7      8      9      1     120.104999638600     707.494800457430 
     7      8     15      1     120.104999638600     707.494800457430 
     7     14     13      1     120.104999638600     707.494800457430 
     7     14     33      1     119.854485991700     275.494453586476 
     8      7     14      1     120.104999638600     707.494800457430 
     8      9     10      1     120.104999638600     707.494800457430 
     8      9     28      1     119.854485991700     275.494453586476 
     8     15     16      1     120.104999638600     707.494800457430 
     8     15     20      1     120.104999638600     707.494800457430 
     9      8     15      1     120.104999638600     707.494800457430 
     9     10     11      1     120.104999638600     707.494800457430 
     9     10     13      1     120.104999638600     707.494800457430 
    10      9     28      1     119.854485991700     275.494453586476 
    10     11     12      1     112.873616114500    1003.288803783688 
    10     13     14      1     120.104999638600     707.494800457430 
    10     13     32      1     119.854485991700     275.494453586476 
    11     10     13      1     120.104999638600     707.494800457430 
    11     12     29      1     109.938052758400     558.616871667870 
    11     12     30      1     109.938052758400     558.616871667870 
    11     12     31      1     109.938052758400     558.616871667870 
    13     14     33      1     119.854485991700     275.494453586476 
    14     13     32      1     119.854485991700     275.494453586476 
    15     16     17      1     120.104999638600     707.494800457430 
    15     16     34      1     119.854485991700     275.494453586476 
    15     20     19      1     120.104999638600     707.494800457430 
    15     20     37      1     119.854485991700     275.494453586476 
    16     15     20      1     120.104999638600     707.494800457430 
    16     17     18      1     120.104999638600     707.494800457430 
    16     17     35      1     119.854485991700     275.494453586476 
    17     16     34      1     119.854485991700     275.494453586476 
    17     18     19      1     120.104999638600     707.494800457430 
    17     18     21      1     120.104999638600     707.494800457430 
    18     17     35      1     119.854485991700     275.494453586476 
    18     19     20      1     120.104999638600     707.494800457430 
    18     19     36      1     119.854485991700     275.494453586476 
    18     21     22      1     109.938052758400     558.616871667870 
    18     21     23      1     109.938052758400     558.616871667870 
    18     21     38      1     109.938052758400     558.616871667870 
    19     18     21      1     120.104999638600     707.494800457430 
    19     20     37      1     119.854485991700     275.494453586476 
    20     19     36      1     119.854485991700     275.494453586476 
    21     22     39      1     118.063661129300     310.493309961378 
    21     22     45      1     121.770534386700     665.074567904266 
    21     23     40      1     109.938052758400     558.616871667870 
    21     23     41      1     109.938052758400     558.616871667870 
    21     23     42      1     109.938052758400     558.616871667870 
    22     21     23      1     109.938052758400     558.616871667870 
    22     21     38      1     109.938052758400     558.616871667870 
    22     45     46      1     120.104999638600     707.494800457430 
    22     45     47      1     120.104999638600     707.494800457430 
    23     21     38      1     109.938052758400     558.616871667870 
    24     25     44      1     119.854485991700     275.494453586476 
    25     24     43      1     119.854485991700     275.494453586476 
    29     12     30      1     108.354313526900     307.746905535118 
    29     12     31      1     108.354313526900     307.746905535118 
    30     12     31      1     108.354313526900     307.746905535118 
    39     22     45      1     118.063661129300     310.493309961378 
    40     23     41      1     108.354313526900     307.746905535118 
    40     23     42      1     108.354313526900     307.746905535118 
    41     23     42      1     108.354313526900     307.746905535118 
    45     47     48      1     120.104999638600     707.494800457430 
    45     47     69      1     120.104999638600     707.494800457430 
    46     45     47      1     120.104999638600     707.494800457430 
    47     48     49      1     120.104999638600     707.494800457430 
    47     48     70      1     119.854485991700     275.494453586476 
    47     69     68      1     120.104999638600     707.494800457430 
    47     69     88      1     119.854485991700     275.494453586476 
    48     47     69      1     120.104999638600     707.494800457430 
    48     49     50      1     120.104999638600     707.494800457430 
    48     49     71      1     119.854485991700     275.494453586476 
    49     48     70      1     119.854485991700     275.494453586476 
    49     50     51      1     120.104999638600     707.494800457430 
    49     50     68      1     120.104999638600     707.494800457430 
    50     49     71      1     119.854485991700     275.494453586476 
    50     51     52      1     120.104999638600     707.494800457430 
    50     51     58      1     120.104999638600     707.494800457430 
    50     68     69      1     120.104999638600     707.494800457430 
    50     68     87      1     119.854485991700     275.494453586476 
    51     50     68      1     120.104999638600     707.494800457430 
    51     52     53      1     120.104999638600     707.494800457430 
    51     52     59      1     120.104999638600     707.494800457430 
    51     58     57      1     120.104999638600     707.494800457430 
    51     58     77      1     119.854485991700     275.494453586476 
    52     51     58      1     120.104999638600     707.494800457430 
    52     53     54      1     120.104999638600     707.494800457430 
    52     53     72      1     119.854485991700     275.494453586476 
    52     59     60      1     120.104999638600     707.494800457430 
    52     59     64      1     120.104999638600     707.494800457430 
    53     52     59      1     120.104999638600     707.494800457430 
    53     54     55      1     120.104999638600     707.494800457430 
    53     54     57      1     120.104999638600     707.494800457430 
    54     53     72      1     119.854485991700     275.494453586476 
    54     55     56      1     112.873616114500    1003.288803783688 
    54     57     58      1     120.104999638600     707.494800457430 
    54     57     76      1     119.854485991700     275.494453586476 
    55     54     57      1     120.104999638600     707.494800457430 
    55     56     73      1     109.938052758400     558.616871667870 
    55     56     74      1     109.938052758400     558.616871667870 
    55     56     75      1     109.938052758400     558.616871667870 
    57     58     77      1     119.854485991700     275.494453586476 
    58     57     76      1     119.854485991700     275.494453586476 
    59     60     61      1     120.104999638600     707.494800457430 
    59     60     78      1     119.854485991700     275.494453586476 
    59     64     63      1     120.104999638600     707.494800457430 
    59     64     81      1     119.854485991700     275.494453586476 
    60     59     64      1     120.104999638600     707.494800457430 
    60     61     62      1     120.104999638600     707.494800457430 
    60     61     79      1     119.854485991700     275.494453586476 
    61     60     78      1     119.854485991700     275.494453586476 
    61     62     63      1     120.104999638600     707.494800457430 
    61     62     65      1     120.104999638600     707.494800457430 
    62     61     79      1     119.854485991700     275.494453586476 
    62     63     64      1     120.104999638600     707.494800457430 
    62     63     80      1     119.854485991700     275.494453586476 
    62     65     66      1     109.938052758400     558.616871667870 
    62     65     67      1     109.938052758400     558.616871667870 
    62     65     82      1     109.938052758400     558.616871667870 
    63     62     65      1     120.104999638600     707.494800457430 
    63     64     81      1     119.854485991700     275.494453586476 
    64     63     80      1     119.854485991700     275.494453586476 
    65     66     83      1     118.063661129300     310.493309961378 
    65     66     89      1     121.770534386700     665.074567904266 
    65     67     84      1     109.938052758400     558.616871667870 
    65     67     85      1     109.938052758400     558.616871667870 
    65     67     86      1     109.938052758400     558.616871667870 
    66     65     67      1     109.938052758400     558.616871667870 
    66     65     82      1     109.938052758400     558.616871667870 
    66     89     90      1     120.104999638600     707.494800457430 
    66     89     91      1     120.104999638600     707.494800457430 
    67     65     82      1     109.938052758400     558.616871667870 
    68     69     88      1     119.854485991700     275.494453586476 
    69     68     87      1     119.854485991700     275.494453586476 
    73     56     74      1     108.354313526900     307.746905535118 
    73     56     75      1     108.354313526900     307.746905535118 
    74     56     75      1     108.354313526900     307.746905535118 
    83     66     89      1     118.063661129300     310.493309961378 
    84     67     85      1     108.354313526900     307.746905535118 
    84     67     86      1     108.354313526900     307.746905535118 
    85     67     86      1     108.354313526900     307.746905535118 
    89     91     92      1     120.104999638600     707.494800457430 
    89     91    113      1     120.104999638600     707.494800457430 
    90     89     91      1     120.104999638600     707.494800457430 
    91     92     93      1     120.104999638600     707.494800457430 
    91     92    114      1     119.854485991700     275.494453586476 
    91    113    112      1     120.104999638600     707.494800457430 
    91    113    132      1     119.854485991700     275.494453586476 
    92     91    113      1     120.104999638600     707.494800457430 
    92     93     94      1     120.104999638600     707.494800457430 
    92     93    115      1     119.854485991700     275.494453586476 
    93     92    114      1     119.854485991700     275.494453586476 
    93     94     95      1     120.104999638600     707.494800457430 
    93     94    112      1     120.104999638600     707.494800457430 
    94     93    115      1     119.854485991700     275.494453586476 
    94     95     96      1     120.104999638600     707.494800457430 
    94     95    102      1     120.104999638600     707.494800457430 
    94    112    113      1     120.104999638600     707.494800457430 
    94    112    131      1     119.854485991700     275.494453586476 
    95     94    112      1     120.104999638600     707.494800457430 
    95     96     97      1     120.104999638600     707.494800457430 
    95     96    103      1     120.104999638600     707.494800457430 
    95    102    101      1     120.104999638600     707.494800457430 
    95    102    121      1     119.854485991700     275.494453586476 
    96     95    102      1     120.104999638600     707.494800457430 
    96     97     98      1     120.104999638600     707.494800457430 
    96     97    116      1     119.854485991700     275.494453586476 
    96    103    104      1     120.104999638600     707.494800457430 
    96    103    108      1     120.104999638600     707.494800457430 
    97     96    103      1     120.104999638600     707.494800457430 
    97     98     99      1     120.104999638600     707.494800457430 
    97     98    101      1     120.104999638600     707.494800457430 
    98     97    116      1     119.854485991700     275.494453586476 
    98     99    100      1     112.873616114500    1003.288803783688 
    98    101    102      1     120.104999638600     707.494800457430 
    98    101    120      1     119.854485991700     275.494453586476 
    99     98    101      1     120.104999638600     707.494800457430 
    99    100    117      1     109.938052758400     558.616871667870 
    99    100    118      1     109.938052758400     558.616871667870 
    99    100    119      1     109.938052758400     558.616871667870 
   101    102    121      1     119.854485991700     275.494453586476 
   102    101    120      1     119.854485991700     275.494453586476 
   103    104    105      1     120.104999638600     707.494800457430 
   103    104    122      1     119.854485991700     275.494453586476 
   103    108    107      1     120.104999638600     707.494800457430 
   103    108    125      1     119.854485991700     275.494453586476 
   104    103    108      1     120.104999638600     707.494800457430 
   104    105    106      1     120.104999638600     707.494800457430 
   104    105    123      1     119.854485991700     275.494453586476 
   105    104    122      1     119.854485991700     275.494453586476 
   105    106    107      1     120.104999638600     707.494800457430 
   105    106    109      1     120.104999638600     707.494800457430 
   106    105    123      1     119.854485991700     275.494453586476 
   106    107    108      1     120.104999638600     707.494800457430 
   106    107    124      1     119.854485991700     275.494453586476 
   106    109    110      1     109.938052758400     558.616871667870 
   106    109    111      1     109.938052758400     558.616871667870 
   106    109    126      1     109.938052758400     558.616871667870 
   107    106    109      1     120.104999638600     707.494800457430 
   107    108    125      1     119.854485991700     275.494453586476 
   108    107    124      1     119.854485991700     275.494453586476 
   109    110    127      1     118.063661129300     310.493309961378 
   109    110    133      1     121.770534386700     665.074567904266 
   109    111    128      1     109.938052758400     558.616871667870 
   109    111    129      1     109.938052758400     558.616871667870 
   109    111    130      1     109.938052758400     558.616871667870 
   110    109    111      1     109.938052758400     558.616871667870 
   110    109    126      1     109.938052758400     558.616871667870 
   110    133    134      1     120.104999638600     707.494800457430 
   110    133    135      1     120.104999638600     707.494800457430 
   111    109    126      1     109.938052758400     558.616871667870 
   112    113    132      1     119.854485991700     275.494453586476 
   113    112    131      1     119.854485991700     275.494453586476 
   117    100    118      1     108.354313526900     307.746905535118 
   117    100    119      1     108.354313526900     307.746905535118 
   118    100    119      1     108.354313526900     307.746905535118 
   127    110    133      1     118.063661129300     310.493309961378 
   128    111    129      1     108.354313526900     307.746905535118 
   128    111    130      1     108.354313526900     307.746905535118 
   129    111    130      1     108.354313526900     307.746905535118 
   133    135    136      1     120.104999638600     707.494800457430 
   133    135    157      1     120.104999638600     707.494800457430 
   134    133    135      1     120.104999638600     707.494800457430 
   135    136    137      1     120.104999638600     707.494800457430 
   135    136    158      1     119.854485991700     275.494453586476 
   135    157    156      1     120.104999638600     707.494800457430 
   135    157    176      1     119.854485991700     275.494453586476 
   136    135    157      1     120.104999638600     707.494800457430 
   136    137    138      1     120.104999638600     707.494800457430 
   136    137    159      1     119.854485991700     275.494453586476 
   137    136    158      1     119.854485991700     275.494453586476 
   137    138    139      1     120.104999638600     707.494800457430 
   137    138    156      1     120.104999638600     707.494800457430 
   138    137    159      1     119.854485991700     275.494453586476 
   138    139    140      1     120.104999638600     707.494800457430 
   138    139    146      1     120.104999638600     707.494800457430 
   138    156    157      1     120.104999638600     707.494800457430 
   138    156    175      1     119.854485991700     275.494453586476 
   139    138    156      1     120.104999638600     707.494800457430 
   139    140    141      1     120.104999638600     707.494800457430 
   139    140    147      1     120.104999638600     707.494800457430 
   139    146    145      1     120.104999638600     707.494800457430 
   139    146    165      1     119.854485991700     275.494453586476 
   140    139    146      1     120.104999638600     707.494800457430 
   140    141    142      1     120.104999638600     707.494800457430 
   140    141    160      1     119.854485991700     275.494453586476 
   140    147    148      1     120.104999638600     707.494800457430 
   140    147    152      1     120.104999638600     707.494800457430 
   141    140    147      1     120.104999638600     707.494800457430 
   141    142    143      1     120.104999638600     707.494800457430 
   141    142    145      1     120.104999638600     707.494800457430 
   142    141    160      1     119.854485991700     275.494453586476 
   142    143    144      1     112.873616114500    1003.288803783688 
   142    145    146      1     120.104999638600     707.494800457430 
   142    145    164      1     119.854485991700     275.494453586476 
   143    142    145      1     120.104999638600     707.494800457430 
   143    144    161      1     109.938052758400     558.616871667870 
   143    144    162      1     109.938052758400     558.616871667870 
   143    144    163      1     109.938052758400     558.616871667870 
   145    146    165      1     119.854485991700     275.494453586476 
   146    145    164      1     119.854485991700     275.494453586476 
   147    148    149      1     120.104999638600     707.494800457430 
   147    148    166      1     119.854485991700     275.494453586476 
   147    152    151      1     120.104999638600     707.494800457430 
   147    152    169      1     119.854485991700     275.494453586476 
   148    147    152      1     120.104999638600     707.494800457430 
   148    149    150      1     120.104999638600     707.494800457430 
   148    149    167      1     119.854485991700     275.494453586476 
   149    148    166      1     119.854485991700     275.494453586476 
   149    150    151      1     120.104999638600     707.494800457430 
   149    150    153      1     120.104999638600     707.494800457430 
   150    149    167      1     119.854485991700     275.494453586476 
   150    151    152      1     120.104999638600     707.494800457430 
   150    151    168      1     119.854485991700     275.494453586476 
   150    153    154      1     109.938052758400     558.616871667870 
   150    153    155      1     109.938052758400     558.616871667870 
   150    153    170      1     109.938052758400     558.616871667870 
   151    150    153      1     120.104999638600     707.494800457430 
   151    152    169      1     119.854485991700     275.494453586476 
   152    151    168      1     119.854485991700     275.494453586476 
   153    154    171      1     118.063661129300     310.493309961378 
   153    154    187      1     121.770534386700     665.074567904266 
   153    155    172      1     109.938052758400     558.616871667870 
   153    155    173      1     109.938052758400     558.616871667870 
   153    155    174      1     109.938052758400     558.616871667870 
   154    153    155      1     109.938052758400     558.616871667870 
   154    153    170      1     109.938052758400     558.616871667870 
   154    187    186      1     120.104999638600     707.494800457430 
   154    187    188      1     120.104999638600     707.494800457430 
   155    153    170      1     109.938052758400     558.616871667870 
   156    157    176      1     119.854485991700     275.494453586476 
   157    156    175      1     119.854485991700     275.494453586476 
   161    144    162      1     108.354313526900     307.746905535118 
   161    144    163      1     108.354313526900     307.746905535118 
   162    144    163      1     108.354313526900     307.746905535118 
   171    154    187      1     118.063661129300     310.493309961378 
   172    155    173      1     108.354313526900     307.746905535118 
   172    155    174      1     108.354313526900     307.746905535118 
   173    155    174      1     108.354313526900     307.746905535118 
   178    177    179      1     109.938052758400     558.616871667870 
   178    177    180      1     109.938052758400     558.616871667870 
   178    177    181      1     109.938052758400     558.616871667870 
   179    177    180      1     108.354313526900     307.746905535118 
   179    177    181      1     108.354313526900     307.746905535118 
   180    177    181      1     108.354313526900     307.746905535118 
   182    183    184      1     109.938052758400     558.616871667870 
   182    183    185      1     109.938052758400     558.616871667870 
   182    183    186      1     109.938052758400     558.616871667870 
   183    182    189      1     109.938052758400     558.616871667870 
   183    182    190      1     109.938052758400     558.616871667870 
   183    182    191      1     109.938052758400     558.616871667870 
   183    184    192      1     109.938052758400     558.616871667870 
   183    184    193      1     109.938052758400     558.616871667870 
   183    184    194      1     109.938052758400     558.616871667870 
   183    185    195      1     109.938052758400     558.616871667870 
   183    185    196      1     109.938052758400     558.616871667870 
   183    185    197      1     109.938052758400     558.616871667870 
   183    186    187      1     112.873616114500    1003.288803783688 
   184    183    185      1     109.938052758400     558.616871667870 
   184    183    186      1     109.938052758400     558.616871667870 
   185    183    186      1     109.938052758400     558.616871667870 
   186    187    188      1     123.605890003500     529.778359969850 
   189    182    190      1     108.354313526900     307.746905535118 
   189    182    191      1     108.354313526900     307.746905535118 
   190    182    191      1     108.354313526900     307.746905535118 
   192    184    193      1     108.354313526900     307.746905535118 
   192    184    194      1     108.354313526900     307.746905535118 
   193    184    194      1     108.354313526900     307.746905535118 
   195    185    196      1     108.354313526900     307.746905535118 
   195    185    197      1     108.354313526900     307.746905535118 
   196    185    197      1     108.354313526900     307.746905535118 

[ dihedrals ]
;ai    aj   ak   al   funct phi  k
     1     3     4     5     1    180.000000000000     13.675298757543                 2
     1     3     4    26     1    180.000000000000     13.675298757543                 2
     1     3    25    24     1    180.000000000000     13.675298757543                 2
     1     3    25    44     1    180.000000000000     13.675298757543                 2
     1   178   177   179     1      0.000000000000      1.100857953953                 3
     1   178   177   180     1      0.000000000000      1.100857953953                 3
     1   178   177   181     1      0.000000000000      1.100857953953                 3
     2     1     3     4     1      0.000000000000      0.110512073097                 1
     2     1     3     4     1    180.000000000000      1.824388292698                 2
     2     1     3     4     1      0.000000000000      0.164322208963                 3
     2     1     3     4     1    180.000000000000      0.247463834409                 4
     2     1     3    25     1      0.000000000000      0.110512073097                 1
     2     1     3    25     1    180.000000000000      1.824388292698                 2
     2     1     3    25     1      0.000000000000      0.164322208963                 3
     2     1     3    25     1    180.000000000000      0.247463834409                 4
     2     1   178   177     1      0.000000000000      4.018666755531                 1
     2     1   178   177     1    180.000000000000      3.194525076923                 2
     2     1   178   177     1      0.000000000000     -2.478382839928                 3
     2     1   178   177     1    180.000000000000      0.453855332674                 4
     3     1   178   177     1      0.000000000000      1.481390257322                 1
     3     1   178   177     1    180.000000000000     16.354662941384                 2
     3     1   178   177     1      0.000000000000      3.206585212892                 3
     3     1   178   177     1    180.000000000000      2.380527786112                 4
     3     4     5     6     1    180.000000000000     13.675298757543                 2
     3     4     5    27     1    180.000000000000     13.675298757543                 2
     3    25    24     6     1    180.000000000000     13.675298757543                 2
     3    25    24    43     1    180.000000000000     13.675298757543                 2
     4     3     1   178     1      0.000000000000     -0.098672179656                 1
     4     3     1   178     1    180.000000000000      2.065850856126                 2
     4     3     1   178     1      0.000000000000     -0.181926003451                 3
     4     3     1   178     1    180.000000000000     -0.084285478386                 4
     4     3    25    24     1    180.000000000000     13.675298757543                 2
     4     3    25    44     1    180.000000000000     13.675298757543                 2
     4     5     6     7     1    180.000000000000     13.675298757543                 2
     4     5     6    24     1    180.000000000000     13.675298757543                 2
     5     4     3    25     1    180.000000000000     13.675298757543                 2
     5     6     7     8     1      0.000000000000     -0.302891753668                 1
     5     6     7     8     1    180.000000000000      5.628020992108                 2
     5     6     7     8     1      0.000000000000     -0.346959678272                 3
     5     6     7     8     1    180.000000000000     -0.307061689821                 4
     5     6     7    14     1      0.000000000000      0.326044723412                 1
     5     6     7    14     1    180.000000000000      6.227100007641                 2
     5     6     7    14     1      0.000000000000      0.361439585302                 3
     5     6     7    14     1    180.000000000000      2.054257381769                 4
     5     6    24    25     1    180.000000000000     13.675298757543                 2
     5     6    24    43     1    180.000000000000     13.675298757543                 2
     6     5     4    26     1    180.000000000000     13.675298757543                 2
     6     7     8     9     1    180.000000000000     13.675298757543                 2
     6     7     8    15     1    180.000000000000     13.675298757543                 2
     6     7    14    13     1    180.000000000000     13.675298757543                 2
     6     7    14    33     1    180.000000000000     13.675298757543                 2
     6    24    25    44     1    180.000000000000     13.675298757543                 2
     7     6     5    27     1    180.000000000000     13.675298757543                 2
     7     6    24    25     1    180.000000000000     13.675298757543                 2
     7     6    24    43     1    180.000000000000     13.675298757543                 2
     7     8     9    10     1    180.000000000000     13.675298757543                 2
     7     8     9    28     1    180.000000000000     13.675298757543                 2
     7     8    15    16     1    180.000000000000      5.177721731788                 2
     7     8    15    20     1    180.000000000000      5.177721731788                 2
     7    14    13    10     1    180.000000000000     13.675298757543                 2
     7    14    13    32     1    180.000000000000     13.675298757543                 2
     8     7     6    24     1      0.000000000000     -0.302891753668                 1
     8     7     6    24     1    180.000000000000      5.628020992108                 2
     8     7     6    24     1      0.000000000000     -0.346959678272                 3
     8     7     6    24     1    180.000000000000     -0.307061689821                 4
     8     7    14    13     1    180.000000000000     13.675298757543                 2
     8     7    14    33     1    180.000000000000     13.675298757543                 2
     8     9    10    11     1    180.000000000000     13.675298757543                 2
     8     9    10    13     1    180.000000000000     13.675298757543                 2
     8    15    16    17     1    180.000000000000     13.675298757543                 2
     8    15    16    34     1    180.000000000000     13.675298757543                 2
     8    15    20    19     1    180.000000000000     13.675298757543                 2
     8    15    20    37     1    180.000000000000     13.675298757543                 2
     9     8     7    14     1    180.000000000000     13.675298757543                 2
     9     8    15    16     1    180.000000000000      5.177721731788                 2
     9     8    15    20     1    180.000000000000      5.177721731788                 2
     9    10    11    12     1      0.000000000000      0.236388758706                 1
     9    10    11    12     1    180.000000000000      9.740719977122                 2
     9    10    11    12     1      0.000000000000      1.170782024526                 3
     9    10    11    12     1    180.000000000000      0.673344425219                 4
     9    10    13    14     1    180.000000000000     13.675298757543                 2
     9    10    13    32     1    180.000000000000     13.675298757543                 2
    10     9     8    15     1    180.000000000000     13.675298757543                 2
    10    11    12    29     1      0.000000000000      1.100857953953                 3
    10    11    12    30     1      0.000000000000      1.100857953953                 3
    10    11    12    31     1      0.000000000000      1.100857953953                 3
    10    13    14    33     1    180.000000000000     13.675298757543                 2
    11    10     9    28     1    180.000000000000     13.675298757543                 2
    11    10    13    14     1    180.000000000000     13.675298757543                 2
    11    10    13    32     1    180.000000000000     13.675298757543                 2
    12    11    10    13     1      0.000000000000      0.236388758706                 1
    12    11    10    13     1    180.000000000000      9.740719977122                 2
    12    11    10    13     1      0.000000000000      1.170782024526                 3
    12    11    10    13     1    180.000000000000      0.673344425219                 4
    13    10     9    28     1    180.000000000000     13.675298757543                 2
    14     7     6    24     1      0.000000000000      0.326044723412                 1
    14     7     6    24     1    180.000000000000      6.227100007641                 2
    14     7     6    24     1      0.000000000000      0.361439585302                 3
    14     7     6    24     1    180.000000000000      2.054257381769                 4
    14     7     8    15     1    180.000000000000     13.675298757543                 2
    15     8     9    28     1    180.000000000000     13.675298757543                 2
    15    16    17    18     1    180.000000000000     13.675298757543                 2
    15    16    17    35     1    180.000000000000     13.675298757543                 2
    15    20    19    18     1    180.000000000000     13.675298757543                 2
    15    20    19    36     1    180.000000000000     13.675298757543                 2
    16    15    20    19     1    180.000000000000     13.675298757543                 2
    16    15    20    37     1    180.000000000000     13.675298757543                 2
    16    17    18    19     1    180.000000000000     13.675298757543                 2
    16    17    18    21     1    180.000000000000     13.675298757543                 2
    17    16    15    20     1    180.000000000000     13.675298757543                 2
    17    18    19    20     1    180.000000000000     13.675298757543                 2
    17    18    19    36     1    180.000000000000     13.675298757543                 2
    17    18    21    22     1      0.000000000000      0.218882756498                 1
    17    18    21    22     1    180.000000000000      1.294372160632                 2
    17    18    21    22     1      0.000000000000      0.118738596866                 3
    17    18    21    22     1    180.000000000000      0.030272457881                 4
    17    18    21    23     1      0.000000000000     -0.102527562433                 1
    17    18    21    23     1    180.000000000000     -0.244606414877                 2
    17    18    21    23     1      0.000000000000      0.134729081672                 3
    17    18    21    23     1    180.000000000000      0.006587929163                 4
    17    18    21    38     1      0.000000000000     -0.128412348914                 1
    17    18    21    38     1    180.000000000000     -0.971104004222                 2
    17    18    21    38     1      0.000000000000      0.136994983214                 3
    17    18    21    38     1    180.000000000000      0.167715586914                 4
    18    17    16    34     1    180.000000000000     13.675298757543                 2
    18    19    20    37     1    180.000000000000     13.675298757543                 2
    18    21    22    39     1      0.000000000000      3.782022737190                 1
    18    21    22    39     1    180.000000000000      2.737187975140                 2
    18    21    22    39     1      0.000000000000      1.161363725719                 3
    18    21    22    39     1    180.000000000000      0.696858774065                 4
    18    21    22    45     1      0.000000000000     -5.280553536586                 1
    18    21    22    45     1    180.000000000000      1.949225368481                 2
    18    21    22    45     1      0.000000000000     -0.689150922629                 3
    18    21    22    45     1    180.000000000000     -0.701201816853                 4
    18    21    23    40     1      0.000000000000      0.602098025234                 3
    18    21    23    41     1      0.000000000000      0.602098025234                 3
    18    21    23    42     1      0.000000000000      0.602098025234                 3
    19    18    17    35     1    180.000000000000     13.675298757543                 2
    19    18    21    22     1      0.000000000000      0.218882756498                 1
    19    18    21    22     1    180.000000000000      1.294372160632                 2
    19    18    21    22     1      0.000000000000      0.118738596866                 3
    19    18    21    22     1    180.000000000000      0.030272457881                 4
    19    18    21    23     1      0.000000000000     -0.102527562433                 1
    19    18    21    23     1    180.000000000000     -0.244606414877                 2
    19    18    21    23     1      0.000000000000      0.134729081672                 3
    19    18    21    23     1    180.000000000000      0.006587929163                 4
    19    18    21    38     1      0.000000000000     -0.128412348914                 1
    19    18    21    38     1    180.000000000000     -0.971104004222                 2
    19    18    21    38     1      0.000000000000      0.136994983214                 3
    19    18    21    38     1    180.000000000000      0.167715586914                 4
    20    15    16    34     1    180.000000000000     13.675298757543                 2
    20    19    18    21     1    180.000000000000     13.675298757543                 2
    21    18    17    35     1    180.000000000000     13.675298757543                 2
    21    18    19    36     1    180.000000000000     13.675298757543                 2
    21    22    45    46     1      0.000000000000     -2.052410010906                 1
    21    22    45    46     1    180.000000000000      9.281902140375                 2
    21    22    45    46     1      0.000000000000      0.851872717963                 3
    21    22    45    46     1    180.000000000000     -0.997439360149                 4
    21    22    45    47     1      0.000000000000      0.981574903705                 1
    21    22    45    47     1    180.000000000000      8.682710940438                 2
    21    22    45    47     1      0.000000000000      1.691354566863                 3
    21    22    45    47     1    180.000000000000      2.241161328560                 4
    22    21    23    40     1      0.000000000000      0.602098025234                 3
    22    21    23    41     1      0.000000000000      0.602098025234                 3
    22    21    23    42     1      0.000000000000      0.602098025234                 3
    22    45    47    48     1      0.000000000000     -0.043248333901                 1
    22    45    47    48     1    180.000000000000      4.264733556687                 2
    22    45    47    48     1      0.000000000000     -0.142372555808                 3
    22    45    47    48     1    180.000000000000      0.089831260167                 4
    22    45    47    69     1      0.000000000000     -0.043248333901                 1
    22    45    47    69     1    180.000000000000      4.264733556687                 2
    22    45    47    69     1      0.000000000000     -0.142372555808                 3
    22    45    47    69     1    180.000000000000      0.089831260167                 4
    23    21    22    39     1      0.000000000000     -1.872080455628                 1
    23    21    22    39     1    180.000000000000      0.821015154213                 2
    23    21    22    39     1      0.000000000000      0.723240212532                 3
    23    21    22    39     1    180.000000000000     -0.439448328805                 4
    23    21    22    45     1      0.000000000000     -0.154401029154                 1
    23    21    22    45     1    180.000000000000      0.368006728721                 2
    23    21    22    45     1      0.000000000000     -1.206102412670                 3
    23    21    22    45     1    180.000000000000      0.142360883424                 4
    24     6     5    27     1    180.000000000000     13.675298757543                 2
    25     3     1   178     1      0.000000000000     -0.098672179656                 1
    25     3     1   178     1    180.000000000000      2.065850856126                 2
    25     3     1   178     1      0.000000000000     -0.181926003451                 3
    25     3     1   178     1    180.000000000000     -0.084285478386                 4
    25     3     4    26     1    180.000000000000     13.675298757543                 2
    26     4     5    27     1    180.000000000000     13.675298757543                 2
    32    13    14    33     1    180.000000000000     13.675298757543                 2
    34    16    17    35     1    180.000000000000     13.675298757543                 2
    36    19    20    37     1    180.000000000000     13.675298757543                 2
    38    21    22    39     1      0.000000000000     -2.092598418764                 1
    38    21    22    39     1    180.000000000000      0.777336378921                 2
    38    21    22    39     1      0.000000000000      1.011740898907                 3
    38    21    22    39     1    180.000000000000     -0.063421667007                 4
    38    21    22    45     1      0.000000000000      2.589914501142                 1
    38    21    22    45     1    180.000000000000      0.387368683446                 2
    38    21    22    45     1      0.000000000000      0.524024523570                 3
    38    21    22    45     1    180.000000000000      0.299250261532                 4
    38    21    23    40     1      0.000000000000      0.953929629431                 3
    38    21    23    41     1      0.000000000000      0.953929629431                 3
    38    21    23    42     1      0.000000000000      0.953929629431                 3
    39    22    45    46     1      0.000000000000      4.112328034733                 1
    39    22    45    46     1    180.000000000000      5.076908194505                 2
    39    22    45    46     1      0.000000000000     -0.403208635430                 3
    39    22    45    46     1    180.000000000000     -0.908162759913                 4
    39    22    45    47     1      0.000000000000      2.315849171865                 1
    39    22    45    47     1    180.000000000000      9.206831869799                 2
    39    22    45    47     1      0.000000000000     -0.113852501628                 3
    39    22    45    47     1    180.000000000000      1.139598180434                 4
    43    24    25    44     1    180.000000000000     13.675298757543                 2
    45    47    48    49     1    180.000000000000     13.675298757543                 2
    45    47    48    70     1    180.000000000000     13.675298757543                 2
    45    47    69    68     1    180.000000000000     13.675298757543                 2
    45    47    69    88     1    180.000000000000     13.675298757543                 2
    46    45    47    48     1      0.000000000000      0.037338358383                 1
    46    45    47    48     1    180.000000000000     -0.267181526103                 2
    46    45    47    48     1      0.000000000000      0.160090460000                 3
    46    45    47    48     1    180.000000000000      0.359762408531                 4
    46    45    47    69     1      0.000000000000      0.037338358383                 1
    46    45    47    69     1    180.000000000000     -0.267181526103                 2
    46    45    47    69     1      0.000000000000      0.160090460000                 3
    46    45    47    69     1    180.000000000000      0.359762408531                 4
    47    48    49    50     1    180.000000000000     13.675298757543                 2
    47    48    49    71     1    180.000000000000     13.675298757543                 2
    47    69    68    50     1    180.000000000000     13.675298757543                 2
    47    69    68    87     1    180.000000000000     13.675298757543                 2
    48    47    69    68     1    180.000000000000     13.675298757543                 2
    48    47    69    88     1    180.000000000000     13.675298757543                 2
    48    49    50    51     1    180.000000000000     13.675298757543                 2
    48    49    50    68     1    180.000000000000     13.675298757543                 2
    49    48    47    69     1    180.000000000000     13.675298757543                 2
    49    50    51    52     1      0.000000000000     -0.302891753668                 1
    49    50    51    52     1    180.000000000000      5.628020992108                 2
    49    50    51    52     1      0.000000000000     -0.346959678272                 3
    49    50    51    52     1    180.000000000000     -0.307061689821                 4
    49    50    51    58     1      0.000000000000      0.326044723412                 1
    49    50    51    58     1    180.000000000000      6.227100007641                 2
    49    50    51    58     1      0.000000000000      0.361439585302                 3
    49    50    51    58     1    180.000000000000      2.054257381769                 4
    49    50    68    69     1    180.000000000000     13.675298757543                 2
    49    50    68    87     1    180.000000000000     13.675298757543                 2
    50    49    48    70     1    180.000000000000     13.675298757543                 2
    50    51    52    53     1    180.000000000000     13.675298757543                 2
    50    51    52    59     1    180.000000000000     13.675298757543                 2
    50    51    58    57     1    180.000000000000     13.675298757543                 2
    50    51    58    77     1    180.000000000000     13.675298757543                 2
    50    68    69    88     1    180.000000000000     13.675298757543                 2
    51    50    49    71     1    180.000000000000     13.675298757543                 2
    51    50    68    69     1    180.000000000000     13.675298757543                 2
    51    50    68    87     1    180.000000000000     13.675298757543                 2
    51    52    53    54     1    180.000000000000     13.675298757543                 2
    51    52    53    72     1    180.000000000000     13.675298757543                 2
    51    52    59    60     1    180.000000000000      5.177721731788                 2
    51    52    59    64     1    180.000000000000      5.177721731788                 2
    51    58    57    54     1    180.000000000000     13.675298757543                 2
    51    58    57    76     1    180.000000000000     13.675298757543                 2
    52    51    50    68     1      0.000000000000     -0.302891753668                 1
    52    51    50    68     1    180.000000000000      5.628020992108                 2
    52    51    50    68     1      0.000000000000     -0.346959678272                 3
    52    51    50    68     1    180.000000000000     -0.307061689821                 4
    52    51    58    57     1    180.000000000000     13.675298757543                 2
    52    51    58    77     1    180.000000000000     13.675298757543                 2
    52    53    54    55     1    180.000000000000     13.675298757543                 2
    52    53    54    57     1    180.000000000000     13.675298757543                 2
    52    59    60    61     1    180.000000000000     13.675298757543                 2
    52    59    60    78     1    180.000000000000     13.675298757543                 2
    52    59    64    63     1    180.000000000000     13.675298757543                 2
    52    59    64    81     1    180.000000000000     13.675298757543                 2
    53    52    51    58     1    180.000000000000     13.675298757543                 2
    53    52    59    60     1    180.000000000000      5.177721731788                 2
    53    52    59    64     1    180.000000000000      5.177721731788                 2
    53    54    55    56     1      0.000000000000      0.236388758706                 1
    53    54    55    56     1    180.000000000000      9.740719977122                 2
    53    54    55    56     1      0.000000000000      1.170782024526                 3
    53    54    55    56     1    180.000000000000      0.673344425219                 4
    53    54    57    58     1    180.000000000000     13.675298757543                 2
    53    54    57    76     1    180.000000000000     13.675298757543                 2
    54    53    52    59     1    180.000000000000     13.675298757543                 2
    54    55    56    73     1      0.000000000000      1.100857953953                 3
    54    55    56    74     1      0.000000000000      1.100857953953                 3
    54    55    56    75     1      0.000000000000      1.100857953953                 3
    54    57    58    77     1    180.000000000000     13.675298757543                 2
    55    54    53    72     1    180.000000000000     13.675298757543                 2
    55    54    57    58     1    180.000000000000     13.675298757543                 2
    55    54    57    76     1    180.000000000000     13.675298757543                 2
    56    55    54    57     1      0.000000000000      0.236388758706                 1
    56    55    54    57     1    180.000000000000      9.740719977122                 2
    56    55    54    57     1      0.000000000000      1.170782024526                 3
    56    55    54    57     1    180.000000000000      0.673344425219                 4
    57    54    53    72     1    180.000000000000     13.675298757543                 2
    58    51    50    68     1      0.000000000000      0.326044723412                 1
    58    51    50    68     1    180.000000000000      6.227100007641                 2
    58    51    50    68     1      0.000000000000      0.361439585302                 3
    58    51    50    68     1    180.000000000000      2.054257381769                 4
    58    51    52    59     1    180.000000000000     13.675298757543                 2
    59    52    53    72     1    180.000000000000     13.675298757543                 2
    59    60    61    62     1    180.000000000000     13.675298757543                 2
    59    60    61    79     1    180.000000000000     13.675298757543                 2
    59    64    63    62     1    180.000000000000     13.675298757543                 2
    59    64    63    80     1    180.000000000000     13.675298757543                 2
    60    59    64    63     1    180.000000000000     13.675298757543                 2
    60    59    64    81     1    180.000000000000     13.675298757543                 2
    60    61    62    63     1    180.000000000000     13.675298757543                 2
    60    61    62    65     1    180.000000000000     13.675298757543                 2
    61    60    59    64     1    180.000000000000     13.675298757543                 2
    61    62    63    64     1    180.000000000000     13.675298757543                 2
    61    62    63    80     1    180.000000000000     13.675298757543                 2
    61    62    65    66     1      0.000000000000      0.218882756498                 1
    61    62    65    66     1    180.000000000000      1.294372160632                 2
    61    62    65    66     1      0.000000000000      0.118738596866                 3
    61    62    65    66     1    180.000000000000      0.030272457881                 4
    61    62    65    67     1      0.000000000000     -0.102527562433                 1
    61    62    65    67     1    180.000000000000     -0.244606414877                 2
    61    62    65    67     1      0.000000000000      0.134729081672                 3
    61    62    65    67     1    180.000000000000      0.006587929163                 4
    61    62    65    82     1      0.000000000000     -0.128412348914                 1
    61    62    65    82     1    180.000000000000     -0.971104004222                 2
    61    62    65    82     1      0.000000000000      0.136994983214                 3
    61    62    65    82     1    180.000000000000      0.167715586914                 4
    62    61    60    78     1    180.000000000000     13.675298757543                 2
    62    63    64    81     1    180.000000000000     13.675298757543                 2
    62    65    66    83     1      0.000000000000      3.782022737190                 1
    62    65    66    83     1    180.000000000000      2.737187975140                 2
    62    65    66    83     1      0.000000000000      1.161363725719                 3
    62    65    66    83     1    180.000000000000      0.696858774065                 4
    62    65    66    89     1      0.000000000000     -5.280553536586                 1
    62    65    66    89     1    180.000000000000      1.949225368481                 2
    62    65    66    89     1      0.000000000000     -0.689150922629                 3
    62    65    66    89     1    180.000000000000     -0.701201816853                 4
    62    65    67    84     1      0.000000000000      0.602098025234                 3
    62    65    67    85     1      0.000000000000      0.602098025234                 3
    62    65    67    86     1      0.000000000000      0.602098025234                 3
    63    62    61    79     1    180.000000000000     13.675298757543                 2
    63    62    65    66     1      0.000000000000      0.218882756498                 1
    63    62    65    66     1    180.000000000000      1.294372160632                 2
    63    62    65    66     1      0.000000000000      0.118738596866                 3
    63    62    65    66     1    180.000000000000      0.030272457881                 4
    63    62    65    67     1      0.000000000000     -0.102527562433                 1
    63    62    65    67     1    180.000000000000     -0.244606414877                 2
    63    62    65    67     1      0.000000000000      0.134729081672                 3
    63    62    65    67     1    180.000000000000      0.006587929163                 4
    63    62    65    82     1      0.000000000000     -0.128412348914                 1
    63    62    65    82     1    180.000000000000     -0.971104004222                 2
    63    62    65    82     1      0.000000000000      0.136994983214                 3
    63    62    65    82     1    180.000000000000      0.167715586914                 4
    64    59    60    78     1    180.000000000000     13.675298757543                 2
    64    63    62    65     1    180.000000000000     13.675298757543                 2
    65    62    61    79     1    180.000000000000     13.675298757543                 2
    65    62    63    80     1    180.000000000000     13.675298757543                 2
    65    66    89    90     1      0.000000000000     -2.052410010906                 1
    65    66    89    90     1    180.000000000000      9.281902140375                 2
    65    66    89    90     1      0.000000000000      0.851872717963                 3
    65    66    89    90     1    180.000000000000     -0.997439360149                 4
    65    66    89    91     1      0.000000000000      0.981574903705                 1
    65    66    89    91     1    180.000000000000      8.682710940438                 2
    65    66    89    91     1      0.000000000000      1.691354566863                 3
    65    66    89    91     1    180.000000000000      2.241161328560                 4
    66    65    67    84     1      0.000000000000      0.602098025234                 3
    66    65    67    85     1      0.000000000000      0.602098025234                 3
    66    65    67    86     1      0.000000000000      0.602098025234                 3
    66    89    91    92     1      0.000000000000     -0.043248333901                 1
    66    89    91    92     1    180.000000000000      4.264733556687                 2
    66    89    91    92     1      0.000000000000     -0.142372555808                 3
    66    89    91    92     1    180.000000000000      0.089831260167                 4
    66    89    91   113     1      0.000000000000     -0.043248333901                 1
    66    89    91   113     1    180.000000000000      4.264733556687                 2
    66    89    91   113     1      0.000000000000     -0.142372555808                 3
    66    89    91   113     1    180.000000000000      0.089831260167                 4
    67    65    66    83     1      0.000000000000     -1.872080455628                 1
    67    65    66    83     1    180.000000000000      0.821015154213                 2
    67    65    66    83     1      0.000000000000      0.723240212532                 3
    67    65    66    83     1    180.000000000000     -0.439448328805                 4
    67    65    66    89     1      0.000000000000     -0.154401029154                 1
    67    65    66    89     1    180.000000000000      0.368006728721                 2
    67    65    66    89     1      0.000000000000     -1.206102412670                 3
    67    65    66    89     1    180.000000000000      0.142360883424                 4
    68    50    49    71     1    180.000000000000     13.675298757543                 2
    69    47    48    70     1    180.000000000000     13.675298757543                 2
    70    48    49    71     1    180.000000000000     13.675298757543                 2
    76    57    58    77     1    180.000000000000     13.675298757543                 2
    78    60    61    79     1    180.000000000000     13.675298757543                 2
    80    63    64    81     1    180.000000000000     13.675298757543                 2
    82    65    66    83     1      0.000000000000     -2.092598418764                 1
    82    65    66    83     1    180.000000000000      0.777336378921                 2
    82    65    66    83     1      0.000000000000      1.011740898907                 3
    82    65    66    83     1    180.000000000000     -0.063421667007                 4
    82    65    66    89     1      0.000000000000      2.589914501142                 1
    82    65    66    89     1    180.000000000000      0.387368683446                 2
    82    65    66    89     1      0.000000000000      0.524024523570                 3
    82    65    66    89     1    180.000000000000      0.299250261532                 4
    82    65    67    84     1      0.000000000000      0.953929629431                 3
    82    65    67    85     1      0.000000000000      0.953929629431                 3
    82    65    67    86     1      0.000000000000      0.953929629431                 3
    83    66    89    90     1      0.000000000000      4.112328034733                 1
    83    66    89    90     1    180.000000000000      5.076908194505                 2
    83    66    89    90     1      0.000000000000     -0.403208635430                 3
    83    66    89    90     1    180.000000000000     -0.908162759913                 4
    83    66    89    91     1      0.000000000000      2.315849171865                 1
    83    66    89    91     1    180.000000000000      9.206831869799                 2
    83    66    89    91     1      0.000000000000     -0.113852501628                 3
    83    66    89    91     1    180.000000000000      1.139598180434                 4
    87    68    69    88     1    180.000000000000     13.675298757543                 2
    89    91    92    93     1    180.000000000000     13.675298757543                 2
    89    91    92   114     1    180.000000000000     13.675298757543                 2
    89    91   113   112     1    180.000000000000     13.675298757543                 2
    89    91   113   132     1    180.000000000000     13.675298757543                 2
    90    89    91    92     1      0.000000000000      0.037338358383                 1
    90    89    91    92     1    180.000000000000     -0.267181526103                 2
    90    89    91    92     1      0.000000000000      0.160090460000                 3
    90    89    91    92     1    180.000000000000      0.359762408531                 4
    90    89    91   113     1      0.000000000000      0.037338358383                 1
    90    89    91   113     1    180.000000000000     -0.267181526103                 2
    90    89    91   113     1      0.000000000000      0.160090460000                 3
    90    89    91   113     1    180.000000000000      0.359762408531                 4
    91    92    93    94     1    180.000000000000     13.675298757543                 2
    91    92    93   115     1    180.000000000000     13.675298757543                 2
    91   113   112    94     1    180.000000000000     13.675298757543                 2
    91   113   112   131     1    180.000000000000     13.675298757543                 2
    92    91   113   112     1    180.000000000000     13.675298757543                 2
    92    91   113   132     1    180.000000000000     13.675298757543                 2
    92    93    94    95     1    180.000000000000     13.675298757543                 2
    92    93    94   112     1    180.000000000000     13.675298757543                 2
    93    92    91   113     1    180.000000000000     13.675298757543                 2
    93    94    95    96     1      0.000000000000     -0.302891753668                 1
    93    94    95    96     1    180.000000000000      5.628020992108                 2
    93    94    95    96     1      0.000000000000     -0.346959678272                 3
    93    94    95    96     1    180.000000000000     -0.307061689821                 4
    93    94    95   102     1      0.000000000000      0.326044723412                 1
    93    94    95   102     1    180.000000000000      6.227100007641                 2
    93    94    95   102     1      0.000000000000      0.361439585302                 3
    93    94    95   102     1    180.000000000000      2.054257381769                 4
    93    94   112   113     1    180.000000000000     13.675298757543                 2
    93    94   112   131     1    180.000000000000     13.675298757543                 2
    94    93    92   114     1    180.000000000000     13.675298757543                 2
    94    95    96    97     1    180.000000000000     13.675298757543                 2
    94    95    96   103     1    180.000000000000     13.675298757543                 2
    94    95   102   101     1    180.000000000000     13.675298757543                 2
    94    95   102   121     1    180.000000000000     13.675298757543                 2
    94   112   113   132     1    180.000000000000     13.675298757543                 2
    95    94    93   115     1    180.000000000000     13.675298757543                 2
    95    94   112   113     1    180.000000000000     13.675298757543                 2
    95    94   112   131     1    180.000000000000     13.675298757543                 2
    95    96    97    98     1    180.000000000000     13.675298757543                 2
    95    96    97   116     1    180.000000000000     13.675298757543                 2
    95    96   103   104     1    180.000000000000      5.177721731788                 2
    95    96   103   108     1    180.000000000000      5.177721731788                 2
    95   102   101    98     1    180.000000000000     13.675298757543                 2
    95   102   101   120     1    180.000000000000     13.675298757543                 2
    96    95    94   112     1      0.000000000000     -0.302891753668                 1
    96    95    94   112     1    180.000000000000      5.628020992108                 2
    96    95    94   112     1      0.000000000000     -0.346959678272                 3
    96    95    94   112     1    180.000000000000     -0.307061689821                 4
    96    95   102   101     1    180.000000000000     13.675298757543                 2
    96    95   102   121     1    180.000000000000     13.675298757543                 2
    96    97    98    99     1    180.000000000000     13.675298757543                 2
    96    97    98   101     1    180.000000000000     13.675298757543                 2
    96   103   104   105     1    180.000000000000     13.675298757543                 2
    96   103   104   122     1    180.000000000000     13.675298757543                 2
    96   103   108   107     1    180.000000000000     13.675298757543                 2
    96   103   108   125     1    180.000000000000     13.675298757543                 2
    97    96    95   102     1    180.000000000000     13.675298757543                 2
    97    96   103   104     1    180.000000000000      5.177721731788                 2
    97    96   103   108     1    180.000000000000      5.177721731788                 2
    97    98    99   100     1      0.000000000000      0.236388758706                 1
    97    98    99   100     1    180.000000000000      9.740719977122                 2
    97    98    99   100     1      0.000000000000      1.170782024526                 3
    97    98    99   100     1    180.000000000000      0.673344425219                 4
    97    98   101   102     1    180.000000000000     13.675298757543                 2
    97    98   101   120     1    180.000000000000     13.675298757543                 2
    98    97    96   103     1    180.000000000000     13.675298757543                 2
    98    99   100   117     1      0.000000000000      1.100857953953                 3
    98    99   100   118     1      0.000000000000      1.100857953953                 3
    98    99   100   119     1      0.000000000000      1.100857953953                 3
    98   101   102   121     1    180.000000000000     13.675298757543                 2
    99    98    97   116     1    180.000000000000     13.675298757543                 2
    99    98   101   102     1    180.000000000000     13.675298757543                 2
    99    98   101   120     1    180.000000000000     13.675298757543                 2
   100    99    98   101     1      0.000000000000      0.236388758706                 1
   100    99    98   101     1    180.000000000000      9.740719977122                 2
   100    99    98   101     1      0.000000000000      1.170782024526                 3
   100    99    98   101     1    180.000000000000      0.673344425219                 4
   101    98    97   116     1    180.000000000000     13.675298757543                 2
   102    95    94   112     1      0.000000000000      0.326044723412                 1
   102    95    94   112     1    180.000000000000      6.227100007641                 2
   102    95    94   112     1      0.000000000000      0.361439585302                 3
   102    95    94   112     1    180.000000000000      2.054257381769                 4
   102    95    96   103     1    180.000000000000     13.675298757543                 2
   103    96    97   116     1    180.000000000000     13.675298757543                 2
   103   104   105   106     1    180.000000000000     13.675298757543                 2
   103   104   105   123     1    180.000000000000     13.675298757543                 2
   103   108   107   106     1    180.000000000000     13.675298757543                 2
   103   108   107   124     1    180.000000000000     13.675298757543                 2
   104   103   108   107     1    180.000000000000     13.675298757543                 2
   104   103   108   125     1    180.000000000000     13.675298757543                 2
   104   105   106   107     1    180.000000000000     13.675298757543                 2
   104   105   106   109     1    180.000000000000     13.675298757543                 2
   105   104   103   108     1    180.000000000000     13.675298757543                 2
   105   106   107   108     1    180.000000000000     13.675298757543                 2
   105   106   107   124     1    180.000000000000     13.675298757543                 2
   105   106   109   110     1      0.000000000000      0.218882756498                 1
   105   106   109   110     1    180.000000000000      1.294372160632                 2
   105   106   109   110     1      0.000000000000      0.118738596866                 3
   105   106   109   110     1    180.000000000000      0.030272457881                 4
   105   106   109   111     1      0.000000000000     -0.102527562433                 1
   105   106   109   111     1    180.000000000000     -0.244606414877                 2
   105   106   109   111     1      0.000000000000      0.134729081672                 3
   105   106   109   111     1    180.000000000000      0.006587929163                 4
   105   106   109   126     1      0.000000000000     -0.128412348914                 1
   105   106   109   126     1    180.000000000000     -0.971104004222                 2
   105   106   109   126     1      0.000000000000      0.136994983214                 3
   105   106   109   126     1    180.000000000000      0.167715586914                 4
   106   105   104   122     1    180.000000000000     13.675298757543                 2
   106   107   108   125     1    180.000000000000     13.675298757543                 2
   106   109   110   127     1      0.000000000000      3.782022737190                 1
   106   109   110   127     1    180.000000000000      2.737187975140                 2
   106   109   110   127     1      0.000000000000      1.161363725719                 3
   106   109   110   127     1    180.000000000000      0.696858774065                 4
   106   109   110   133     1      0.000000000000     -5.280553536586                 1
   106   109   110   133     1    180.000000000000      1.949225368481                 2
   106   109   110   133     1      0.000000000000     -0.689150922629                 3
   106   109   110   133     1    180.000000000000     -0.701201816853                 4
   106   109   111   128     1      0.000000000000      0.602098025234                 3
   106   109   111   129     1      0.000000000000      0.602098025234                 3
   106   109   111   130     1      0.000000000000      0.602098025234                 3
   107   106   105   123     1    180.000000000000     13.675298757543                 2
   107   106   109   110     1      0.000000000000      0.218882756498                 1
   107   106   109   110     1    180.000000000000      1.294372160632                 2
   107   106   109   110     1      0.000000000000      0.118738596866                 3
   107   106   109   110     1    180.000000000000      0.030272457881                 4
   107   106   109   111     1      0.000000000000     -0.102527562433                 1
   107   106   109   111     1    180.000000000000     -0.244606414877                 2
   107   106   109   111     1      0.000000000000      0.134729081672                 3
   107   106   109   111     1    180.000000000000      0.006587929163                 4
   107   106   109   126     1      0.000000000000     -0.128412348914                 1
   107   106   109   126     1    180.000000000000     -0.971104004222                 2
   107   106   109   126     1      0.000000000000      0.136994983214                 3
   107   106   109   126     1    180.000000000000      0.167715586914                 4
   108   103   104   122     1    180.000000000000     13.675298757543                 2
   108   107   106   109     1    180.000000000000     13.675298757543                 2
   109   106   105   123     1    180.000000000000     13.675298757543                 2
   109   106   107   124     1    180.000000000000     13.675298757543                 2
   109   110   133   134     1      0.000000000000     -2.052410010906                 1
   109   110   133   134     1    180.000000000000      9.281902140375                 2
   109   110   133   134     1      0.000000000000      0.851872717963                 3
   109   110   133   134     1    180.000000000000     -0.997439360149                 4
   109   110   133   135     1      0.000000000000      0.981574903705                 1
   109   110   133   135     1    180.000000000000      8.682710940438                 2
   109   110   133   135     1      0.000000000000      1.691354566863                 3
   109   110   133   135     1    180.000000000000      2.241161328560                 4
   110   109   111   128     1      0.000000000000      0.602098025234                 3
   110   109   111   129     1      0.000000000000      0.602098025234                 3
   110   109   111   130     1      0.000000000000      0.602098025234                 3
   110   133   135   136     1      0.000000000000     -0.043248333901                 1
   110   133   135   136     1    180.000000000000      4.264733556687                 2
   110   133   135   136     1      0.000000000000     -0.142372555808                 3
   110   133   135   136     1    180.000000000000      0.089831260167                 4
   110   133   135   157     1      0.000000000000     -0.043248333901                 1
   110   133   135   157     1    180.000000000000      4.264733556687                 2
   110   133   135   157     1      0.000000000000     -0.142372555808                 3
   110   133   135   157     1    180.000000000000      0.089831260167                 4
   111   109   110   127     1      0.000000000000     -1.872080455628                 1
   111   109   110   127     1    180.000000000000      0.821015154213                 2
   111   109   110   127     1      0.000000000000      0.723240212532                 3
   111   109   110   127     1    180.000000000000     -0.439448328805                 4
   111   109   110   133     1      0.000000000000     -0.154401029154                 1
   111   109   110   133     1    180.000000000000      0.368006728721                 2
   111   109   110   133     1      0.000000000000     -1.206102412670                 3
   111   109   110   133     1    180.000000000000      0.142360883424                 4
   112    94    93   115     1    180.000000000000     13.675298757543                 2
   113    91    92   114     1    180.000000000000     13.675298757543                 2
   114    92    93   115     1    180.000000000000     13.675298757543                 2
   120   101   102   121     1    180.000000000000     13.675298757543                 2
   122   104   105   123     1    180.000000000000     13.675298757543                 2
   124   107   108   125     1    180.000000000000     13.675298757543                 2
   126   109   110   127     1      0.000000000000     -2.092598418764                 1
   126   109   110   127     1    180.000000000000      0.777336378921                 2
   126   109   110   127     1      0.000000000000      1.011740898907                 3
   126   109   110   127     1    180.000000000000     -0.063421667007                 4
   126   109   110   133     1      0.000000000000      2.589914501142                 1
   126   109   110   133     1    180.000000000000      0.387368683446                 2
   126   109   110   133     1      0.000000000000      0.524024523570                 3
   126   109   110   133     1    180.000000000000      0.299250261532                 4
   126   109   111   128     1      0.000000000000      0.953929629431                 3
   126   109   111   129     1      0.000000000000      0.953929629431                 3
   126   109   111   130     1      0.000000000000      0.953929629431                 3
   127   110   133   134     1      0.000000000000      4.112328034733                 1
   127   110   133   134     1    180.000000000000      5.076908194505                 2
   127   110   133   134     1      0.000000000000     -0.403208635430                 3
   127   110   133   134     1    180.000000000000     -0.908162759913                 4
   127   110   133   135     1      0.000000000000      2.315849171865                 1
   127   110   133   135     1    180.000000000000      9.206831869799                 2
   127   110   133   135     1      0.000000000000     -0.113852501628                 3
   127   110   133   135     1    180.000000000000      1.139598180434                 4
   131   112   113   132     1    180.000000000000     13.675298757543                 2
   133   135   136   137     1    180.000000000000     13.675298757543                 2
   133   135   136   158     1    180.000000000000     13.675298757543                 2
   133   135   157   156     1    180.000000000000     13.675298757543                 2
   133   135   157   176     1    180.000000000000     13.675298757543                 2
   134   133   135   136     1      0.000000000000      0.037338358383                 1
   134   133   135   136     1    180.000000000000     -0.267181526103                 2
   134   133   135   136     1      0.000000000000      0.160090460000                 3
   134   133   135   136     1    180.000000000000      0.359762408531                 4
   134   133   135   157     1      0.000000000000      0.037338358383                 1
   134   133   135   157     1    180.000000000000     -0.267181526103                 2
   134   133   135   157     1      0.000000000000      0.160090460000                 3
   134   133   135   157     1    180.000000000000      0.359762408531                 4
   135   136   137   138     1    180.000000000000     13.675298757543                 2
   135   136   137   159     1    180.000000000000     13.675298757543                 2
   135   157   156   138     1    180.000000000000     13.675298757543                 2
   135   157   156   175     1    180.000000000000     13.675298757543                 2
   136   135   157   156     1    180.000000000000     13.675298757543                 2
   136   135   157   176     1    180.000000000000     13.675298757543                 2
   136   137   138   139     1    180.000000000000     13.675298757543                 2
   136   137   138   156     1    180.000000000000     13.675298757543                 2
   137   136   135   157     1    180.000000000000     13.675298757543                 2
   137   138   139   140     1      0.000000000000     -0.302891753668                 1
   137   138   139   140     1    180.000000000000      5.628020992108                 2
   137   138   139   140     1      0.000000000000     -0.346959678272                 3
   137   138   139   140     1    180.000000000000     -0.307061689821                 4
   137   138   139   146     1      0.000000000000      0.326044723412                 1
   137   138   139   146     1    180.000000000000      6.227100007641                 2
   137   138   139   146     1      0.000000000000      0.361439585302                 3
   137   138   139   146     1    180.000000000000      2.054257381769                 4
   137   138   156   157     1    180.000000000000     13.675298757543                 2
   137   138   156   175     1    180.000000000000     13.675298757543                 2
   138   137   136   158     1    180.000000000000     13.675298757543                 2
   138   139   140   141     1    180.000000000000     13.675298757543                 2
   138   139   140   147     1    180.000000000000     13.675298757543                 2
   138   139   146   145     1    180.000000000000     13.675298757543                 2
   138   139   146   165     1    180.000000000000     13.675298757543                 2
   138   156   157   176     1    180.000000000000     13.675298757543                 2
   139   138   137   159     1    180.000000000000     13.675298757543                 2
   139   138   156   157     1    180.000000000000     13.675298757543                 2
   139   138   156   175     1    180.000000000000     13.675298757543                 2
   139   140   141   142     1    180.000000000000     13.675298757543                 2
   139   140   141   160     1    180.000000000000     13.675298757543                 2
   139   140   147   148     1    180.000000000000      5.177721731788                 2
   139   140   147   152     1    180.000000000000      5.177721731788                 2
   139   146   145   142     1    180.000000000000     13.675298757543                 2
   139   146   145   164     1    180.000000000000     13.675298757543                 2
   140   139   138   156     1      0.000000000000     -0.302891753668                 1
   140   139   138   156     1    180.000000000000      5.628020992108                 2
   140   139   138   156     1      0.000000000000     -0.346959678272                 3
   140   139   138   156     1    180.000000000000     -0.307061689821                 4
   140   139   146   145     1    180.000000000000     13.675298757543                 2
   140   139   146   165     1    180.000000000000     13.675298757543                 2
   140   141   142   143     1    180.000000000000     13.675298757543                 2
   140   141   142   145     1    180.000000000000     13.675298757543                 2
   140   147   148   149     1    180.000000000000     13.675298757543                 2
   140   147   148   166     1    180.000000000000     13.675298757543                 2
   140   147   152   151     1    180.000000000000     13.675298757543                 2
   140   147   152   169     1    180.000000000000     13.675298757543                 2
   141   140   139   146     1    180.000000000000     13.675298757543                 2
   141   140   147   148     1    180.000000000000      5.177721731788                 2
   141   140   147   152     1    180.000000000000      5.177721731788                 2
   141   142   143   144     1      0.000000000000      0.236388758706                 1
   141   142   143   144     1    180.000000000000      9.740719977122                 2
   141   142   143   144     1      0.000000000000      1.170782024526                 3
   141   142   143   144     1    180.000000000000      0.673344425219                 4
   141   142   145   146     1    180.000000000000     13.675298757543                 2
   141   142   145   164     1    180.000000000000     13.675298757543                 2
   142   141   140   147     1    180.000000000000     13.675298757543                 2
   142   143   144   161     1      0.000000000000      1.100857953953                 3
   142   143   144   162     1      0.000000000000      1.100857953953                 3
   142   143   144   163     1      0.000000000000      1.100857953953                 3
   142   145   146   165     1    180.000000000000     13.675298757543                 2
   143   142   141   160     1    180.000000000000     13.675298757543                 2
   143   142   145   146     1    180.000000000000     13.675298757543                 2
   143   142   145   164     1    180.000000000000     13.675298757543                 2
   144   143   142   145     1      0.000000000000      0.236388758706                 1
   144   143   142   145     1    180.000000000000      9.740719977122                 2
   144   143   142   145     1      0.000000000000      1.170782024526                 3
   144   143   142   145     1    180.000000000000      0.673344425219                 4
   145   142   141   160     1    180.000000000000     13.675298757543                 2
   146   139   138   156     1      0.000000000000      0.326044723412                 1
   146   139   138   156     1    180.000000000000      6.227100007641                 2
   146   139   138   156     1      0.000000000000      0.361439585302                 3
   146   139   138   156     1    180.000000000000      2.054257381769                 4
   146   139   140   147     1    180.000000000000     13.675298757543                 2
   147   140   141   160     1    180.000000000000     13.675298757543                 2
   147   148   149   150     1    180.000000000000     13.675298757543                 2
   147   148   149   167     1    180.000000000000     13.675298757543                 2
   147   152   151   150     1    180.000000000000     13.675298757543                 2
   147   152   151   168     1    180.000000000000     13.675298757543                 2
   148   147   152   151     1    180.000000000000     13.675298757543                 2
   148   147   152   169     1    180.000000000000     13.675298757543                 2
   148   149   150   151     1    180.000000000000     13.675298757543                 2
   148   149   150   153     1    180.000000000000     13.675298757543                 2
   149   148   147   152     1    180.000000000000     13.675298757543                 2
   149   150   151   152     1    180.000000000000     13.675298757543                 2
   149   150   151   168     1    180.000000000000     13.675298757543                 2
   149   150   153   154     1      0.000000000000      0.152626351744                 1
   149   150   153   154     1    180.000000000000      1.008090378033                 2
   149   150   153   154     1      0.000000000000      0.310383856156                 3
   149   150   153   154     1    180.000000000000      0.089997569378                 4
   149   150   153   155     1      0.000000000000     -0.070131190525                 1
   149   150   153   155     1    180.000000000000      0.037124176363                 2
   149   150   153   155     1      0.000000000000      0.315987411555                 3
   149   150   153   155     1    180.000000000000      0.101635280145                 4
   149   150   153   170     1      0.000000000000     -0.093400538717                 1
   149   150   153   170     1    180.000000000000     -0.726852578178                 2
   149   150   153   170     1      0.000000000000      0.322012036094                 3
   149   150   153   170     1    180.000000000000      0.228223771294                 4
   150   149   148   166     1    180.000000000000     13.675298757543                 2
   150   151   152   169     1    180.000000000000     13.675298757543                 2
   150   153   154   171     1      0.000000000000      2.621041139728                 1
   150   153   154   171     1    180.000000000000      1.749124048898                 2
   150   153   154   171     1      0.000000000000      0.787665288871                 3
   150   153   154   171     1    180.000000000000      0.247794916051                 4
   150   153   154   187     1      0.000000000000     -4.373726218641                 1
   150   153   154   187     1    180.000000000000      2.051796788238                 2
   150   153   154   187     1      0.000000000000     -0.889755988963                 3
   150   153   154   187     1    180.000000000000     -0.270687232397                 4
   150   153   155   172     1      0.000000000000      0.602098025234                 3
   150   153   155   173     1      0.000000000000      0.602098025234                 3
   150   153   155   174     1      0.000000000000      0.602098025234                 3
   151   150   149   167     1    180.000000000000     13.675298757543                 2
   151   150   153   154     1      0.000000000000      0.152626351744                 1
   151   150   153   154     1    180.000000000000      1.008090378033                 2
   151   150   153   154     1      0.000000000000      0.310383856156                 3
   151   150   153   154     1    180.000000000000      0.089997569378                 4
   151   150   153   155     1      0.000000000000     -0.070131190525                 1
   151   150   153   155     1    180.000000000000      0.037124176363                 2
   151   150   153   155     1      0.000000000000      0.315987411555                 3
   151   150   153   155     1    180.000000000000      0.101635280145                 4
   151   150   153   170     1      0.000000000000     -0.093400538717                 1
   151   150   153   170     1    180.000000000000     -0.726852578178                 2
   151   150   153   170     1      0.000000000000      0.322012036094                 3
   151   150   153   170     1    180.000000000000      0.228223771294                 4
   152   147   148   166     1    180.000000000000     13.675298757543                 2
   152   151   150   153     1    180.000000000000     13.675298757543                 2
   153   150   149   167     1    180.000000000000     13.675298757543                 2
   153   150   151   168     1    180.000000000000     13.675298757543                 2
   153   154   187   186     1      0.000000000000      1.072167950196                 1
   153   154   187   186     1    180.000000000000      8.708266271878                 2
   153   154   187   186     1      0.000000000000      0.144368696211                 3
   153   154   187   186     1    180.000000000000     -0.766967702314                 4
   153   154   187   188     1      0.000000000000      1.166287783272                 1
   153   154   187   188     1    180.000000000000      8.241871202093                 2
   153   154   187   188     1      0.000000000000      1.513948618192                 3
   153   154   187   188     1    180.000000000000     -1.249785066673                 4
   154   153   155   172     1      0.000000000000      0.602098025234                 3
   154   153   155   173     1      0.000000000000      0.602098025234                 3
   154   153   155   174     1      0.000000000000      0.602098025234                 3
   154   187   186   183     1      0.000000000000      1.755554963532                 1
   154   187   186   183     1    180.000000000000     18.435293803903                 2
   154   187   186   183     1      0.000000000000     -0.230964705872                 3
   154   187   186   183     1    180.000000000000      1.958461130615                 4
   155   153   154   171     1      0.000000000000     -1.959455601680                 1
   155   153   154   171     1    180.000000000000      1.565410326132                 2
   155   153   154   171     1      0.000000000000      1.133768501655                 3
   155   153   154   171     1    180.000000000000      0.028350584020                 4
   155   153   154   187     1      0.000000000000     -0.718400896145                 1
   155   153   154   187     1    180.000000000000     -0.124700539181                 2
   155   153   154   187     1      0.000000000000     -1.439030085973                 3
   155   153   154   187     1    180.000000000000     -0.553813213669                 4
   156   138   137   159     1    180.000000000000     13.675298757543                 2
   157   135   136   158     1    180.000000000000     13.675298757543                 2
   158   136   137   159     1    180.000000000000     13.675298757543                 2
   164   145   146   165     1    180.000000000000     13.675298757543                 2
   166   148   149   167     1    180.000000000000     13.675298757543                 2
   168   151   152   169     1    180.000000000000     13.675298757543                 2
   170   153   154   171     1      0.000000000000     -0.805556857798                 1
   170   153   154   171     1    180.000000000000      0.918924797392                 2
   170   153   154   171     1      0.000000000000      0.902483083378                 3
   170   153   154   171     1    180.000000000000     -0.816943383238                 4
   170   153   154   187     1      0.000000000000      2.270350048004                 1
   170   153   154   187     1    180.000000000000      0.716266181773                 2
   170   153   154   187     1      0.000000000000      0.258498074111                 3
   170   153   154   187     1    180.000000000000      0.446256031396                 4
   170   153   155   172     1      0.000000000000      0.953929629431                 3
   170   153   155   173     1      0.000000000000      0.953929629431                 3
   170   153   155   174     1      0.000000000000      0.953929629431                 3
   171   154   187   186     1      0.000000000000      1.927976534057                 1
   171   154   187   186     1    180.000000000000      8.456215431992                 2
   171   154   187   186     1      0.000000000000     -0.007288311347                 3
   171   154   187   186     1    180.000000000000     -1.529557236795                 4
   171   154   187   188     1      0.000000000000      4.809903181197                 1
   171   154   187   188     1    180.000000000000      1.753330381348                 2
   171   154   187   188     1      0.000000000000      1.086199381417                 3
   171   154   187   188     1    180.000000000000     -1.739148120555                 4
   175   156   157   176     1    180.000000000000     13.675298757543                 2
   182   183   184   192     1      0.000000000000      0.412282083439                 3
   182   183   184   193     1      0.000000000000      0.412282083439                 3
   182   183   184   194     1      0.000000000000      0.412282083439                 3
   182   183   185   195     1      0.000000000000      0.412282083439                 3
   182   183   185   196     1      0.000000000000      0.412282083439                 3
   182   183   185   197     1      0.000000000000      0.412282083439                 3
   182   183   186   187     1      0.000000000000      1.586026918228                 1
   182   183   186   187     1    180.000000000000      0.135702920755                 2
   182   183   186   187     1      0.000000000000     -1.756848532172                 3
   182   183   186   187     1    180.000000000000      1.312460567525                 4
   183   186   187   188     1      0.000000000000      3.909865877808                 1
   183   186   187   188     1    180.000000000000      4.738980143676                 2
   183   186   187   188     1      0.000000000000      0.566277454128                 3
   183   186   187   188     1    180.000000000000      0.778009872186                 4
   184   183   182   189     1      0.000000000000      0.412282083439                 3
   184   183   182   190     1      0.000000000000      0.412282083439                 3
   184   183   182   191     1      0.000000000000      0.412282083439                 3
   184   183   185   195     1      0.000000000000      0.412282083439                 3
   184   183   185   196     1      0.000000000000      0.412282083439                 3
   184   183   185   197     1      0.000000000000      0.412282083439                 3
   184   183   186   187     1      0.000000000000      1.586026918228                 1
   184   183   186   187     1    180.000000000000      0.135702920755                 2
   184   183   186   187     1      0.000000000000     -1.756848532172                 3
   184   183   186   187     1    180.000000000000      1.312460567525                 4
   185   183   182   189     1      0.000000000000      0.412282083439                 3
   185   183   182   190     1      0.000000000000      0.412282083439                 3
   185   183   182   191     1      0.000000000000      0.412282083439                 3
   185   183   184   192     1      0.000000000000      0.412282083439                 3
   185   183   184   193     1      0.000000000000      0.412282083439                 3
   185   183   184   194     1      0.000000000000      0.412282083439                 3
   185   183   186   187     1      0.000000000000      1.586026918228                 1
   185   183   186   187     1    180.000000000000      0.135702920755                 2
   185   183   186   187     1      0.000000000000     -1.756848532172                 3
   185   183   186   187     1    180.000000000000      1.312460567525                 4
   186   183   182   189     1      0.000000000000      0.548667589915                 3
   186   183   182   189     1      0.000000000000      1.826511275305                 1
   186   183   182   190     1      0.000000000000      0.548667589915                 3
   186   183   182   190     1      0.000000000000      1.826511275305                 1
   186   183   182   191     1      0.000000000000      0.548667589915                 3
   186   183   182   191     1      0.000000000000      1.826511275305                 1
   186   183   184   192     1      0.000000000000      0.548667589915                 3
   186   183   184   192     1      0.000000000000      1.826511275305                 1
   186   183   184   193     1      0.000000000000      0.548667589915                 3
   186   183   184   193     1      0.000000000000      1.826511275305                 1
   186   183   184   194     1      0.000000000000      0.548667589915                 3
   186   183   184   194     1      0.000000000000      1.826511275305                 1
   186   183   185   195     1      0.000000000000      0.548667589915                 3
   186   183   185   195     1      0.000000000000      1.826511275305                 1
   186   183   185   196     1      0.000000000000      0.548667589915                 3
   186   183   185   196     1      0.000000000000      1.826511275305                 1
   186   183   185   197     1      0.000000000000      0.548667589915                 3
   186   183   185   197     1      0.000000000000      1.826511275305                 1
   103   108    96   104     4    180.000000000000      7.295209241758                 2
   147   152   140   148     4    180.000000000000      7.295209241758                 2
   154   187   153   171     4    180.000000000000      1.752067434103                 2
   105   104   106   123     4    180.000000000000      7.295209241758                 2
    18    17    19    21     4    180.000000000000      7.295209241758                 2
    20    19    37    15     4    180.000000000000      7.295209241758                 2
   107   124   106   108     4    180.000000000000      7.295209241758                 2
     8    15     7     9     4    180.000000000000      7.295209241758                 2
    63    64    80    62     4    180.000000000000      7.295209241758                 2
   142   145   141   143     4    180.000000000000      7.295209241758                 2
   101    98   102   120     4    180.000000000000      7.295209241758                 2
   140   141   147   139     4    180.000000000000      7.295209241758                 2
    45    46    47    22     4    180.000000000000      7.295209241758                 2
    18    19    21    17     4    180.000000000000      7.295209241758                 2
   104   122   103   105     4    180.000000000000      7.295209241758                 2
   154   153   171   187     4    180.000000000000      1.752067434103                 2
    53    72    52    54     4    180.000000000000      7.295209241758                 2
   104   103   105   122     4    180.000000000000      7.295209241758                 2
    94   112    93    95     4    180.000000000000      7.295209241758                 2
   157   135   156   176     4    180.000000000000      7.295209241758                 2
   135   136   157   133     4    180.000000000000      7.295209241758                 2
    19    18    20    36     4    180.000000000000      7.295209241758                 2
    53    52    54    72     4    180.000000000000      7.295209241758                 2
     3     4    25     1     4    180.000000000000      7.295209241758                 2
    17    35    16    18     4    180.000000000000      7.295209241758                 2
   110   133   109   127     4    180.000000000000      1.752067434103                 2
   133   135   110   134     4    180.000000000000      7.295209241758                 2
    69    47    68    88     4    180.000000000000      7.295209241758                 2
   141   142   160   140     4    180.000000000000      7.295209241758                 2
    61    62    79    60     4    180.000000000000      7.295209241758                 2
    50    49    51    68     4    180.000000000000      7.295209241758                 2
    20    37    15    19     4    180.000000000000      7.295209241758                 2
   112   113   131    94     4    180.000000000000      7.295209241758                 2
    54    55    57    53     4    180.000000000000      7.295209241758                 2
    64    81    59    63     4    180.000000000000      7.295209241758                 2
    66    65    83    89     4    180.000000000000      1.752067434103                 2
    61    60    62    79     4    180.000000000000      7.295209241758                 2
    96    97   103    95     4    180.000000000000      7.295209241758                 2
    68    50    69    87     4    180.000000000000      7.295209241758                 2
    60    59    61    78     4    180.000000000000      7.295209241758                 2
    15    20     8    16     4    180.000000000000      7.295209241758                 2
    49    71    48    50     4    180.000000000000      7.295209241758                 2
    59    64    52    60     4    180.000000000000      7.295209241758                 2
    20    15    19    37     4    180.000000000000      7.295209241758                 2
    98    99   101    97     4    180.000000000000      7.295209241758                 2
   149   167   148   150     4    180.000000000000      7.295209241758                 2
   105   106   123   104     4    180.000000000000      7.295209241758                 2
    89    91    66    90     4    180.000000000000      7.295209241758                 2
    95    96   102    94     4    180.000000000000      7.295209241758                 2
    13    32    10    14     4    180.000000000000      7.295209241758                 2
    49    50    71    48     4    180.000000000000      7.295209241758                 2
     9    28     8    10     4    180.000000000000      7.295209241758                 2
   112    94   113   131     4    180.000000000000      7.295209241758                 2
     3    25     1     4     4    180.000000000000      7.295209241758                 2
   107   108   124   106     4    180.000000000000      7.295209241758                 2
   102    95   101   121     4    180.000000000000      7.295209241758                 2
   102   101   121    95     4    180.000000000000      7.295209241758                 2
    96    95    97   103     4    180.000000000000      7.295209241758                 2
     9     8    10    28     4    180.000000000000      7.295209241758                 2
    63    62    64    80     4    180.000000000000      7.295209241758                 2
     5     6    27     4     4    180.000000000000      7.295209241758                 2
   110   109   127   133     4    180.000000000000      1.752067434103                 2
    19    20    36    18     4    180.000000000000      7.295209241758                 2
    51    50    52    58     4    180.000000000000      7.295209241758                 2
    17    18    35    16     4    180.000000000000      7.295209241758                 2
    57    54    58    76     4    180.000000000000      7.295209241758                 2
    59    60    64    52     4    180.000000000000      7.295209241758                 2
   107   106   108   124     4    180.000000000000      7.295209241758                 2
    15     8    16    20     4    180.000000000000      7.295209241758                 2
     4    26     3     5     4    180.000000000000      7.295209241758                 2
     7    14     6     8     4    180.000000000000      7.295209241758                 2
    48    70    47    49     4    180.000000000000      7.295209241758                 2
    10     9    11    13     4    180.000000000000      7.295209241758                 2
    14    13    33     7     4    180.000000000000      7.295209241758                 2
   148   147   149   166     4    180.000000000000      7.295209241758                 2
    52    59    51    53     4    180.000000000000      7.295209241758                 2
    58    51    57    77     4    180.000000000000      7.295209241758                 2
    49    48    50    71     4    180.000000000000      7.295209241758                 2
    91   113    89    92     4    180.000000000000      7.295209241758                 2
     9    10    28     8     4    180.000000000000      7.295209241758                 2
    58    57    77    51     4    180.000000000000      7.295209241758                 2
   136   135   137   158     4    180.000000000000      7.295209241758                 2
   136   137   158   135     4    180.000000000000      7.295209241758                 2
    45    47    22    46     4    180.000000000000      7.295209241758                 2
   150   151   153   149     4    180.000000000000      7.295209241758                 2
   136   158   135   137     4    180.000000000000      7.295209241758                 2
   102   121    95   101     4    180.000000000000      7.295209241758                 2
    68    69    87    50     4    180.000000000000      7.295209241758                 2
     6    24     5     7     4    180.000000000000      7.295209241758                 2
    25    24    44     3     4    180.000000000000      7.295209241758                 2
    62    65    61    63     4    180.000000000000      7.295209241758                 2
   141   140   142   160     4    180.000000000000      7.295209241758                 2
   145   164   142   146     4    180.000000000000      7.295209241758                 2
    25    44     3    24     4    180.000000000000      7.295209241758                 2
    59    52    60    64     4    180.000000000000      7.295209241758                 2
    97   116    96    98     4    180.000000000000      7.295209241758                 2
    91    92   113    89     4    180.000000000000      7.295209241758                 2
    48    47    49    70     4    180.000000000000      7.295209241758                 2
    22    45    21    39     4    180.000000000000      1.752067434103                 2
    13    14    32    10     4    180.000000000000      7.295209241758                 2
   141   160   140   142     4    180.000000000000      7.295209241758                 2
    15    16    20     8     4    180.000000000000      7.295209241758                 2
    89    90    91    66     4    180.000000000000      7.295209241758                 2
    13    10    14    32     4    180.000000000000      7.295209241758                 2
     4     5    26     3     4    180.000000000000      7.295209241758                 2
   146   145   165   139     4    180.000000000000      7.295209241758                 2
    97    98   116    96     4    180.000000000000      7.295209241758                 2
   157   156   176   135     4    180.000000000000      7.295209241758                 2
     7     6     8    14     4    180.000000000000      7.295209241758                 2
    50    51    68    49     4    180.000000000000      7.295209241758                 2
    14     7    13    33     4    180.000000000000      7.295209241758                 2
    10    13     9    11     4    180.000000000000      7.295209241758                 2
    62    61    63    65     4    180.000000000000      7.295209241758                 2
   138   156   137   139     4    180.000000000000      7.295209241758                 2
    22    39    45    21     4    180.000000000000      1.752067434103                 2
    54    53    55    57     4    180.000000000000      7.295209241758                 2
    16    15    17    34     4    180.000000000000      7.295209241758                 2
   138   137   139   156     4    180.000000000000      7.295209241758                 2
     8     9    15     7     4    180.000000000000      7.295209241758                 2
   145   146   164   142     4    180.000000000000      7.295209241758                 2
    48    49    70    47     4    180.000000000000      7.295209241758                 2
   110   127   133   109     4    180.000000000000      1.752067434103                 2
    92   114    91    93     4    180.000000000000      7.295209241758                 2
   113   132    91   112     4    180.000000000000      7.295209241758                 2
   137   159   136   138     4    180.000000000000      7.295209241758                 2
    22    21    39    45     4    180.000000000000      1.752067434103                 2
   112   131    94   113     4    180.000000000000      7.295209241758                 2
   151   150   152   168     4    180.000000000000      7.295209241758                 2
     6     7    24     5     4    180.000000000000      7.295209241758                 2
    98    97    99   101     4    180.000000000000      7.295209241758                 2
   150   153   149   151     4    180.000000000000      7.295209241758                 2
    53    54    72    52     4    180.000000000000      7.295209241758                 2
   105   123   104   106     4    180.000000000000      7.295209241758                 2
     1     3   178     2     4    180.000000000000     18.013091641645                 2
   148   166   147   149     4    180.000000000000      7.295209241758                 2
    50    68    49    51     4    180.000000000000      7.295209241758                 2
   106   109   105   107     4    180.000000000000      7.295209241758                 2
    61    79    60    62     4    180.000000000000      7.295209241758                 2
    45    22    46    47     4    180.000000000000      7.295209241758                 2
     5    27     4     6     4    180.000000000000      7.295209241758                 2
    66    89    65    83     4    180.000000000000      1.752067434103                 2
    68    87    50    69     4    180.000000000000      7.295209241758                 2
    16    17    34    15     4    180.000000000000      7.295209241758                 2
    97    96    98   116     4    180.000000000000      7.295209241758                 2
   152   151   169   147     4    180.000000000000      7.295209241758                 2
   156   157   175   138     4    180.000000000000      7.295209241758                 2
     1     2     3   178     4    180.000000000000     18.013091641645                 2
    24    43     6    25     4    180.000000000000      7.295209241758                 2
   157   176   135   156     4    180.000000000000      7.295209241758                 2
   103   104   108    96     4    180.000000000000      7.295209241758                 2
   139   138   140   146     4    180.000000000000      7.295209241758                 2
   146   165   139   145     4    180.000000000000      7.295209241758                 2
    58    77    51    57     4    180.000000000000      7.295209241758                 2
    10    11    13     9     4    180.000000000000      7.295209241758                 2
    93    92    94   115     4    180.000000000000      7.295209241758                 2
    62    63    65    61     4    180.000000000000      7.295209241758                 2
   137   136   138   159     4    180.000000000000      7.295209241758                 2
    24     6    25    43     4    180.000000000000      7.295209241758                 2
   101   120    98   102     4    180.000000000000      7.295209241758                 2
   103    96   104   108     4    180.000000000000      7.295209241758                 2
    94    95   112    93     4    180.000000000000      7.295209241758                 2
   150   149   151   153     4    180.000000000000      7.295209241758                 2
    16    34    15    17     4    180.000000000000      7.295209241758                 2
    98   101    97    99     4    180.000000000000      7.295209241758                 2
   101   102   120    98     4    180.000000000000      7.295209241758                 2
    57    58    76    54     4    180.000000000000      7.295209241758                 2
    63    80    62    64     4    180.000000000000      7.295209241758                 2
   152   147   151   169     4    180.000000000000      7.295209241758                 2
   187   186   188   154     4    180.000000000000     18.013091641645                 2
    60    61    78    59     4    180.000000000000      7.295209241758                 2
    92    91    93   114     4    180.000000000000      7.295209241758                 2
    92    93   114    91     4    180.000000000000      7.295209241758                 2
    96   103    95    97     4    180.000000000000      7.295209241758                 2
   108   107   125   103     4    180.000000000000      7.295209241758                 2
    57    76    54    58     4    180.000000000000      7.295209241758                 2
   139   146   138   140     4    180.000000000000      7.295209241758                 2
     7     8    14     6     4    180.000000000000      7.295209241758                 2
    52    53    59    51     4    180.000000000000      7.295209241758                 2
   148   149   166   147     4    180.000000000000      7.295209241758                 2
   149   150   167   148     4    180.000000000000      7.295209241758                 2
   135   133   136   157     4    180.000000000000      7.295209241758                 2
    93   115    92    94     4    180.000000000000      7.295209241758                 2
   187   154   186   188     4    180.000000000000     18.013091641645                 2
    69    88    47    68     4    180.000000000000      7.295209241758                 2
   137   138   159   136     4    180.000000000000      7.295209241758                 2
    17    16    18    35     4    180.000000000000      7.295209241758                 2
   147   140   148   152     4    180.000000000000      7.295209241758                 2
   140   139   141   147     4    180.000000000000      7.295209241758                 2
   152   169   147   151     4    180.000000000000      7.295209241758                 2
    64    59    63    81     4    180.000000000000      7.295209241758                 2
    18    21    17    19     4    180.000000000000      7.295209241758                 2
   142   143   145   141     4    180.000000000000      7.295209241758                 2
    91    89    92   113     4    180.000000000000      7.295209241758                 2
    19    36    18    20     4    180.000000000000      7.295209241758                 2
    25     3    24    44     4    180.000000000000      7.295209241758                 2
     6     5     7    24     4    180.000000000000      7.295209241758                 2
    89    66    90    91     4    180.000000000000      7.295209241758                 2
     3     1     4    25     4    180.000000000000      7.295209241758                 2
    14    33     7    13     4    180.000000000000      7.295209241758                 2
    60    78    59    61     4    180.000000000000      7.295209241758                 2
     5     4     6    27     4    180.000000000000      7.295209241758                 2
   104   105   122   103     4    180.000000000000      7.295209241758                 2
    64    63    81    59     4    180.000000000000      7.295209241758                 2
   113   112   132    91     4    180.000000000000      7.295209241758                 2
   156   138   157   175     4    180.000000000000      7.295209241758                 2
    54    57    53    55     4    180.000000000000      7.295209241758                 2
   106   105   107   109     4    180.000000000000      7.295209241758                 2
    51    58    50    52     4    180.000000000000      7.295209241758                 2
   151   168   150   152     4    180.000000000000      7.295209241758                 2
   108   103   107   125     4    180.000000000000      7.295209241758                 2
     1   178     2     3     4    180.000000000000     18.013091641645                 2
   139   140   146   138     4    180.000000000000      7.295209241758                 2
   133   110   134   135     4    180.000000000000      7.295209241758                 2
    24    25    43     6     4    180.000000000000      7.295209241758                 2
   145   142   146   164     4    180.000000000000      7.295209241758                 2
   156   175   138   157     4    180.000000000000      7.295209241758                 2
    94    93    95   112     4    180.000000000000      7.295209241758                 2
   149   148   150   167     4    180.000000000000      7.295209241758                 2
   106   107   109   105     4    180.000000000000      7.295209241758                 2
   147   148   152   140     4    180.000000000000      7.295209241758                 2
   140   147   139   141     4    180.000000000000      7.295209241758                 2
   187   188   154   186     4    180.000000000000     18.013091641645                 2
    66    83    89    65     4    180.000000000000      1.752067434103                 2
    69    68    88    47     4    180.000000000000      7.295209241758                 2
    51    52    58    50     4    180.000000000000      7.295209241758                 2
   138   139   156   137     4    180.000000000000      7.295209241758                 2
    47    48    69    45     4    180.000000000000      7.295209241758                 2
   154   171   187   153     4    180.000000000000      1.752067434103                 2
   135   157   133   136     4    180.000000000000      7.295209241758                 2
   133   134   135   110     4    180.000000000000      7.295209241758                 2
   146   139   145   165     4    180.000000000000      7.295209241758                 2
    95   102    94    96     4    180.000000000000      7.295209241758                 2
   142   141   143   145     4    180.000000000000      7.295209241758                 2
     4     3     5    26     4    180.000000000000      7.295209241758                 2
   113    91   112   132     4    180.000000000000      7.295209241758                 2
    47    45    48    69     4    180.000000000000      7.295209241758                 2
   108   125   103   107     4    180.000000000000      7.295209241758                 2
     8     7     9    15     4    180.000000000000      7.295209241758                 2
    47    69    45    48     4    180.000000000000      7.295209241758                 2
   151   152   168   150     4    180.000000000000      7.295209241758                 2
    95    94    96   102     4    180.000000000000      7.295209241758                 2
    93    94   115    92     4    180.000000000000      7.295209241758                 2
    52    51    53    59     4    180.000000000000      7.295209241758                 2

[ settles ]
;i  funct   dOH  dHH


[ exclusions ]
;ai    aj


[ system ]
;name
FOO

[ molecules ]
;name	number
pop_tetramer.pdb	1

