Generated by Interchange
197
    1POP     C1    1  -0.220  -0.458  -0.179
    1POP     O2    2  -0.151  -0.499  -0.271
    1POP     C3    3  -0.222  -0.317  -0.130
    1POP     C4    4  -0.296  -0.280  -0.017
    1POP     C5    5  -0.288  -0.149   0.032
    1POP     C6    6  -0.208  -0.053  -0.032
    1POP     C7    7  -0.198   0.085   0.023
    1POP     C8    8  -0.075   0.145   0.060
    1POP     C9    9  -0.075   0.278   0.107
    1POP    C10   10  -0.193   0.351   0.120
    1POP    O11   11  -0.176   0.479   0.166
    1POP    C12   12  -0.293   0.558   0.181
    1POP    C13   13  -0.314   0.291   0.088
    1POP    C14   14  -0.316   0.160   0.040
    1POP    C15   15   0.053   0.072   0.052
    1POP    C16   16   0.159   0.121  -0.026
    1POP    C17   17   0.277   0.049  -0.038
    1POP    C18   18   0.293  -0.073   0.030
    1POP    C19   19   0.189  -0.121   0.110
    1POP    C20   20   0.071  -0.048   0.122
    1POP    C21   21   0.423  -0.149   0.025
    1POP    N22   22   0.539  -0.069   0.062
    1POP    C23   23   0.441  -0.214  -0.112
    1POP    C24   24  -0.136  -0.092  -0.146
    1POP    C25   25  -0.142  -0.223  -0.195
    1POP    H26   26  -0.358  -0.351   0.036
    1POP    H27   27  -0.343  -0.124   0.122
    1POP    H28   28   0.019   0.325   0.135
    1POP    H29   29  -0.262   0.657   0.217
    1POP    H30   30  -0.360   0.515   0.256
    1POP    H31   31  -0.344   0.572   0.086
    1POP    H32   32  -0.409   0.343   0.098
    1POP    H33   33  -0.412   0.115   0.013
    1POP    H34   34   0.149   0.215  -0.079
    1POP    H35   35   0.360   0.090  -0.096
    1POP    H36   36   0.199  -0.214   0.165
    1POP    H37   37  -0.008  -0.087   0.186
    1POP    H38   38   0.420  -0.230   0.099
    1POP    H39   39   0.626  -0.112   0.034
    1POP    H40   40   0.357  -0.280  -0.135
    1POP    H41   41   0.447  -0.139  -0.192
    1POP    H42   42   0.533  -0.273  -0.116
    1POP    H43   43  -0.071  -0.020  -0.197
    1POP    H44   44  -0.082  -0.251  -0.281
    2POP    C45   45   0.538  -0.007   0.186
    2POP    O46   46   0.448   0.067   0.224
    2POP    C47   47   0.649  -0.038   0.280
    2POP    C48   48   0.756  -0.123   0.248
    2POP    C49   49   0.851  -0.155   0.345
    2POP    C50   50   0.842  -0.105   0.476
    2POP    C51   51   0.946  -0.136   0.575
    2POP    C52   52   1.020  -0.034   0.641
    2POP    C53   53   1.116  -0.072   0.737
    2POP    C54   54   1.141  -0.206   0.768
    2POP    O55   55   1.236  -0.226   0.864
    2POP    C56   56   1.266  -0.360   0.898
    2POP    C57   57   1.071  -0.305   0.700
    2POP    C58   58   0.975  -0.270   0.605
    2POP    C59   59   1.001   0.109   0.612
    2POP    C60   60   0.962   0.198   0.713
    2POP    C61   61   0.937   0.332   0.685
    2POP    C62   62   0.951   0.380   0.554
    2POP    C63   63   0.990   0.292   0.453
    2POP    C64   64   1.016   0.159   0.482
    2POP    C65   65   0.933   0.527   0.523
    2POP    N66   66   1.015   0.614   0.606
    2POP    C67   67   0.785   0.565   0.531
    2POP    C68   68   0.733  -0.023   0.508
    2POP    C69   69   0.638   0.012   0.411
    2POP    H70   70   0.769  -0.166   0.150
    2POP    H71   71   0.935  -0.219   0.317
    2POP    H72   72   1.172   0.005   0.790
    2POP    H73   73   1.343  -0.358   0.976
    2POP    H74   74   1.307  -0.414   0.812
    2POP    H75   75   1.178  -0.412   0.939
    2POP    H76   76   1.088  -0.411   0.718
    2POP    H77   77   0.920  -0.350   0.554
    2POP    H78   78   0.951   0.163   0.816
    2POP    H79   79   0.911   0.400   0.766
    2POP    H80   80   1.004   0.328   0.351
    2POP    H81   81   1.048   0.093   0.401
    2POP    H82   82   0.966   0.546   0.420
    2POP    H83   83   0.985   0.710   0.603
    2POP    H84   84   0.726   0.504   0.462
    2POP    H85   85   0.745   0.551   0.632
    2POP    H86   86   0.771   0.670   0.504
    2POP    H87   87   0.722   0.018   0.608
    2POP    H88   88   0.556   0.077   0.439
    3POP    C89   89   1.153   0.593   0.606
    3POP    O90   90   1.205   0.485   0.629
    3POP    C91   91   1.240   0.707   0.567
    3POP    C92   92   1.192   0.834   0.534
    3POP    C93   93   1.279   0.933   0.488
    3POP    C94   94   1.416   0.908   0.473
    3POP    C95   95   1.508   1.015   0.430
    3POP    C96   96   1.619   1.056   0.507
    3POP    C97   97   1.703   1.157   0.457
    3POP    C98   98   1.679   1.219   0.334
    3POP    O99   99   1.771   1.314   0.300
    3POP   C100  100   1.751   1.381   0.176
    3POP   C101  101   1.568   1.181   0.260
    3POP   C102  102   1.483   1.080   0.307
    3POP   C103  103   1.649   0.998   0.639
    3POP   C104  104   1.772   0.935   0.664
    3POP   C105  105   1.798   0.875   0.787
    3POP   C106  106   1.701   0.877   0.888
    3POP   C107  107   1.578   0.940   0.865
    3POP   C108  108   1.553   1.001   0.742
    3POP   C109  109   1.730   0.819   1.025
    3POP   N110  110   1.851   0.871   1.086
    3POP   C111  111   1.732   0.666   1.019
    3POP   C112  112   1.464   0.779   0.505
    3POP   C113  113   1.377   0.681   0.553
    3POP   H114  114   1.087   0.860   0.541
    3POP   H115  115   1.239   1.031   0.465
    3POP   H116  116   1.790   1.189   0.516
    3POP   H117  117   1.833   1.452   0.163
    3POP   H118  118   1.657   1.438   0.177
    3POP   H119  119   1.754   1.311   0.092
    3POP   H120  120   1.544   1.228   0.165
    3POP   H121  121   1.398   1.051   0.246
    3POP   H122  122   1.849   0.933   0.587
    3POP   H123  123   1.895   0.831   0.805
    3POP   H124  124   1.502   0.944   0.942
    3POP   H125  125   1.458   1.050   0.727
    3POP   H126  126   1.649   0.848   1.094
    3POP   H127  127   1.882   0.815   1.164
    3POP   H128  128   1.637   0.628   0.980
    3POP   H129  129   1.812   0.629   0.954
    3POP   H130  130   1.747   0.624   1.119
    3POP   H131  131   1.569   0.756   0.495
    3POP   H132  132   1.418   0.583   0.577
    4POP   C133  133   1.862   1.009   1.102
    4POP   O134  134   1.849   1.089   1.010
    4POP   C135  135   1.882   1.062   1.240
    4POP   C136  136   1.898   0.980   1.352
    4POP   C137  137   1.908   1.037   1.479
    4POP   C138  138   1.901   1.176   1.497
    4POP   C139  139   1.918   1.235   1.632
    4POP   C140  140   2.019   1.329   1.662
    4POP   C141  141   2.025   1.383   1.792
    4POP   C142  142   1.935   1.344   1.892
    4POP   O143  143   1.954   1.406   2.012
    4POP   C144  144   1.865   1.370   2.118
    4POP   C145  145   1.838   1.249   1.863
    4POP   C146  146   1.829   1.195   1.734
    4POP   C147  147   2.120   1.372   1.562
    4POP   C148  148   2.135   1.507   1.528
    4POP   C149  149   2.227   1.546   1.430
    4POP   C150  150   2.307   1.451   1.365
    4POP   C151  151   2.293   1.316   1.399
    4POP   C152  152   2.202   1.278   1.498
    4POP   C153  153   2.413   1.492   1.264
    4POP   N154  154   2.501   1.590   1.325
    4POP   C155  155   2.345   1.541   1.136
    4POP   C156  156   1.883   1.257   1.384
    4POP   C157  157   1.874   1.201   1.257
    4POP   H158  158   1.902   0.872   1.346
    4POP   H159  159   1.922   0.972   1.565
    4POP   H160  160   2.102   1.456   1.817
    4POP   H161  161   1.892   1.430   2.205
    4POP   H162  162   1.876   1.265   2.144
    4POP   H163  163   1.762   1.394   2.092
    4POP   H164  164   1.767   1.214   1.937
    4POP   H165  165   1.752   1.122   1.713
    4POP   H166  166   2.074   1.583   1.576
    4POP   H167  167   2.238   1.652   1.408
    4POP   H168  168   2.355   1.241   1.352
    4POP   H169  169   2.195   1.172   1.523
    4POP   H170  170   2.476   1.406   1.238
    4POP   H171  171   2.540   1.666   1.270
    4POP   H172  172   2.279   1.462   1.096
    4POP   H173  173   2.283   1.630   1.152
    4POP   H174  174   2.418   1.565   1.058
    4POP   H175  175   1.877   1.365   1.394
    4POP   H176  176   1.861   1.266   1.171
    5CAP   C177  177  -0.219  -0.635  -0.030
    5CAP   O178  178  -0.296  -0.535  -0.098
    5CAP   H179  179  -0.148  -0.684  -0.096
    5CAP   H180  180  -0.288  -0.709   0.011
    5CAP   H181  181  -0.167  -0.586   0.053
    6CAP   C182  182   2.705   1.772   1.698
    6CAP   C183  183   2.685   1.634   1.632
    6CAP   C184  184   2.822   1.571   1.607
    6CAP   C185  185   2.600   1.550   1.729
    6CAP   O186  186   2.619   1.658   1.504
    6CAP   C187  187   2.576   1.552   1.432
    6CAP   O188  188   2.597   1.434   1.462
    6CAP   H189  189   2.760   1.763   1.793
    6CAP   H190  190   2.761   1.839   1.632
    6CAP   H191  191   2.609   1.820   1.718
    6CAP   H192  192   2.878   1.629   1.532
    6CAP   H193  193   2.814   1.469   1.568
    6CAP   H194  194   2.881   1.566   1.699
    6CAP   H195  195   2.501   1.593   1.744
    6CAP   H196  196   2.585   1.447   1.694
    6CAP   H197  197   2.649   1.542   1.827
  5.0000000  5.0000000  5.0000000
