Generated by Interchange
197
    1POP     C1    1  -0.222  -0.467  -0.184
    1POP     O2    2  -0.149  -0.507  -0.273
    1POP     C3    3  -0.227  -0.325  -0.138
    1POP     C4    4  -0.301  -0.289  -0.024
    1POP     C5    5  -0.293  -0.160   0.026
    1POP     C6    6  -0.215  -0.064  -0.039
    1POP     C7    7  -0.207   0.072   0.018
    1POP     C8    8  -0.085   0.137   0.048
    1POP     C9    9  -0.092   0.268   0.096
    1POP    C10   10  -0.212   0.323   0.138
    1POP    O11   11  -0.202   0.440   0.207
    1POP    C12   12  -0.321   0.482   0.274
    1POP    C13   13  -0.331   0.258   0.110
    1POP    C14   14  -0.329   0.136   0.046
    1POP    C15   15   0.046   0.068   0.042
    1POP    C16   16   0.147   0.110  -0.044
    1POP    C17   17   0.266   0.037  -0.054
    1POP    C18   18   0.292  -0.073   0.030
    1POP    C19   19   0.191  -0.114   0.118
    1POP    C20   20   0.070  -0.045   0.124
    1POP    C21   21   0.424  -0.148   0.025
    1POP    N22   22   0.541  -0.065   0.055
    1POP    C23   23   0.442  -0.214  -0.112
    1POP    C24   24  -0.143  -0.100  -0.154
    1POP    C25   25  -0.149  -0.230  -0.203
    1POP    H26   26  -0.362  -0.361   0.029
    1POP    H27   27  -0.348  -0.136   0.116
    1POP    H28   28  -0.001   0.325   0.109
    1POP    H29   29  -0.294   0.564   0.340
    1POP    H30   30  -0.363   0.402   0.334
    1POP    H31   31  -0.396   0.521   0.204
    1POP    H32   32  -0.428   0.301   0.135
    1POP    H33   33  -0.423   0.089   0.021
    1POP    H34   34   0.134   0.198  -0.106
    1POP    H35   35   0.342   0.070  -0.125
    1POP    H36   36   0.205  -0.200   0.182
    1POP    H37   37  -0.007  -0.080   0.192
    1POP    H38   38   0.422  -0.228   0.101
    1POP    H39   39   0.621  -0.126   0.048
    1POP    H40   40   0.358  -0.280  -0.136
    1POP    H41   41   0.450  -0.140  -0.192
    1POP    H42   42   0.534  -0.274  -0.114
    1POP    H43   43  -0.081  -0.027  -0.205
    1POP    H44   44  -0.089  -0.257  -0.290
    2POP    C45   45   0.550  -0.011   0.183
    2POP    O46   46   0.603  -0.076   0.273
    2POP    C47   47   0.506   0.129   0.202
    2POP    C48   48   0.481   0.212   0.093
    2POP    C49   49   0.428   0.339   0.112
    2POP    C50   50   0.411   0.391   0.241
    2POP    C51   51   0.357   0.526   0.258
    2POP    C52   52   0.254   0.558   0.350
    2POP    C53   53   0.212   0.692   0.356
    2POP    C54   54   0.253   0.784   0.260
    2POP    O55   55   0.187   0.905   0.262
    2POP    C56   56   0.213   0.994   0.154
    2POP    C57   57   0.353   0.754   0.171
    2POP    C58   58   0.408   0.627   0.174
    2POP    C59   59   0.179   0.455   0.425
    2POP    C60   60   0.166   0.453   0.564
    2POP    C61   61   0.099   0.349   0.628
    2POP    C62   62   0.030   0.250   0.556
    2POP    C63   63   0.043   0.250   0.418
    2POP    C64   64   0.118   0.349   0.355
    2POP    C65   65  -0.055   0.143   0.623
    2POP    N66   66  -0.157   0.196   0.715
    2POP    C67   67   0.036   0.044   0.696
    2POP    C68   68   0.446   0.310   0.351
    2POP    C69   69   0.490   0.179   0.331
    2POP    H70   70   0.499   0.178  -0.009
    2POP    H71   71   0.399   0.397   0.025
    2POP    H72   72   0.141   0.722   0.432
    2POP    H73   73   0.140   1.074   0.159
    2POP    H74   74   0.203   0.944   0.057
    2POP    H75   75   0.311   1.041   0.162
    2POP    H76   76   0.392   0.825   0.100
    2POP    H77   77   0.490   0.606   0.105
    2POP    H78   78   0.211   0.532   0.624
    2POP    H79   79   0.097   0.347   0.737
    2POP    H80   80  -0.004   0.172   0.358
    2POP    H81   81   0.133   0.343   0.248
    2POP    H82   82  -0.110   0.087   0.546
    2POP    H83   83  -0.202   0.115   0.754
    2POP    H84   84   0.110   0.000   0.628
    2POP    H85   85   0.091   0.092   0.778
    2POP    H86   86  -0.022  -0.038   0.740
    2POP    H87   87   0.436   0.348   0.452
    2POP    H88   88   0.512   0.116   0.418
    3POP    C89   89  -0.261   0.268   0.659
    3POP    O90   90  -0.359   0.210   0.612
    3POP    C91   91  -0.255   0.417   0.664
    3POP    C92   92  -0.158   0.486   0.737
    3POP    C93   93  -0.145   0.625   0.725
    3POP    C94   94  -0.236   0.699   0.649
    3POP    C95   95  -0.231   0.846   0.640
    3POP    C96   96  -0.235   0.919   0.518
    3POP    C97   97  -0.245   1.059   0.527
    3POP    C98   98  -0.245   1.129   0.648
    3POP    O99   99  -0.243   1.265   0.636
    3POP   C100  100  -0.234   1.342   0.755
    3POP   C101  101  -0.244   1.057   0.766
    3POP   C102  102  -0.236   0.918   0.762
    3POP   C103  103  -0.230   0.858   0.383
    3POP   C104  104  -0.330   0.879   0.289
    3POP   C105  105  -0.327   0.818   0.162
    3POP   C106  106  -0.218   0.742   0.118
    3POP   C107  107  -0.114   0.724   0.211
    3POP   C108  108  -0.123   0.776   0.342
    3POP   C109  109  -0.211   0.680  -0.022
    3POP   N110  110  -0.203   0.778  -0.131
    3POP   C111  111  -0.330   0.590  -0.057
    3POP   C112  112  -0.342   0.630   0.588
    3POP   C113  113  -0.351   0.491   0.595
    3POP   H114  114  -0.089   0.432   0.801
    3POP   H115  115  -0.063   0.675   0.777
    3POP   H116  116  -0.253   1.118   0.436
    3POP   H117  117  -0.207   1.445   0.727
    3POP   H118  118  -0.158   1.305   0.823
    3POP   H119  119  -0.331   1.345   0.806
    3POP   H120  120  -0.246   1.106   0.863
    3POP   H121  121  -0.234   0.864   0.857
    3POP   H122  122  -0.414   0.943   0.314
    3POP   H123  123  -0.413   0.833   0.096
    3POP   H124  124  -0.029   0.662   0.186
    3POP   H125  125  -0.048   0.751   0.414
    3POP   H126  126  -0.120   0.619  -0.028
    3POP   H127  127  -0.193   0.723  -0.216
    3POP   H128  128  -0.337   0.502   0.005
    3POP   H129  129  -0.426   0.643  -0.049
    3POP   H130  130  -0.322   0.553  -0.160
    3POP   H131  131  -0.417   0.685   0.532
    3POP   H132  132  -0.432   0.441   0.544
    4POP   C133  133  -0.096   0.864  -0.135
    4POP   O134  134   0.007   0.832  -0.193
    4POP   C135  135  -0.117   0.999  -0.077
    4POP   C136  136  -0.241   1.043  -0.031
    4POP   C137  137  -0.251   1.162   0.041
    4POP   C138  138  -0.139   1.246   0.058
    4POP   C139  139  -0.150   1.376   0.127
    4POP   C140  140  -0.063   1.421   0.231
    4POP   C141  141  -0.084   1.552   0.279
    4POP   C142  142  -0.186   1.636   0.232
    4POP   O143  143  -0.191   1.760   0.290
    4POP   C144  144  -0.291   1.849   0.242
    4POP   C145  145  -0.271   1.590   0.132
    4POP   C146  146  -0.253   1.462   0.082
    4POP   C147  147   0.045   1.338   0.293
    4POP   C148  148   0.179   1.378   0.298
    4POP   C149  149   0.280   1.298   0.358
    4POP   C150  150   0.250   1.176   0.418
    4POP   C151  151   0.114   1.139   0.420
    4POP   C152  152   0.016   1.217   0.355
    4POP   C153  153   0.357   1.084   0.481
    4POP   N154  154   0.430   1.152   0.586
    4POP   C155  155   0.464   1.031   0.385
    4POP   C156  156  -0.019   1.207  -0.002
    4POP   C157  157  -0.008   1.084  -0.068
    4POP   H158  158  -0.330   0.983  -0.046
    4POP   H159  159  -0.348   1.190   0.084
    4POP   H160  160  -0.020   1.589   0.359
    4POP   H161  161  -0.282   1.943   0.297
    4POP   H162  162  -0.392   1.809   0.261
    4POP   H163  163  -0.278   1.871   0.136
    4POP   H164  164  -0.352   1.650   0.093
    4POP   H165  165  -0.321   1.429   0.003
    4POP   H166  166   0.208   1.473   0.254
    4POP   H167  167   0.382   1.335   0.358
    4POP   H168  168   0.083   1.045   0.466
    4POP   H169  169  -0.085   1.179   0.351
    4POP   H170  170   0.307   0.997   0.526
    4POP   H171  171   0.531   1.146   0.589
    4POP   H172  172   0.424   0.963   0.311
    4POP   H173  173   0.515   1.111   0.332
    4POP   H174  174   0.538   0.972   0.440
    4POP   H175  175   0.069   1.270   0.006
    4POP   H176  176   0.088   1.054  -0.108
    5CAP   C177  177  -0.222  -0.640  -0.032
    5CAP   O178  178  -0.299  -0.542  -0.103
    5CAP   H179  179  -0.152  -0.693  -0.098
    5CAP   H180  180  -0.292  -0.712   0.012
    5CAP   H181  181  -0.168  -0.590   0.049
    6CAP   C182  182   0.067   1.059   0.827
    6CAP   C183  183   0.171   1.170   0.828
    6CAP   C184  184   0.110   1.305   0.793
    6CAP   C185  185   0.238   1.170   0.966
    6CAP   O186  186   0.258   1.132   0.721
    6CAP   C187  187   0.377   1.190   0.704
    6CAP   O188  188   0.436   1.264   0.781
    6CAP   H189  189  -0.011   1.076   0.902
    6CAP   H190  190   0.023   1.050   0.727
    6CAP   H191  191   0.112   0.961   0.847
    6CAP   H192  192   0.052   1.298   0.700
    6CAP   H193  193   0.188   1.380   0.774
    6CAP   H194  194   0.047   1.342   0.873
    6CAP   H195  195   0.293   1.076   0.982
    6CAP   H196  196   0.308   1.252   0.977
    6CAP   H197  197   0.163   1.180   1.045
  5.0000000  5.0000000  5.0000000
