Generated by Interchange
197
    1PMP     C1    1   0.214   0.490  -0.077
    1PMP     O2    2   0.096   0.413  -0.097
    1PMP     C3    3   0.101   0.282  -0.060
    1PMP     C4    4   0.210   0.215  -0.004
    1PMP     C5    5   0.203   0.079   0.029
    1PMP     C6    6   0.318   0.008   0.088
    1PMP     C7    7   0.448   0.027   0.038
    1PMP     C8    8   0.557  -0.041   0.093
    1PMP     C9    9   0.538  -0.129   0.200
    1PMP    C10   10   0.655  -0.208   0.246
    1PMP    O11   11   0.768  -0.196   0.200
    1PMP    C12   12   0.410  -0.149   0.251
    1PMP    C13   13   0.301  -0.081   0.196
    1PMP    C14   14   0.082   0.011   0.005
    1PMP    C15   15  -0.030   0.075  -0.050
    1PMP    C16   16  -0.157   0.002  -0.068
    1PMP    C17   17  -0.161  -0.128  -0.122
    1PMP    C18   18  -0.283  -0.196  -0.138
    1PMP    C19   19  -0.403  -0.137  -0.098
    1PMP    C20   20  -0.537  -0.207  -0.123
    1PMP    C21   21  -0.613  -0.235   0.006
    1PMP    N22   22  -0.612  -0.133  -0.225
    1PMP    C23   23  -0.398  -0.009  -0.041
    1PMP    C24   24  -0.278   0.060  -0.029
    1PMP    C25   25  -0.018   0.211  -0.083
    1PMP    H26   26   0.298   0.451  -0.136
    1PMP    H27   27   0.194   0.592  -0.113
    1PMP    H28   28   0.240   0.497   0.029
    1PMP    H29   29   0.302   0.269   0.016
    1PMP    H30   30   0.465   0.092  -0.048
    1PMP    H31   31   0.656  -0.026   0.050
    1PMP    H32   32   0.392  -0.219   0.332
    1PMP    H33   33   0.202  -0.099   0.238
    1PMP    H34   34   0.074  -0.094   0.031
    1PMP    H35   35  -0.069  -0.177  -0.153
    1PMP    H36   36  -0.281  -0.296  -0.181
    1PMP    H37   37  -0.516  -0.304  -0.170
    1PMP    H38   38  -0.551  -0.295   0.074
    1PMP    H39   39  -0.640  -0.144   0.060
    1PMP    H40   40  -0.704  -0.291  -0.015
    1PMP    H41   41  -0.570  -0.144  -0.316
    1PMP    H42   42  -0.489   0.040  -0.006
    1PMP    H43   43  -0.280   0.160   0.014
    1PMP    H44   44  -0.102   0.265  -0.126
    2PMP    C45   45  -0.684   0.797  -0.555
    2PMP    O46   46  -0.548   0.791  -0.596
    2PMP    C47   47  -0.479   0.677  -0.565
    2PMP    C48   48  -0.530   0.567  -0.497
    2PMP    C49   49  -0.449   0.455  -0.471
    2PMP    C50   50  -0.503   0.337  -0.401
    2PMP    C51   51  -0.584   0.349  -0.288
    2PMP    C52   52  -0.638   0.237  -0.225
    2PMP    C53   53  -0.611   0.108  -0.273
    2PMP    C54   54  -0.664  -0.008  -0.195
    2PMP    O55   55  -0.740   0.012  -0.101
    2PMP    C56   56  -0.526   0.094  -0.384
    2PMP    C57   57  -0.474   0.207  -0.447
    2PMP    C58   58  -0.315   0.457  -0.515
    2PMP    C59   59  -0.262   0.567  -0.584
    2PMP    C60   60  -0.123   0.563  -0.634
    2PMP    C61   61  -0.017   0.516  -0.555
    2PMP    C62   62   0.114   0.512  -0.604
    2PMP    C63   63   0.143   0.553  -0.734
    2PMP    C64   64   0.286   0.559  -0.786
    2PMP    C65   65   0.309   0.467  -0.906
    2PMP    N66   66   0.326   0.698  -0.806
    2PMP    C67   67   0.036   0.595  -0.815
    2PMP    C68   68  -0.094   0.603  -0.765
    2PMP    C69   69  -0.346   0.676  -0.608
    2PMP    H70   70  -0.693   0.792  -0.446
    2PMP    H71   71  -0.724   0.894  -0.587
    2PMP    H72   72  -0.744   0.719  -0.603
    2PMP    H73   73  -0.633   0.564  -0.466
    2PMP    H74   74  -0.604   0.448  -0.246
    2PMP    H75   75  -0.698   0.250  -0.135
    2PMP    H76   76  -0.496  -0.002  -0.423
    2PMP    H77   77  -0.410   0.192  -0.534
    2PMP    H78   78  -0.252   0.371  -0.496
    2PMP    H79   79  -0.035   0.483  -0.453
    2PMP    H80   80   0.194   0.477  -0.538
    2PMP    H81   81   0.352   0.523  -0.706
    2PMP    H82   82   0.283   0.364  -0.880
    2PMP    H83   83   0.248   0.495  -0.993
    2PMP    H84   84   0.414   0.469  -0.936
    2PMP    H85   85   0.337   0.744  -0.718
    2PMP    H86   86   0.052   0.626  -0.918
    2PMP    H87   87  -0.173   0.639  -0.831
    2PMP    H88   88  -0.308   0.763  -0.662
    3PMP    C89   89  -0.107   1.565  -1.012
    3PMP    O90   90  -0.177   1.556  -0.888
    3PMP    C91   91  -0.162   1.441  -0.816
    3PMP    C92   92  -0.083   1.332  -0.850
    3PMP    C93   93  -0.075   1.218  -0.768
    3PMP    C94   94   0.011   1.104  -0.802
    3PMP    C95   95   0.016   1.053  -0.932
    3PMP    C96   96   0.103   0.949  -0.965
    3PMP    C97   97   0.186   0.891  -0.868
    3PMP    C98   98   0.268   0.772  -0.909
    3PMP    O99   99   0.272   0.738  -1.026
    3PMP   C100  100   0.177   0.938  -0.736
    3PMP   C101  101   0.092   1.044  -0.705
    3PMP   C102  102  -0.150   1.218  -0.649
    3PMP   C103  103  -0.230   1.326  -0.611
    3PMP   C104  104  -0.302   1.324  -0.482
    3PMP   C105  105  -0.372   1.210  -0.438
    3PMP   C106  106  -0.440   1.209  -0.316
    3PMP   C107  107  -0.438   1.321  -0.232
    3PMP   C108  108  -0.518   1.325  -0.103
    3PMP   C109  109  -0.430   1.343   0.020
    3PMP   N110  110  -0.628   1.420  -0.116
    3PMP   C111  111  -0.364   1.433  -0.274
    3PMP   C112  112  -0.300   1.435  -0.398
    3PMP   C113  113  -0.235   1.437  -0.696
    3PMP   H114  114  -0.138   1.486  -1.081
    3PMP   H115  115  -0.132   1.661  -1.058
    3PMP   H116  116   0.002   1.562  -0.996
    3PMP   H117  117  -0.023   1.334  -0.941
    3PMP   H118  118  -0.048   1.094  -1.010
    3PMP   H119  119   0.103   0.910  -1.067
    3PMP   H120  120   0.233   0.894  -0.655
    3PMP   H121  121   0.089   1.078  -0.601
    3PMP   H122  122  -0.144   1.131  -0.583
    3PMP   H123  123  -0.376   1.120  -0.500
    3PMP   H124  124  -0.495   1.119  -0.287
    3PMP   H125  125  -0.569   1.228  -0.092
    3PMP   H126  126  -0.354   1.264   0.025
    3PMP   H127  127  -0.377   1.438   0.021
    3PMP   H128  128  -0.491   1.337   0.112
    3PMP   H129  129  -0.699   1.387  -0.180
    3PMP   H130  130  -0.357   1.521  -0.211
    3PMP   H131  131  -0.247   1.526  -0.426
    3PMP   H132  132  -0.296   1.524  -0.671
    4PMP   C133  133  -0.824   2.248  -0.626
    4PMP   O134  134  -0.819   2.171  -0.746
    4PMP   C135  135  -0.779   2.041  -0.734
    4PMP   C136  136  -0.749   1.974  -0.616
    4PMP   C137  137  -0.710   1.839  -0.616
    4PMP   C138  138  -0.683   1.767  -0.491
    4PMP   C139  139  -0.606   1.824  -0.389
    4PMP   C140  140  -0.583   1.756  -0.269
    4PMP   C141  141  -0.637   1.628  -0.249
    4PMP   C142  142  -0.600   1.556  -0.122
    4PMP   O143  143  -0.537   1.615  -0.036
    4PMP   C144  144  -0.711   1.569  -0.352
    4PMP   C145  145  -0.734   1.638  -0.471
    4PMP   C146  146  -0.700   1.773  -0.740
    4PMP   C147  147  -0.730   1.837  -0.861
    4PMP   C148  148  -0.725   1.763  -0.988
    4PMP   C149  149  -0.622   1.673  -1.020
    4PMP   C150  150  -0.620   1.602  -1.142
    4PMP   C151  151  -0.724   1.619  -1.234
    4PMP   C152  152  -0.723   1.554  -1.372
    4PMP   C153  153  -0.835   1.452  -1.389
    4PMP   N154  154  -0.716   1.658  -1.475
    4PMP   C155  155  -0.828   1.704  -1.198
    4PMP   C156  156  -0.829   1.776  -1.080
    4PMP   C157  157  -0.768   1.972  -0.856
    4PMP   H158  158  -0.726   2.253  -0.578
    4PMP   H159  159  -0.853   2.350  -0.653
    4PMP   H160  160  -0.900   2.209  -0.557
    4PMP   H161  161  -0.759   2.025  -0.520
    4PMP   H162  162  -0.560   1.922  -0.403
    4PMP   H163  163  -0.520   1.801  -0.194
    4PMP   H164  164  -0.750   1.468  -0.345
    4PMP   H165  165  -0.793   1.589  -0.548
    4PMP   H166  166  -0.672   1.668  -0.742
    4PMP   H167  167  -0.539   1.658  -0.951
    4PMP   H168  168  -0.536   1.536  -1.163
    4PMP   H169  169  -0.629   1.500  -1.382
    4PMP   H170  170  -0.829   1.375  -1.311
    4PMP   H171  171  -0.935   1.495  -1.381
    4PMP   H172  172  -0.827   1.402  -1.487
    4PMP   H173  173  -0.629   1.710  -1.473
    4PMP   H174  174  -0.911   1.718  -1.265
    4PMP   H175  175  -0.913   1.843  -1.060
    4PMP   H176  176  -0.792   2.026  -0.947
    5CAP   C177  177   0.688  -0.426   0.322
    5CAP   O178  178   0.613  -0.305   0.330
    5CAP   H179  179   0.649  -0.483   0.237
    5CAP   H180  180   0.671  -0.484   0.413
    5CAP   H181  181   0.795  -0.409   0.310
    6CAP   C182  182  -1.173   1.660  -1.543
    6CAP   C183  183  -1.063   1.765  -1.523
    6CAP   C184  184  -1.063   1.860  -1.643
    6CAP   C185  185  -1.094   1.841  -1.393
    6CAP   O186  186  -0.940   1.688  -1.510
    6CAP   C187  187  -0.817   1.745  -1.507
    6CAP   O188  188  -0.794   1.864  -1.527
    6CAP   H189  189  -1.272   1.706  -1.550
    6CAP   H190  190  -1.156   1.601  -1.633
    6CAP   H191  191  -1.174   1.589  -1.459
    6CAP   H192  192  -1.036   1.807  -1.735
    6CAP   H193  193  -0.991   1.942  -1.631
    6CAP   H194  194  -1.161   1.906  -1.656
    6CAP   H195  195  -1.102   1.772  -1.309
    6CAP   H196  196  -1.014   1.912  -1.369
    6CAP   H197  197  -1.188   1.895  -1.399
  5.0000000  5.0000000  5.0000000
