FOO
 3367
    1PMP     C1    1   1.313   2.947   1.252
    1PMP     O2    2   1.367   2.874   1.364
    1PMP     C3    3   1.352   2.735   1.365
    1PMP     C4    4   1.415   2.665   1.469
    1PMP     C5    5   1.410   2.524   1.474
    1PMP     C6    6   1.485   2.450   1.578
    1PMP     C7    7   1.586   2.359   1.541
    1PMP     C8    8   1.660   2.290   1.639
    1PMP     C9    9   1.633   2.311   1.777
    1PMP    C10   10   1.712   2.240   1.881
    1PMP    O11   11   1.830   2.212   1.856
    1PMP    C12   12   1.530   2.401   1.814
    1PMP    C13   13   1.458   2.471   1.715
    1PMP    C14   14   1.337   2.453   1.377
    1PMP    C15   15   1.265   2.521   1.275
    1PMP    C16   16   1.180   2.445   1.177
    1PMP    C17   17   1.134   2.314   1.208
    1PMP    C18   18   1.054   2.242   1.117
    1PMP    C19   19   1.013   2.299   0.995
    1PMP    C20   20   0.921   2.226   0.896
    1PMP    C21   21   0.896   2.077   0.927
    1PMP    N22   22   0.789   2.289   0.873
    1PMP    C23   23   1.059   2.429   0.963
    1PMP    C24   24   1.143   2.501   1.052
    1PMP    C25   25   1.275   2.663   1.269
    1PMP    H26   26   1.357   2.910   1.159
    1PMP    H27   27   1.204   2.938   1.250
    1PMP    H28   28   1.339   3.053   1.264
    1PMP    H29   29   1.471   2.720   1.543
    1PMP    H30   30   1.608   2.343   1.435
    1PMP    H31   31   1.739   2.221   1.608
    1PMP    H32   32   1.507   2.416   1.919
    1PMP    H33   33   1.379   2.541   1.744
    1PMP    H34   34   1.337   2.345   1.382
    1PMP    H35   35   1.157   2.268   1.303
    1PMP    H36   36   1.021   2.143   1.147
    1PMP    H37   37   0.974   2.227   0.800
    1PMP    H38   38   0.992   2.025   0.936
    1PMP    H39   39   0.839   2.067   1.019
    1PMP    H40   40   0.839   2.033   0.844
    1PMP    H41   41   0.737   2.263   0.790
    1PMP    H42   42   1.029   2.475   0.869
    1PMP    H43   43   1.177   2.599   1.021
    1PMP    H44   44   1.219   2.717   1.193
    2PMP    C45   45   1.091   2.856   1.572
    2PMP    O46   46   1.097   2.748   1.669
    2PMP    C47   47   1.017   2.638   1.645
    2PMP    C48   48   0.970   2.602   1.516
    2PMP    C49   49   0.876   2.498   1.499
    2PMP    C50   50   0.826   2.464   1.363
    2PMP    C51   51   0.817   2.565   1.263
    2PMP    C52   52   0.778   2.533   1.132
    2PMP    C53   53   0.747   2.400   1.098
    2PMP    C54   54   0.712   2.367   0.958
    2PMP    O55   55   0.607   2.408   0.911
    2PMP    C56   56   0.750   2.299   1.197
    2PMP    C57   57   0.791   2.331   1.329
    2PMP    C58   58   0.828   2.429   1.613
    2PMP    C59   59   0.879   2.460   1.742
    2PMP    C60   60   0.825   2.397   1.864
    2PMP    C61   61   0.686   2.395   1.888
    2PMP    C62   62   0.638   2.367   2.018
    2PMP    C63   63   0.729   2.341   2.124
    2PMP    C64   64   0.681   2.352   2.269
    2PMP    C65   65   0.730   2.237   2.360
    2PMP    N66   66   0.718   2.488   2.319
    2PMP    C67   67   0.867   2.328   2.094
    2PMP    C68   68   0.915   2.357   1.966
    2PMP    C69   69   0.975   2.563   1.756
    2PMP    H70   70   0.987   2.889   1.561
    2PMP    H71   71   1.151   2.939   1.609
    2PMP    H72   72   1.130   2.824   1.476
    2PMP    H73   73   1.009   2.653   1.428
    2PMP    H74   74   0.840   2.668   1.287
    2PMP    H75   75   0.773   2.611   1.056
    2PMP    H76   76   0.723   2.197   1.173
    2PMP    H77   77   0.798   2.251   1.402
    2PMP    H78   78   0.753   2.352   1.604
    2PMP    H79   79   0.617   2.426   1.811
    2PMP    H80   80   0.532   2.376   2.038
    2PMP    H81   81   0.572   2.346   2.269
    2PMP    H82   82   0.696   2.142   2.318
    2PMP    H83   83   0.839   2.236   2.366
    2PMP    H84   84   0.689   2.250   2.460
    2PMP    H85   85   0.652   2.560   2.293
    2PMP    H86   86   0.938   2.308   2.173
    2PMP    H87   87   1.022   2.357   1.947
    2PMP    H88   88   1.011   2.591   1.854
    3PMP    C89   89   0.812   3.314   1.870
    3PMP    O90   90   0.948   3.295   1.823
    3PMP    C91   91   1.016   3.181   1.864
    3PMP    C92   92   0.961   3.084   1.953
    3PMP    C93   93   1.038   2.973   1.994
    3PMP    C94   94   0.981   2.871   2.084
    3PMP    C95   95   1.042   2.844   2.208
    3PMP    C96   96   0.994   2.739   2.289
    3PMP    C97   97   0.885   2.659   2.246
    3PMP    C98   98   0.848   2.537   2.324
    3PMP    O99   99   0.937   2.469   2.373
    3PMP   C100  100   0.823   2.688   2.123
    3PMP   C101  101   0.870   2.794   2.042
    3PMP   C102  102   1.170   2.958   1.945
    3PMP   C103  103   1.225   3.052   1.855
    3PMP   C104  104   1.362   3.030   1.798
    3PMP   C105  105   1.463   2.965   1.873
    3PMP   C106  106   1.589   2.938   1.817
    3PMP   C107  107   1.617   2.974   1.683
    3PMP   C108  108   1.754   2.943   1.622
    3PMP   C109  109   1.746   2.812   1.541
    3PMP   N110  110   1.798   3.066   1.550
    3PMP   C111  111   1.516   3.038   1.607
    3PMP   C112  112   1.391   3.067   1.664
    3PMP   C113  113   1.147   3.163   1.815
    3PMP   H114  114   0.810   3.321   1.979
    3PMP   H115  115   0.774   3.407   1.827
    3PMP   H116  116   0.749   3.231   1.836
    3PMP   H117  117   0.860   3.093   1.991
    3PMP   H118  118   1.128   2.902   2.240
    3PMP   H119  119   1.044   2.716   2.383
    3PMP   H120  120   0.742   2.626   2.085
    3PMP   H121  121   0.824   2.813   1.946
    3PMP   H122  122   1.226   2.870   1.974
    3PMP   H123  123   1.444   2.937   1.977
    3PMP   H124  124   1.664   2.887   1.877
    3PMP   H125  125   1.824   2.927   1.704
    3PMP   H126  126   1.712   2.732   1.607
    3PMP   H127  127   1.675   2.824   1.458
    3PMP   H128  128   1.845   2.787   1.503
    3PMP   H129  129   1.797   3.152   1.604
    3PMP   H130  130   1.535   3.064   1.503
    3PMP   H131  131   1.315   3.114   1.602
    3PMP   H132  132   1.187   3.237   1.747
    4PMP   C133  133   2.282   3.829   1.272
    4PMP   O134  134   2.169   3.896   1.211
    4PMP   C135  135   2.050   3.825   1.200
    4PMP   C136  136   2.032   3.692   1.245
    4PMP   C137  137   1.907   3.628   1.231
    4PMP   C138  138   1.888   3.489   1.278
    4PMP   C139  139   1.988   3.391   1.256
    4PMP   C140  140   1.970   3.259   1.301
    4PMP   C141  141   1.851   3.222   1.369
    4PMP   C142  142   1.832   3.084   1.417
    4PMP   O143  143   1.835   2.992   1.337
    4PMP   C144  144   1.750   3.319   1.389
    4PMP   C145  145   1.768   3.451   1.343
    4PMP   C146  146   1.800   3.698   1.171
    4PMP   C147  147   1.816   3.830   1.124
    4PMP   C148  148   1.703   3.903   1.060
    4PMP   C149  149   1.602   3.833   0.989
    4PMP   C150  150   1.498   3.902   0.925
    4PMP   C151  151   1.492   4.043   0.930
    4PMP   C152  152   1.383   4.118   0.855
    4PMP   C153  153   1.287   4.190   0.954
    4PMP   N154  154   1.446   4.204   0.752
    4PMP   C155  155   1.591   4.113   1.002
    4PMP   C156  156   1.696   4.044   1.066
    4PMP   C157  157   1.942   3.893   1.140
    4PMP   H158  158   2.310   3.742   1.211
    4PMP   H159  159   2.366   3.899   1.274
    4PMP   H160  160   2.258   3.799   1.374
    4PMP   H161  161   2.113   3.637   1.292
    4PMP   H162  162   2.079   3.417   1.203
    4PMP   H163  163   2.047   3.185   1.283
    4PMP   H164  164   1.658   3.292   1.439
    4PMP   H165  165   1.690   3.524   1.360
    4PMP   H166  166   1.704   3.648   1.161
    4PMP   H167  167   1.605   3.724   0.980
    4PMP   H168  168   1.423   3.846   0.869
    4PMP   H169  169   1.322   4.045   0.801
    4PMP   H170  170   1.238   4.114   1.015
    4PMP   H171  171   1.343   4.258   1.018
    4PMP   H172  172   1.212   4.245   0.897
    4PMP   H173  173   1.490   4.156   0.674
    4PMP   H174  174   1.588   4.222   1.008
    4PMP   H175  175   1.769   4.102   1.121
    4PMP   H176  176   1.960   3.994   1.105
    5CAP   C177  177   1.735   2.136   2.096
    5CAP   O178  178   1.653   2.210   2.001
    5CAP   H179  179   1.764   2.040   2.053
    5CAP   H180  180   1.676   2.118   2.186
    5CAP   H181  181   1.824   2.194   2.122
    6CAP   C182  182   1.814   4.445   0.611
    6CAP   C183  183   1.691   4.469   0.702
    6CAP   C184  184   1.746   4.496   0.844
    6CAP   C185  185   1.614   4.591   0.644
    6CAP   O186  186   1.614   4.347   0.688
    6CAP   C187  187   1.507   4.326   0.770
    6CAP   O188  188   1.456   4.408   0.845
    6CAP   H189  189   1.877   4.534   0.608
    6CAP   H190  190   1.871   4.360   0.649
    6CAP   H191  191   1.780   4.422   0.510
    6CAP   H192  192   1.791   4.404   0.883
    6CAP   H193  193   1.666   4.529   0.911
    6CAP   H194  194   1.822   4.574   0.840
    6CAP   H195  195   1.580   4.567   0.543
    6CAP   H196  196   1.527   4.612   0.706
    6CAP   H197  197   1.679   4.678   0.642
    7TCM     c1  198   4.313   0.460   2.652
    7TCM    cl1  199   4.413   0.428   2.507
    7TCM    cl2  200   4.345   0.626   2.712
    7TCM     h1  201   4.207   0.449   2.628
    7TCM    cl3  202   4.358   0.344   2.782
    8TCM     c1  203   1.469   2.442   4.351
    8TCM    cl1  204   1.382   2.406   4.198
    8TCM    cl2  205   1.403   2.592   4.423
    8TCM     h1  206   1.457   2.359   4.421
    8TCM    cl3  207   1.644   2.465   4.315
    9TCM     c1  208   2.007   2.321   1.174
    9TCM    cl1  209   1.883   2.285   1.300
    9TCM    cl2  210   2.027   2.178   1.068
    9TCM     h1  211   1.974   2.406   1.115
    9TCM    cl3  212   2.163   2.359   1.253
   10TCM     c1  213   2.850   0.392   3.722
   10TCM    cl1  214   2.897   0.358   3.552
   10TCM    cl2  215   2.990   0.364   3.831
   10TCM     h1  216   2.818   0.496   3.730
   10TCM    cl3  217   2.716   0.283   3.769
   11TCM     c1  218   2.218   1.535   2.774
   11TCM    cl1  219   2.130   1.690   2.793
   11TCM    cl2  220   2.303   1.496   2.928
   11TCM     h1  221   2.147   1.455   2.750
   11TCM    cl3  222   2.338   1.550   2.642
   12TCM     c1  223   0.187   1.261   0.165
   12TCM    cl1  224   0.182   1.099   0.242
   12TCM    cl2  225   0.063   1.270   0.035
   12TCM     h1  226   0.168   1.338   0.240
   12TCM    cl3  227   0.350   1.285   0.093
   13TCM     c1  228   2.823   0.631   2.438
   13TCM    cl1  229   2.656   0.661   2.498
   13TCM    cl2  230   2.823   0.483   2.336
   13TCM     h1  231   2.856   0.716   2.379
   13TCM    cl3  232   2.933   0.609   2.577
   14TCM     c1  233   3.469   3.862   4.319
   14TCM    cl1  234   3.374   3.976   4.217
   14TCM    cl2  235   3.480   3.927   4.486
   14TCM     h1  236   3.420   3.764   4.320
   14TCM    cl3  237   3.635   3.844   4.252
   15TCM     c1  238   0.529   3.855   3.392
   15TCM    cl1  239   0.384   3.762   3.441
   15TCM    cl2  240   0.653   3.743   3.327
   15TCM     h1  241   0.502   3.928   3.316
   15TCM    cl3  242   0.596   3.939   3.536
   16TCM     c1  243   3.897   1.257   2.563
   16TCM    cl1  244   4.017   1.291   2.692
   16TCM    cl2  245   3.982   1.191   2.419
   16TCM     h1  246   3.824   1.184   2.599
   16TCM    cl3  247   3.814   1.409   2.516
   17TCM     c1  248   4.932   2.966   4.171
   17TCM    cl1  249   4.854   2.890   4.313
   17TCM    cl2  250   5.095   2.895   4.148
   17TCM     h1  251   4.871   2.948   4.082
   17TCM    cl3  252   4.948   3.143   4.198
   18TCM     c1  253   0.466   2.484   1.314
   18TCM    cl1  254   0.420   2.629   1.219
   18TCM    cl2  255   0.370   2.343   1.261
   18TCM     h1  256   0.572   2.464   1.298
   18TCM    cl3  257   0.436   2.512   1.489
   19TCM     c1  258   1.280   1.641   2.311
   19TCM    cl1  259   1.109   1.617   2.259
   19TCM    cl2  260   1.389   1.574   2.186
   19TCM     h1  261   1.299   1.747   2.324
   19TCM    cl3  262   1.310   1.555   2.466
   20TCM     c1  263   4.529   4.268   0.487
   20TCM    cl1  264   4.636   4.411   0.512
   20TCM    cl2  265   4.627   4.129   0.432
   20TCM     h1  266   4.479   4.243   0.581
   20TCM    cl3  267   4.406   4.308   0.363
   21TCM     c1  268   2.557   4.897   3.875
   21TCM    cl1  269   2.423   4.797   3.940
   21TCM    cl2  270   2.613   5.009   4.004
   21TCM     h1  271   2.640   4.833   3.843
   21TCM    cl3  272   2.496   4.993   3.737
   22TCM     c1  273   2.896   1.623   2.652
   22TCM    cl1  274   2.959   1.455   2.643
   22TCM    cl2  275   2.719   1.624   2.624
   22TCM     h1  276   2.917   1.664   2.750
   22TCM    cl3  277   2.976   1.723   2.527
   23TCM     c1  278   0.766   2.941   4.751
   23TCM    cl1  279   0.934   2.889   4.717
   23TCM    cl2  280   0.658   2.882   4.620
   23TCM     h1  281   0.733   2.900   4.846
   23TCM    cl3  282   0.760   3.120   4.756
   24TCM     c1  283   4.396   3.211   1.922
   24TCM    cl1  284   4.306   3.364   1.951
   24TCM    cl2  285   4.287   3.072   1.956
   24TCM     h1  286   4.428   3.207   1.818
   24TCM    cl3  287   4.539   3.203   2.030
   25TCM     c1  288   0.345   3.675   4.676
   25TCM    cl1  289   0.211   3.572   4.617
   25TCM    cl2  290   0.291   3.846   4.680
   25TCM     h1  291   0.374   3.644   4.777
   25TCM    cl3  292   0.485   3.659   4.566
   26TCM     c1  293   2.337   1.123   3.257
   26TCM    cl1  294   2.447   1.227   3.160
   26TCM    cl2  295   2.349   0.954   3.199
   26TCM     h1  296   2.366   1.128   3.362
   26TCM    cl3  297   2.169   1.182   3.238
   27TCM     c1  298   1.176   1.877   2.654
   27TCM    cl1  299   1.217   1.751   2.775
   27TCM    cl2  300   1.042   1.819   2.550
   27TCM     h1  301   1.146   1.969   2.706
   27TCM    cl3  302   1.320   1.908   2.552
   28TCM     c1  303   3.168   4.509   4.762
   28TCM    cl1  304   3.275   4.575   4.633
   28TCM    cl2  305   3.177   4.330   4.763
   28TCM     h1  306   3.200   4.547   4.859
   28TCM    cl3  307   3.000   4.562   4.730
   29TCM     c1  308   2.291   2.190   2.023
   29TCM    cl1  309   2.313   2.116   1.861
   29TCM    cl2  310   2.117   2.221   2.049
   29TCM     h1  311   2.329   2.122   2.100
   29TCM    cl3  312   2.380   2.346   2.030
   30TCM     c1  313   2.911   2.050   4.895
   30TCM    cl1  314   2.903   2.091   5.070
   30TCM    cl2  315   3.062   2.118   4.825
   30TCM     h1  316   2.911   1.941   4.883
   30TCM    cl3  317   2.769   2.119   4.811
   31TCM     c1  318   0.028   4.870   1.244
   31TCM    cl1  319  -0.104   4.763   1.188
   31TCM    cl2  320   0.017   4.889   1.422
   31TCM     h1  321   0.125   4.826   1.218
   31TCM    cl3  322   0.012   5.031   1.166
   32TCM     c1  323   3.055   0.603   1.149
   32TCM    cl1  324   2.886   0.657   1.123
   32TCM    cl2  325   3.141   0.723   1.251
   32TCM     h1  326   3.056   0.505   1.198
   32TCM    cl3  327   3.138   0.591   0.990
   33TCM     c1  328   3.646   3.211   1.814
   33TCM    cl1  329   3.644   3.155   1.643
   33TCM    cl2  330   3.525   3.118   1.909
   33TCM     h1  331   3.745   3.195   1.856
   33TCM    cl3  332   3.605   3.385   1.820
   34TCM     c1  333   1.144   0.786   3.518
   34TCM    cl1  334   1.029   0.822   3.385
   34TCM    cl2  335   1.146   0.923   3.633
   34TCM     h1  336   1.112   0.695   3.570
   34TCM    cl3  337   1.309   0.762   3.451
   35TCM     c1  338   0.742   0.200   3.797
   35TCM    cl1  339   0.803   0.118   3.945
   35TCM    cl2  340   0.712   0.077   3.670
   35TCM     h1  341   0.649   0.252   3.821
   35TCM    cl3  342   0.865   0.317   3.740
   36TCM     c1  343   2.817   3.483   3.244
   36TCM    cl1  344   2.773   3.317   3.297
   36TCM    cl2  345   2.996   3.498   3.233
   36TCM     h1  346   2.772   3.504   3.147
   36TCM    cl3  347   2.756   3.601   3.366
   37TCM     c1  348   0.174   0.885   2.511
   37TCM    cl1  349   0.044   0.803   2.418
   37TCM    cl2  350   0.331   0.858   2.428
   37TCM     h1  351   0.153   0.992   2.517
   37TCM    cl3  352   0.183   0.816   2.676
   38TCM     c1  353   4.863   1.806   2.085
   38TCM    cl1  354   4.997   1.791   2.204
   38TCM    cl2  355   4.905   1.929   1.961
   38TCM     h1  356   4.847   1.709   2.036
   38TCM    cl3  357   4.714   1.856   2.170
   39TCM     c1  358   1.168   3.479   2.016
   39TCM    cl1  359   1.293   3.357   2.060
   39TCM    cl2  360   1.197   3.538   1.849
   39TCM     h1  361   1.069   3.435   2.023
   39TCM    cl3  362   1.180   3.618   2.129
   40TCM     c1  363   3.680   1.432   2.010
   40TCM    cl1  364   3.548   1.351   1.919
   40TCM    cl2  365   3.640   1.430   2.185
   40TCM     h1  366   3.774   1.379   1.993
   40TCM    cl3  367   3.695   1.602   1.956
   41TCM     c1  368   0.847   1.992   1.984
   41TCM    cl1  369   0.910   1.827   2.014
   41TCM    cl2  370   0.669   1.994   2.007
   41TCM     h1  371   0.894   2.062   2.054
   41TCM    cl3  372   0.885   2.041   1.815
   42TCM     c1  373   2.315   3.701   1.811
   42TCM    cl1  374   2.487   3.652   1.809
   42TCM    cl2  375   2.247   3.681   1.646
   42TCM     h1  376   2.260   3.639   1.882
   42TCM    cl3  377   2.301   3.873   1.860
   43TCM     c1  378   1.180   4.392   0.634
   43TCM    cl1  379   1.247   4.504   0.511
   43TCM    cl2  380   1.179   4.225   0.569
   43TCM     h1  381   1.240   4.397   0.725
   43TCM    cl3  382   1.010   4.438   0.670
   44TCM     c1  383   0.438   1.159   4.737
   44TCM    cl1  384   0.267   1.195   4.693
   44TCM    cl2  385   0.523   1.313   4.773
   44TCM     h1  386   0.440   1.094   4.824
   44TCM    cl3  387   0.519   1.078   4.599
   45TCM     c1  388   1.237   3.647   4.693
   45TCM    cl1  389   1.309   3.804   4.642
   45TCM    cl2  390   1.355   3.555   4.791
   45TCM     h1  391   1.147   3.666   4.752
   45TCM    cl3  392   1.195   3.552   4.547
   46TCM     c1  393   0.304   0.384   4.599
   46TCM    cl1  394   0.479   0.350   4.624
   46TCM    cl2  395   0.221   0.232   4.553
   46TCM     h1  396   0.261   0.423   4.691
   46TCM    cl3  397   0.284   0.504   4.467
   47TCM     c1  398   1.012   4.021   1.978
   47TCM    cl1  399   1.010   3.964   2.149
   47TCM    cl2  400   0.843   4.040   1.921
   47TCM     h1  401   1.063   4.117   1.973
   47TCM    cl3  402   1.097   3.901   1.876
   48TCM     c1  403   3.507   3.887   4.844
   48TCM    cl1  404   3.655   3.793   4.882
   48TCM    cl2  405   3.458   3.980   4.990
   48TCM     h1  406   3.527   3.957   4.762
   48TCM    cl3  407   3.374   3.775   4.798
   49TCM     c1  408   1.111   1.250   0.721
   49TCM    cl1  409   1.148   1.103   0.626
   49TCM    cl2  410   0.970   1.335   0.649
   49TCM     h1  411   1.088   1.222   0.824
   49TCM    cl3  412   1.253   1.360   0.719
   50TCM     c1  413   3.244   0.564   2.254
   50TCM    cl1  414   3.102   0.645   2.181
   50TCM    cl2  415   3.197   0.397   2.301
   50TCM     h1  416   3.325   0.561   2.182
   50TCM    cl3  417   3.297   0.654   2.400
   51TCM     c1  418   0.125   0.375   1.785
   51TCM    cl1  419   0.054   0.379   1.949
   51TCM    cl2  420   0.302   0.349   1.799
   51TCM     h1  421   0.080   0.294   1.727
   51TCM    cl3  422   0.095   0.531   1.702
   52TCM     c1  423   3.517   2.301   1.215
   52TCM    cl1  424   3.595   2.208   1.347
   52TCM    cl2  425   3.633   2.322   1.080
   52TCM     h1  426   3.429   2.247   1.180
   52TCM    cl3  427   3.468   2.462   1.277
   53TCM     c1  428   4.025   4.985   0.594
   53TCM    cl1  429   3.924   4.837   0.600
   53TCM    cl2  430   3.932   5.117   0.516
   53TCM     h1  431   4.052   5.015   0.696
   53TCM    cl3  432   4.174   4.953   0.500
   54TCM     c1  433   4.986   1.748   3.314
   54TCM    cl1  434   4.814   1.763   3.266
   54TCM    cl2  435   5.043   1.581   3.280
   54TCM     h1  436   5.046   1.820   3.257
   54TCM    cl3  437   5.004   1.783   3.489
   55TCM     c1  438   2.078   3.160   2.411
   55TCM    cl1  439   2.123   3.328   2.369
   55TCM    cl2  440   1.904   3.134   2.378
   55TCM     h1  441   2.137   3.091   2.351
   55TCM    cl3  442   2.112   3.130   2.585
   56TCM     c1  443   0.412   4.872   4.616
   56TCM    cl1  444   0.342   4.954   4.760
   56TCM    cl2  445   0.411   4.694   4.642
   56TCM     h1  446   0.354   4.896   4.527
   56TCM    cl3  447   0.582   4.927   4.594
   57TCM     c1  448   4.530   0.470   4.285
   57TCM    cl1  449   4.577   0.633   4.343
   57TCM    cl2  450   4.358   0.441   4.325
   57TCM     h1  451   4.545   0.463   4.177
   57TCM    cl3  452   4.632   0.347   4.368
   58TCM     c1  453   3.528   4.241   1.656
   58TCM    cl1  454   3.482   4.363   1.779
   58TCM    cl2  455   3.431   4.267   1.507
   58TCM     h1  456   3.634   4.250   1.633
   58TCM    cl3  457   3.495   4.076   1.720
   59TCM     c1  458   4.565   4.412   4.718
   59TCM    cl1  459   4.430   4.394   4.835
   59TCM    cl2  460   4.666   4.263   4.720
   59TCM     h1  461   4.526   4.428   4.618
   59TCM    cl3  462   4.667   4.551   4.767
   60TCM     c1  463   3.905   4.042   1.611
   60TCM    cl1  464   3.785   4.041   1.478
   60TCM    cl2  465   3.858   3.923   1.736
   60TCM     h1  466   4.004   4.018   1.572
   60TCM    cl3  467   3.908   4.206   1.685
   61TCM     c1  468   3.678   3.786   3.237
   61TCM    cl1  469   3.627   3.632   3.313
   61TCM    cl2  470   3.857   3.801   3.249
   61TCM     h1  471   3.648   3.787   3.132
   61TCM    cl3  472   3.601   3.923   3.324
   62TCM     c1  473   0.714   0.714   3.055
   62TCM    cl1  474   0.748   0.882   3.108
   62TCM    cl2  475   0.542   0.698   3.008
   62TCM     h1  476   0.778   0.689   2.970
   62TCM    cl3  477   0.749   0.602   3.192
   63TCM     c1  478   2.988   2.550   2.740
   63TCM    cl1  479   3.071   2.589   2.894
   63TCM    cl2  480   2.868   2.678   2.703
   63TCM     h1  481   3.062   2.544   2.660
   63TCM    cl3  482   2.903   2.392   2.755
   64TCM     c1  483   3.764   2.200   2.393
   64TCM    cl1  484   3.664   2.081   2.303
   64TCM    cl2  485   3.693   2.227   2.555
   64TCM     h1  486   3.866   2.161   2.404
   64TCM    cl3  487   3.768   2.354   2.302
   65TCM     c1  488   0.076   0.396   2.395
   65TCM    cl1  489   0.095   0.465   2.560
   65TCM    cl2  490   0.181   0.486   2.281
   65TCM     h1  491   0.104   0.291   2.397
   65TCM    cl3  492  -0.095   0.411   2.343
   66TCM     c1  493   0.360   0.111   2.879
   66TCM    cl1  494   0.366  -0.067   2.859
   66TCM    cl2  495   0.291   0.184   2.731
   66TCM     h1  496   0.298   0.136   2.966
   66TCM    cl3  497   0.527   0.174   2.903
   67TCM     c1  498   0.139   3.458   1.026
   67TCM    cl1  499   0.071   3.590   0.925
   67TCM    cl2  500   0.052   3.454   1.183
   67TCM     h1  501   0.127   3.362   0.975
   67TCM    cl3  502   0.313   3.489   1.056
   68TCM     c1  503   1.488   3.359   0.870
   68TCM    cl1  504   1.508   3.409   1.042
   68TCM    cl2  505   1.464   3.506   0.770
   68TCM     h1  506   1.577   3.306   0.836
   68TCM    cl3  507   1.344   3.253   0.856
   69TCM     c1  508   2.783   4.391   3.928
   69TCM    cl1  509   2.633   4.490   3.939
   69TCM    cl2  510   2.847   4.399   3.761
   69TCM     h1  511   2.857   4.430   3.998
   69TCM    cl3  512   2.744   4.221   3.969
   70TCM     c1  513   4.583   1.391   0.304
   70TCM    cl1  514   4.473   1.251   0.329
   70TCM    cl2  515   4.517   1.532   0.393
   70TCM     h1  516   4.682   1.367   0.342
   70TCM    cl3  517   4.593   1.430   0.130
   71TCM     c1  518   2.972   4.448   4.384
   71TCM    cl1  519   3.057   4.297   4.429
   71TCM    cl2  520   2.840   4.408   4.269
   71TCM     h1  521   2.929   4.494   4.473
   71TCM    cl3  522   3.088   4.562   4.307
   72TCM     c1  523   3.714   4.000   2.084
   72TCM    cl1  524   3.563   4.097   2.086
   72TCM    cl2  525   3.721   3.899   2.231
   72TCM     h1  526   3.715   3.936   1.995
   72TCM    cl3  527   3.856   4.110   2.080
   73TCM     c1  528   0.947   0.219   3.239
   73TCM    cl1  529   0.869   0.295   3.381
   73TCM    cl2  530   0.861   0.269   3.089
   73TCM     h1  531   1.052   0.251   3.234
   73TCM    cl3  532   0.941   0.041   3.253
   74TCM     c1  533   0.930   1.283   2.580
   74TCM    cl1  534   0.963   1.457   2.551
   74TCM    cl2  535   0.784   1.235   2.487
   74TCM     h1  536   1.016   1.224   2.548
   74TCM    cl3  537   0.901   1.257   2.755
   75TCM     c1  538   1.029   0.366   2.199
   75TCM    cl1  539   1.050   0.250   2.063
   75TCM    cl2  540   0.989   0.527   2.132
   75TCM     h1  541   0.947   0.332   2.263
   75TCM    cl3  542   1.181   0.377   2.294
   76TCM     c1  543   2.959   0.933   3.754
   76TCM    cl1  544   2.851   0.956   3.896
   76TCM    cl2  545   2.877   0.995   3.607
   76TCM     h1  546   3.052   0.988   3.770
   76TCM    cl3  547   2.995   0.758   3.734
   77TCM     c1  548   4.662   4.876   0.867
   77TCM    cl1  549   4.810   4.972   0.835
   77TCM    cl2  550   4.595   4.921   1.027
   77TCM     h1  551   4.588   4.897   0.789
   77TCM    cl3  552   4.702   4.701   0.866
   78TCM     c1  553   0.530   4.148   0.371
   78TCM    cl1  554   0.379   4.243   0.361
   78TCM    cl2  555   0.575   4.087   0.209
   78TCM     h1  556   0.611   4.210   0.410
   78TCM    cl3  557   0.503   4.009   0.482
   79TCM     c1  558   2.531   3.315   2.087
   79TCM    cl1  559   2.649   3.384   1.971
   79TCM    cl2  560   2.515   3.139   2.055
   79TCM     h1  561   2.567   3.330   2.190
   79TCM    cl3  562   2.372   3.396   2.066
   80TCM     c1  563   0.431   2.914   0.862
   80TCM    cl1  564   0.578   2.896   0.963
   80TCM    cl2  565   0.393   3.088   0.840
   80TCM     h1  566   0.447   2.867   0.765
   80TCM    cl3  567   0.293   2.833   0.944
   81TCM     c1  568   3.212   3.456   0.869
   81TCM    cl1  569   3.201   3.368   1.025
   81TCM    cl2  570   3.187   3.631   0.898
   81TCM     h1  571   3.311   3.440   0.825
   81TCM    cl3  572   3.086   3.395   0.757
   82TCM     c1  573   3.072   2.921   4.785
   82TCM    cl1  574   3.092   2.780   4.894
   82TCM    cl2  575   3.000   3.057   4.878
   82TCM     h1  576   3.170   2.951   4.745
   82TCM    cl3  577   2.963   2.876   4.650
   83TCM     c1  578   0.935   0.910   1.912
   83TCM    cl1  579   0.993   1.069   1.850
   83TCM    cl2  580   0.998   0.886   2.078
   83TCM     h1  581   0.826   0.909   1.913
   83TCM    cl3  582   0.996   0.779   1.806
   84TCM     c1  583   1.721   2.358   4.692
   84TCM    cl1  584   1.636   2.515   4.682
   84TCM    cl2  585   1.874   2.368   4.599
   84TCM     h1  586   1.743   2.334   4.797
   84TCM    cl3  587   1.617   2.230   4.621
   85TCM     c1  588   2.249   3.902   3.926
   85TCM    cl1  589   2.105   3.864   3.826
   85TCM    cl2  590   2.373   3.774   3.904
   85TCM     h1  591   2.290   3.999   3.895
   85TCM    cl3  592   2.202   3.908   4.099
   86TCM     c1  593   0.782   4.959   4.898
   86TCM    cl1  594   0.922   4.900   4.803
   86TCM    cl2  595   0.842   5.038   5.048
   86TCM     h1  596   0.725   5.032   4.839
   86TCM    cl3  597   0.676   4.821   4.943
   87TCM     c1  598   1.188   0.579   3.081
   87TCM    cl1  599   1.257   0.743   3.099
   87TCM    cl2  600   1.046   0.586   2.971
   87TCM     h1  601   1.263   0.512   3.038
   87TCM    cl3  602   1.137   0.515   3.240
   88TCM     c1  603   4.487   2.865   3.137
   88TCM    cl1  604   4.344   2.757   3.133
   88TCM    cl2  605   4.614   2.799   3.028
   88TCM     h1  606   4.459   2.965   3.103
   88TCM    cl3  607   4.551   2.874   3.304
   89TCM     c1  608   3.123   4.712   0.145
   89TCM    cl1  609   2.997   4.799   0.239
   89TCM    cl2  610   3.149   4.793  -0.012
   89TCM     h1  611   3.216   4.710   0.202
   89TCM    cl3  612   3.066   4.545   0.114
   90TCM     c1  613   1.719   4.997   3.519
   90TCM    cl1  614   1.659   4.957   3.354
   90TCM    cl2  615   1.603   5.110   3.597
   90TCM     h1  616   1.727   4.906   3.578
   90TCM    cl3  617   1.879   5.076   3.507
   91TCM     c1  618   0.835   0.695   3.944
   91TCM    cl1  619   0.805   0.536   4.022
   91TCM    cl2  620   0.678   0.774   3.907
   91TCM     h1  621   0.893   0.758   4.011
   91TCM    cl3  622   0.926   0.670   3.791
   92TCM     c1  623   2.300   4.839   2.255
   92TCM    cl1  624   2.193   4.964   2.328
   92TCM    cl2  625   2.354   4.894   2.093
   92TCM     h1  626   2.386   4.823   2.320
   92TCM    cl3  627   2.209   4.685   2.239
   93TCM     c1  628   1.101   1.233   2.162
   93TCM    cl1  629   0.937   1.306   2.161
   93TCM    cl2  630   1.175   1.257   2.323
   93TCM     h1  631   1.093   1.126   2.141
   93TCM    cl3  632   1.202   1.312   2.037
   94TCM     c1  633   1.333   1.475   4.931
   94TCM    cl1  634   1.305   1.519   4.759
   94TCM    cl2  635   1.510   1.463   4.962
   94TCM     h1  636   1.290   1.551   4.996
   94TCM    cl3  637   1.256   1.316   4.965
   95TCM     c1  638   4.274   2.931   2.291
   95TCM    cl1  639   4.365   3.078   2.341
   95TCM    cl2  640   4.197   2.856   2.435
   95TCM     h1  641   4.197   2.959   2.219
   95TCM    cl3  642   4.386   2.812   2.217
   96TCM     c1  643   2.960   4.661   1.205
   96TCM    cl1  644   2.857   4.719   1.070
   96TCM    cl2  645   2.962   4.481   1.206
   96TCM     h1  646   3.062   4.698   1.192
   96TCM    cl3  647   2.893   4.721   1.360
   97TCM     c1  648   4.433   2.420   2.962
   97TCM    cl1  649   4.570   2.447   3.075
   97TCM    cl2  650   4.294   2.348   3.050
   97TCM     h1  651   4.403   2.515   2.918
   97TCM    cl3  652   4.484   2.307   2.832
   98TCM     c1  653   4.059   0.499   3.589
   98TCM    cl1  654   4.108   0.372   3.706
   98TCM    cl2  655   4.140   0.468   3.432
   98TCM     h1  656   3.951   0.498   3.576
   98TCM    cl3  657   4.111   0.659   3.652
   99TCM     c1  658   4.104   0.915   3.136
   99TCM    cl1  659   3.958   1.014   3.107
   99TCM    cl2  660   4.065   0.786   3.254
   99TCM     h1  661   4.137   0.870   3.042
   99TCM    cl3  662   4.235   1.019   3.201
  100TCM     c1  663   2.058   0.177   3.145
  100TCM    cl1  664   1.993   0.279   3.013
  100TCM    cl2  665   2.229   0.134   3.111
  100TCM     h1  666   2.052   0.232   3.240
  100TCM    cl3  667   1.961   0.027   3.157
  101TCM     c1  668   0.270   4.226   3.355
  101TCM    cl1  669   0.232   4.385   3.428
  101TCM    cl2  670   0.248   4.097   3.478
  101TCM     h1  671   0.202   4.207   3.271
  101TCM    cl3  672   0.440   4.224   3.298
  102TCM     c1  673   0.261   1.691   4.811
  102TCM    cl1  674   0.349   1.627   4.954
  102TCM    cl2  675   0.260   1.567   4.682
  102TCM     h1  676   0.158   1.715   4.839
  102TCM    cl3  677   0.342   1.840   4.752
  103TCM     c1  678   1.015   4.673   0.192
  103TCM    cl1  679   1.113   4.822   0.178
  103TCM    cl2  680   0.994   4.602   0.029
  103TCM     h1  681   1.067   4.601   0.257
  103TCM    cl3  682   0.854   4.712   0.260
  104TCM     c1  683   0.467   1.925   1.008
  104TCM    cl1  684   0.624   1.840   1.024
  104TCM    cl2  685   0.388   1.877   0.854
  104TCM     h1  686   0.402   1.899   1.092
  104TCM    cl3  687   0.496   2.102   1.009
  105TCM     c1  688   4.713   1.429   2.280
  105TCM    cl1  689   4.884   1.432   2.333
  105TCM    cl2  690   4.646   1.264   2.299
  105TCM     h1  691   4.655   1.500   2.340
  105TCM    cl3  692   4.704   1.476   2.106
  106TCM     c1  693   2.961   1.061   2.477
  106TCM    cl1  694   2.797   0.995   2.508
  106TCM    cl2  695   2.950   1.195   2.359
  106TCM     h1  696   3.003   1.098   2.571
  106TCM    cl3  697   3.065   0.933   2.409
  107TCM     c1  698   3.166   0.273   2.713
  107TCM    cl1  699   3.110   0.262   2.883
  107TCM    cl2  700   3.254   0.428   2.691
  107TCM     h1  701   3.233   0.190   2.691
  107TCM    cl3  702   3.025   0.268   2.603
  108TCM     c1  703   2.209   4.508   0.934
  108TCM    cl1  704   2.257   4.676   0.978
  108TCM    cl2  705   2.135   4.509   0.771
  108TCM     h1  706   2.298   4.445   0.933
  108TCM    cl3  707   2.092   4.446   1.054
  109TCM     c1  708   0.188   3.164   3.919
  109TCM    cl1  709   0.193   3.332   3.857
  109TCM    cl2  710   0.348   3.087   3.897
  109TCM     h1  711   0.163   3.165   4.026
  109TCM    cl3  712   0.063   3.071   3.829
  110TCM     c1  713   2.574   4.666   1.659
  110TCM    cl1  714   2.513   4.797   1.765
  110TCM    cl2  715   2.480   4.516   1.688
  110TCM     h1  716   2.564   4.696   1.555
  110TCM    cl3  717   2.747   4.636   1.697
  111TCM     c1  718   2.505   4.679   3.489
  111TCM    cl1  719   2.345   4.695   3.570
  111TCM    cl2  720   2.631   4.651   3.613
  111TCM     h1  721   2.502   4.595   3.419
  111TCM    cl3  722   2.541   4.831   3.402
  112TCM     c1  723   3.518   3.496   4.590
  112TCM    cl1  724   3.411   3.520   4.449
  112TCM    cl2  725   3.663   3.601   4.572
  112TCM     h1  726   3.465   3.523   4.682
  112TCM    cl3  727   3.570   3.325   4.598
  113TCM     c1  728   1.736   4.964   4.533
  113TCM    cl1  729   1.597   4.851   4.540
  113TCM    cl2  730   1.714   5.078   4.396
  113TCM     h1  731   1.742   5.021   4.626
  113TCM    cl3  732   1.888   4.872   4.509
  114TCM     c1  733   3.378   3.670   1.849
  114TCM    cl1  734   3.276   3.574   1.962
  114TCM    cl2  735   3.509   3.750   1.942
  114TCM     h1  736   3.421   3.604   1.774
  114TCM    cl3  737   3.276   3.795   1.770
  115TCM     c1  738   0.277   2.654   2.060
  115TCM    cl1  739   0.445   2.650   2.125
  115TCM    cl2  740   0.277   2.592   1.892
  115TCM     h1  741   0.212   2.592   2.122
  115TCM    cl3  742   0.218   2.824   2.062
  116TCM     c1  743   1.931   0.738   3.361
  116TCM    cl1  744   1.934   0.884   3.258
  116TCM    cl2  745   2.017   0.604   3.280
  116TCM     h1  746   1.979   0.759   3.457
  116TCM    cl3  747   1.760   0.690   3.390
  117TCM     c1  748   1.613   4.571   3.419
  117TCM    cl1  749   1.499   4.624   3.290
  117TCM    cl2  750   1.591   4.396   3.450
  117TCM     h1  751   1.715   4.590   3.386
  117TCM    cl3  752   1.579   4.663   3.569
  118TCM     c1  753   1.387   3.177   3.212
  118TCM    cl1  754   1.464   3.099   3.355
  118TCM    cl2  755   1.428   3.083   3.065
  118TCM     h1  756   1.278   3.178   3.226
  118TCM    cl3  757   1.447   3.345   3.194
  119TCM     c1  758   4.911   2.255   2.133
  119TCM    cl1  759   4.773   2.357   2.188
  119TCM    cl2  760   4.982   2.170   2.274
  119TCM     h1  761   4.875   2.181   2.060
  119TCM    cl3  762   5.036   2.358   2.056
  120TCM     c1  763   2.535   1.209   1.750
  120TCM    cl1  764   2.498   1.283   1.910
  120TCM    cl2  765   2.698   1.261   1.697
  120TCM     h1  766   2.532   1.100   1.759
  120TCM    cl3  767   2.413   1.263   1.630
  121TCM     c1  768   1.256   0.053   3.524
  121TCM    cl1  769   1.090   0.069   3.592
  121TCM    cl2  770   1.279   0.174   3.393
  121TCM     h1  771   1.329   0.071   3.604
  121TCM    cl3  772   1.278  -0.112   3.458
  122TCM     c1  773   4.337   3.539   2.468
  122TCM    cl1  774   4.473   3.541   2.585
  122TCM    cl2  775   4.201   3.443   2.537
  122TCM     h1  776   4.303   3.641   2.449
  122TCM    cl3  777   4.391   3.463   2.315
  123TCM     c1  778   4.097   1.051   3.916
  123TCM    cl1  779   4.260   1.014   3.850
  123TCM    cl2  780   4.109   1.076   4.094
  123TCM     h1  781   4.058   1.142   3.869
  123TCM    cl3  782   3.986   0.914   3.883
  124TCM     c1  783   3.841   1.772   2.478
  124TCM    cl1  784   3.704   1.817   2.586
  124TCM    cl2  785   3.958   1.907   2.472
  124TCM     h1  786   3.890   1.683   2.517
  124TCM    cl3  787   3.778   1.740   2.313
  125TCM     c1  788   4.870   3.950   3.272
  125TCM    cl1  789   4.969   3.865   3.394
  125TCM    cl2  790   4.872   3.857   3.118
  125TCM     h1  791   4.767   3.959   3.307
  125TCM    cl3  792   4.937   4.114   3.244
  126TCM     c1  793   0.449   1.666   0.336
  126TCM    cl1  794   0.536   1.521   0.397
  126TCM    cl2  795   0.455   1.796   0.460
  126TCM     h1  796   0.497   1.701   0.244
  126TCM    cl3  797   0.278   1.623   0.304
  127TCM     c1  798   3.458   1.627   3.405
  127TCM    cl1  799   3.313   1.548   3.335
  127TCM    cl2  800   3.581   1.649   3.276
  127TCM     h1  801   3.432   1.724   3.448
  127TCM    cl3  802   3.526   1.520   3.533
  128TCM     c1  803   1.429   2.366   2.731
  128TCM    cl1  804   1.559   2.334   2.612
  128TCM    cl2  805   1.347   2.212   2.774
  128TCM     h1  806   1.472   2.410   2.822
  128TCM    cl3  807   1.310   2.479   2.659
  129TCM     c1  808   0.465   2.721   0.161
  129TCM    cl1  809   0.513   2.763  -0.007
  129TCM    cl2  810   0.605   2.741   0.272
  129TCM     h1  811   0.384   2.788   0.194
  129TCM    cl3  812   0.407   2.551   0.167
  130TCM     c1  813   0.665   4.454   4.989
  130TCM    cl1  814   0.599   4.462   5.155
  130TCM    cl2  815   0.532   4.433   4.871
  130TCM     h1  816   0.719   4.547   4.966
  130TCM    cl3  817   0.776   4.314   4.975
  131TCM     c1  818   4.831   4.376   0.123
  131TCM    cl1  819   4.918   4.346  -0.031
  131TCM    cl2  820   4.917   4.295   0.258
  131TCM     h1  821   4.825   4.484   0.142
  131TCM    cl3  822   4.665   4.309   0.108
  132TCM     c1  823   0.820   1.402   4.977
  132TCM    cl1  824   0.891   1.280   5.087
  132TCM    cl2  825   0.944   1.524   4.935
  132TCM     h1  826   0.784   1.353   4.886
  132TCM    cl3  827   0.683   1.483   5.060
  133TCM     c1  828   2.300   0.180   3.511
  133TCM    cl1  829   2.185   0.309   3.465
  133TCM    cl2  830   2.458   0.208   3.430
  133TCM     h1  831   2.315   0.180   3.620
  133TCM    cl3  832   2.234   0.021   3.460
  134TCM     c1  833   0.526   1.331   2.973
  134TCM    cl1  834   0.402   1.330   3.102
  134TCM    cl2  835   0.689   1.335   3.047
  134TCM     h1  836   0.516   1.242   2.911
  134TCM    cl3  837   0.505   1.477   2.870
  135TCM     c1  838   0.165   4.039   0.112
  135TCM    cl1  839   0.272   4.058  -0.031
  135TCM    cl2  840   0.238   3.921   0.225
  135TCM     h1  841   0.153   4.136   0.161
  135TCM    cl3  842   0.005   3.979   0.058
  136TCM     c1  843   4.239   1.150   2.066
  136TCM    cl1  844   4.330   1.300   2.024
  136TCM    cl2  845   4.064   1.188   2.071
  136TCM     h1  846   4.259   1.073   1.991
  136TCM    cl3  847   4.292   1.092   2.227
  137TCM     c1  848   1.326   0.721   2.010
  137TCM    cl1  849   1.480   0.702   2.100
  137TCM    cl2  850   1.292   0.571   1.918
  137TCM     h1  851   1.244   0.740   2.080
  137TCM    cl3  852   1.340   0.860   1.896
  138TCM     c1  853   2.256   1.912   3.052
  138TCM    cl1  854   2.273   2.065   3.145
  138TCM    cl2  855   2.173   1.789   3.153
  138TCM     h1  856   2.197   1.931   2.961
  138TCM    cl3  857   2.419   1.852   3.007
  139TCM     c1  858   2.632   3.503   3.689
  139TCM    cl1  859   2.713   3.647   3.758
  139TCM    cl2  860   2.503   3.448   3.801
  139TCM     h1  861   2.588   3.528   3.592
  139TCM    cl3  862   2.753   3.371   3.667
  140TCM     c1  863   0.602   1.310   3.577
  140TCM    cl1  864   0.662   1.300   3.409
  140TCM    cl2  865   0.424   1.292   3.579
  140TCM     h1  866   0.648   1.230   3.637
  140TCM    cl3  867   0.646   1.470   3.647
  141TCM     c1  868   0.615   4.326   1.859
  141TCM    cl1  869   0.465   4.361   1.768
  141TCM    cl2  870   0.612   4.411   2.017
  141TCM     h1  871   0.624   4.218   1.876
  141TCM    cl3  872   0.756   4.383   1.764
  142TCM     c1  873   3.609   4.154   2.551
  142TCM    cl1  874   3.766   4.180   2.468
  142TCM    cl2  875   3.588   3.979   2.585
  142TCM     h1  876   3.608   4.210   2.645
  142TCM    cl3  877   3.476   4.211   2.446
  143TCM     c1  878   0.586   2.456   3.224
  143TCM    cl1  879   0.633   2.481   3.053
  143TCM    cl2  880   0.551   2.282   3.250
  143TCM     h1  881   0.667   2.488   3.290
  143TCM    cl3  882   0.438   2.552   3.259
  144TCM     c1  883   1.570   3.765   1.560
  144TCM    cl1  884   1.564   3.857   1.406
  144TCM    cl2  885   1.521   3.870   1.696
  144TCM     h1  886   1.503   3.680   1.554
  144TCM    cl3  887   1.738   3.707   1.587
  145TCM     c1  888   1.689   1.413   2.665
  145TCM    cl1  889   1.597   1.560   2.714
  145TCM    cl2  890   1.609   1.267   2.732
  145TCM     h1  891   1.691   1.407   2.556
  145TCM    cl3  892   1.857   1.424   2.728
  146TCM     c1  893   3.995   4.996   3.798
  146TCM    cl1  894   3.996   4.845   3.701
  146TCM    cl2  895   4.164   5.034   3.846
  146TCM     h1  896   3.954   5.078   3.738
  146TCM    cl3  897   3.894   4.971   3.944
  147TCM     c1  898   0.087   4.440   4.627
  147TCM    cl1  899   0.140   4.489   4.462
  147TCM    cl2  900   0.038   4.587   4.717
  147TCM     h1  901   0.003   4.372   4.619
  147TCM    cl3  902   0.223   4.360   4.711
  148TCM     c1  903   1.059   1.676   0.353
  148TCM    cl1  904   1.156   1.668   0.202
  148TCM    cl2  905   1.164   1.644   0.495
  148TCM     h1  906   1.015   1.775   0.363
  148TCM    cl3  907   0.930   1.552   0.347
  149TCM     c1  908   2.754   2.857   0.060
  149TCM    cl1  909   2.678   2.853  -0.102
  149TCM    cl2  910   2.775   2.690   0.121
  149TCM     h1  911   2.852   2.906   0.055
  149TCM    cl3  912   2.648   2.947   0.173
  150TCM     c1  913   3.633   1.293   3.244
  150TCM    cl1  914   3.513   1.308   3.111
  150TCM    cl2  915   3.796   1.334   3.184
  150TCM     h1  916   3.605   1.361   3.325
  150TCM    cl3  917   3.633   1.124   3.306
  151TCM     c1  918   3.359   0.259   1.993
  151TCM    cl1  919   3.488   0.353   2.075
  151TCM    cl2  920   3.430   0.166   1.858
  151TCM     h1  921   3.312   0.191   2.065
  151TCM    cl3  922   3.235   0.373   1.930
  152TCM     c1  923   3.851   2.423   1.506
  152TCM    cl1  924   3.925   2.520   1.638
  152TCM    cl2  925   3.961   2.288   1.462
  152TCM     h1  926   3.755   2.383   1.539
  152TCM    cl3  927   3.826   2.527   1.362
  153TCM     c1  928   2.929   4.047   2.626
  153TCM    cl1  929   2.785   3.983   2.711
  153TCM    cl2  930   3.043   4.118   2.745
  153TCM     h1  931   2.979   3.965   2.572
  153TCM    cl3  932   2.879   4.173   2.509
  154TCM     c1  933   4.237   0.994   2.611
  154TCM    cl1  934   4.206   0.976   2.787
  154TCM    cl2  935   4.137   0.875   2.522
  154TCM     h1  936   4.211   1.095   2.579
  154TCM    cl3  937   4.411   0.965   2.577
  155TCM     c1  938   1.148   1.948   4.704
  155TCM    cl1  939   1.014   2.067   4.723
  155TCM    cl2  940   1.155   1.843   4.849
  155TCM     h1  941   1.130   1.887   4.615
  155TCM    cl3  942   1.303   2.036   4.686
  156TCM     c1  943   2.282   4.261   4.523
  156TCM    cl1  944   2.391   4.164   4.628
  156TCM    cl2  945   2.213   4.156   4.396
  156TCM     h1  946   2.202   4.304   4.584
  156TCM    cl3  947   2.375   4.393   4.445
  157TCM     c1  948   2.269   4.984   4.986
  157TCM    cl1  949   2.271   5.156   4.935
  157TCM    cl2  950   2.428   4.910   4.953
  157TCM     h1  951   2.247   4.978   5.093
  157TCM    cl3  952   2.143   4.895   4.894
  158TCM     c1  953   2.041   1.025   2.869
  158TCM    cl1  954   1.912   1.105   2.965
  158TCM    cl2  955   2.091   0.872   2.947
  158TCM     h1  956   2.003   1.003   2.769
  158TCM    cl3  957   2.182   1.136   2.856
  159TCM     c1  958   1.909   2.063   4.908
  159TCM    cl1  959   1.985   2.222   4.941
  159TCM    cl2  960   1.942   2.015   4.738
  159TCM     h1  961   1.949   1.987   4.976
  159TCM    cl3  962   1.732   2.076   4.931
  160TCM     c1  963   2.412   1.717   1.607
  160TCM    cl1  964   2.539   1.610   1.675
  160TCM    cl2  965   2.378   1.670   1.437
  160TCM     h1  966   2.321   1.708   1.667
  160TCM    cl3  967   2.469   1.887   1.611
  161TCM     c1  968   2.659   2.529   0.579
  161TCM    cl1  969   2.745   2.372   0.589
  161TCM    cl2  970   2.760   2.646   0.488
  161TCM     h1  971   2.564   2.516   0.528
  161TCM    cl3  972   2.630   2.591   0.745
  162TCM     c1  973   2.753   1.655   2.176
  162TCM    cl1  974   2.653   1.766   2.276
  162TCM    cl2  975   2.656   1.596   2.037
  162TCM     h1  976   2.841   1.709   2.139
  162TCM    cl3  977   2.806   1.516   2.275
  163TCM     c1  978   4.629   4.499   2.534
  163TCM    cl1  979   4.568   4.357   2.625
  163TCM    cl2  980   4.802   4.476   2.495
  163TCM     h1  981   4.572   4.511   2.442
  163TCM    cl3  982   4.609   4.647   2.635
  164TCM     c1  983   3.250   4.975   4.571
  164TCM    cl1  984   3.247   5.151   4.538
  164TCM    cl2  985   3.087   4.921   4.623
  164TCM     h1  986   3.279   4.921   4.480
  164TCM    cl3  987   3.369   4.940   4.700
  165TCM     c1  988   3.693   3.798   3.809
  165TCM    cl1  989   3.714   3.657   3.917
  165TCM    cl2  990   3.593   3.922   3.892
  165TCM     h1  991   3.791   3.841   3.785
  165TCM    cl3  992   3.611   3.746   3.658
  166TCM     c1  993   2.002   1.174   2.428
  166TCM    cl1  994   1.891   1.107   2.552
  166TCM    cl2  995   2.148   1.242   2.507
  166TCM     h1  996   2.032   1.095   2.359
  166TCM    cl3  997   1.918   1.304   2.338
  167TCM     c1  998   2.769   0.045   4.817
  167TCM    cl1  999   2.797  -0.057   4.962
  167TCM    cl2 1000   2.669   0.186   4.864
  167TCM     h1 1001   2.865   0.079   4.778
  167TCM    cl3 1002   2.683  -0.049   4.691
  168TCM     c1 1003   2.365   2.727   1.947
  168TCM    cl1 1004   2.470   2.769   2.087
  168TCM    cl2 1005   2.359   2.866   1.833
  168TCM     h1 1006   2.405   2.639   1.896
  168TCM    cl3 1007   2.199   2.693   2.006
  169TCM     c1 1008   0.929   4.639   1.549
  169TCM    cl1 1009   0.815   4.770   1.596
  169TCM    cl2 1010   1.097   4.701   1.551
  169TCM     h1 1011   0.920   4.556   1.620
  169TCM    cl3 1012   0.889   4.580   1.384
  170TCM     c1 1013   3.770   2.087   4.238
  170TCM    cl1 1014   3.627   1.989   4.285
  170TCM    cl2 1015   3.896   1.980   4.168
  170TCM     h1 1016   3.741   2.161   4.163
  170TCM    cl3 1017   3.836   2.171   4.382
  171TCM     c1 1018   1.864   4.680   4.831
  171TCM    cl1 1019   1.752   4.570   4.745
  171TCM    cl2 1020   1.905   4.610   4.991
  171TCM     h1 1021   1.955   4.693   4.772
  171TCM    cl3 1022   1.784   4.838   4.855
  172TCM     c1 1023   3.236   3.611   0.447
  172TCM    cl1 1024   3.142   3.476   0.377
  172TCM    cl2 1025   3.364   3.546   0.554
  172TCM     h1 1026   3.282   3.670   0.367
  172TCM    cl3 1027   3.126   3.716   0.542
  173TCM     c1 1028   4.827   1.199   0.586
  173TCM    cl1 1029   4.785   1.371   0.611
  173TCM    cl2 1030   4.861   1.169   0.412
  173TCM     h1 1031   4.916   1.174   0.645
  173TCM    cl3 1032   4.690   1.096   0.638
  174TCM     c1 1033   4.063   1.692   2.042
  174TCM    cl1 1034   4.197   1.658   1.927
  174TCM    cl2 1035   4.120   1.811   2.164
  174TCM     h1 1036   3.978   1.733   1.987
  174TCM    cl3 1037   4.015   1.540   2.124
  175TCM     c1 1038   3.833   1.675   0.067
  175TCM    cl1 1039   3.801   1.499   0.051
  175TCM    cl2 1040   3.679   1.758   0.108
  175TCM     h1 1041   3.906   1.692   0.145
  175TCM    cl3 1042   3.896   1.738  -0.089
  176TCM     c1 1043   3.828   3.181   4.812
  176TCM    cl1 1044   3.869   3.356   4.828
  176TCM    cl2 1045   3.723   3.132   4.949
  176TCM     h1 1046   3.776   3.165   4.717
  176TCM    cl3 1047   3.979   3.085   4.814
  177TCM     c1 1048   1.352   0.473   3.722
  177TCM    cl1 1049   1.335   0.639   3.790
  177TCM    cl2 1050   1.489   0.467   3.607
  177TCM     h1 1051   1.369   0.403   3.804
  177TCM    cl3 1052   1.201   0.431   3.636
  178TCM     c1 1053   3.153   0.090   1.266
  178TCM    cl1 1054   2.980   0.078   1.310
  178TCM    cl2 1055   3.177   0.234   1.162
  178TCM     h1 1056   3.214   0.099   1.357
  178TCM    cl3 1057   3.202  -0.058   1.177
  179TCM     c1 1058   1.159   0.181   3.961
  179TCM    cl1 1059   1.313   0.145   3.876
  179TCM    cl2 1060   1.152   0.357   3.998
  179TCM     h1 1061   1.075   0.154   3.898
  179TCM    cl3 1062   1.153   0.087   4.114
  180TCM     c1 1063   3.298   0.240   3.206
  180TCM    cl1 1064   3.356   0.403   3.160
  180TCM    cl2 1065   3.186   0.251   3.346
  180TCM     h1 1066   3.246   0.194   3.121
  180TCM    cl3 1067   3.439   0.139   3.251
  181TCM     c1 1068   2.144   0.643   4.212
  181TCM    cl1 1069   2.178   0.754   4.075
  181TCM    cl2 1070   1.987   0.685   4.287
  181TCM     h1 1071   2.141   0.540   4.176
  181TCM    cl3 1072   2.274   0.659   4.336
  182TCM     c1 1073   3.520   0.469   4.982
  182TCM    cl1 1074   3.685   0.399   4.992
  182TCM    cl2 1075   3.437   0.449   5.140
  182TCM     h1 1076   3.528   0.576   4.958
  182TCM    cl3 1077   3.427   0.386   4.854
  183TCM     c1 1078   1.681   1.919   2.627
  183TCM    cl1 1079   1.633   2.013   2.772
  183TCM    cl2 1080   1.856   1.880   2.640
  183TCM     h1 1081   1.624   1.826   2.624
  183TCM    cl3 1082   1.651   2.014   2.478
  184TCM     c1 1083   4.931   3.914   4.672
  184TCM    cl1 1084   4.953   3.867   4.500
  184TCM    cl2 1085   4.756   3.907   4.713
  184TCM     h1 1086   4.987   3.845   4.736
  184TCM    cl3 1087   4.991   4.081   4.697
  185TCM     c1 1088   0.720   0.927   2.680
  185TCM    cl1 1089   0.616   1.027   2.785
  185TCM    cl2 1090   0.635   0.775   2.642
  185TCM     h1 1091   0.741   0.981   2.587
  185TCM    cl3 1092   0.874   0.890   2.765
  186TCM     c1 1093   4.475   0.838   3.570
  186TCM    cl1 1094   4.454   0.734   3.715
  186TCM    cl2 1095   4.389   0.764   3.431
  186TCM     h1 1096   4.435   0.937   3.590
  186TCM    cl3 1097   4.650   0.849   3.533
  187TCM     c1 1098   0.140   4.457   0.568
  187TCM    cl1 1099   0.174   4.412   0.738
  187TCM    cl2 1100   0.276   4.559   0.509
  187TCM     h1 1101   0.132   4.367   0.507
  187TCM    cl3 1102  -0.012   4.551   0.561
  188TCM     c1 1103   0.616   3.169   0.132
  188TCM    cl1 1104   0.649   3.240   0.293
  188TCM    cl2 1105   0.449   3.101   0.131
  188TCM     h1 1106   0.624   3.246   0.054
  188TCM    cl3 1107   0.733   3.037   0.100
  189TCM     c1 1108   1.102   2.389   4.601
  189TCM    cl1 1109   1.252   2.396   4.699
  189TCM    cl2 1110   1.137   2.304   4.447
  189TCM     h1 1111   1.024   2.337   4.656
  189TCM    cl3 1112   1.048   2.557   4.565
  190TCM     c1 1113   0.863   3.094   0.543
  190TCM    cl1 1114   0.745   3.077   0.677
  190TCM    cl2 1115   0.852   2.951   0.436
  190TCM     h1 1116   0.841   3.185   0.486
  190TCM    cl3 1117   1.029   3.104   0.611
  191TCM     c1 1118   4.260   1.449   2.371
  191TCM    cl1 1119   4.381   1.553   2.289
  191TCM    cl2 1120   4.143   1.554   2.457
  191TCM     h1 1121   4.208   1.388   2.297
  191TCM    cl3 1122   4.342   1.343   2.490
  192TCM     c1 1123   2.050   0.218   4.332
  192TCM    cl1 1124   2.075   0.062   4.247
  192TCM    cl2 1125   1.941   0.323   4.235
  192TCM     h1 1126   2.004   0.199   4.430
  192TCM    cl3 1127   2.207   0.301   4.354
  193TCM     c1 1128   0.514   4.897   2.469
  193TCM    cl1 1129   0.549   4.739   2.547
  193TCM    cl2 1130   0.602   5.026   2.557
  193TCM     h1 1131   0.547   4.894   2.365
  193TCM    cl3 1132   0.338   4.928   2.476
  194TCM     c1 1133   1.921   4.556   4.335
  194TCM    cl1 1134   1.947   4.437   4.203
  194TCM    cl2 1135   2.013   4.504   4.480
  194TCM     h1 1136   1.954   4.655   4.303
  194TCM    cl3 1137   1.746   4.560   4.373
  195TCM     c1 1138   4.244   4.295   1.240
  195TCM    cl1 1139   4.200   4.271   1.067
  195TCM    cl2 1140   4.398   4.210   1.274
  195TCM     h1 1141   4.256   4.402   1.260
  195TCM    cl3 1142   4.114   4.230   1.345
  196TCM     c1 1143   1.071   2.476   0.428
  196TCM    cl1 1144   1.141   2.472   0.593
  196TCM    cl2 1145   1.182   2.393   0.314
  196TCM     h1 1146   0.974   2.425   0.427
  196TCM    cl3 1147   1.048   2.647   0.377
  197TCM     c1 1148   1.300   0.877   4.118
  197TCM    cl1 1149   1.158   0.771   4.089
  197TCM    cl2 1150   1.344   0.961   3.965
  197TCM     h1 1151   1.276   0.951   4.195
  197TCM    cl3 1152   1.438   0.776   4.172
  198TCM     c1 1153   1.675   1.492   0.608
  198TCM    cl1 1154   1.745   1.540   0.450
  198TCM    cl2 1155   1.625   1.320   0.602
  198TCM     h1 1156   1.750   1.506   0.687
  198TCM    cl3 1157   1.532   1.594   0.643
  199TCM     c1 1158   1.103   4.547   1.083
  199TCM    cl1 1159   0.999   4.407   1.042
  199TCM    cl2 1160   1.177   4.612   0.933
  199TCM     h1 1161   1.042   4.624   1.131
  199TCM    cl3 1162   1.232   4.494   1.196
  200TCM     c1 1163   4.980   2.672   2.460
  200TCM    cl1 1164   4.944   2.519   2.547
  200TCM    cl2 1165   4.988   2.638   2.284
  200TCM     h1 1166   4.902   2.745   2.480
  200TCM    cl3 1167   5.140   2.735   2.514
  201TCM     c1 1168   0.732   2.258   0.174
  201TCM    cl1 1169   0.608   2.271   0.045
  201TCM    cl2 1170   0.675   2.146   0.302
  201TCM     h1 1171   0.825   2.221   0.132
  201TCM    cl3 1172   0.760   2.420   0.247
  202TCM     c1 1173   3.539   4.494   3.307
  202TCM    cl1 1174   3.541   4.507   3.128
  202TCM    cl2 1175   3.595   4.330   3.356
  202TCM     h1 1176   3.606   4.569   3.350
  202TCM    cl3 1177   3.372   4.520   3.368
  203TCM     c1 1178   2.266   0.824   2.423
  203TCM    cl1 1179   2.402   0.941   2.416
  203TCM    cl2 1180   2.156   0.852   2.284
  203TCM     h1 1181   2.305   0.722   2.420
  203TCM    cl3 1182   2.174   0.851   2.575
  204TCM     c1 1183   0.634   4.447   4.338
  204TCM    cl1 1184   0.484   4.404   4.426
  204TCM    cl2 1185   0.670   4.621   4.363
  204TCM     h1 1186   0.717   4.386   4.376
  204TCM    cl3 1187   0.611   4.414   4.164
  205TCM     c1 1188   2.019   4.565   3.635
  205TCM    cl1 1189   2.038   4.645   3.795
  205TCM    cl2 1190   1.955   4.685   3.517
  205TCM     h1 1191   2.116   4.528   3.601
  205TCM    cl3 1192   1.903   4.429   3.649
  206TCM     c1 1193   1.211   4.961   1.123
  206TCM    cl1 1194   1.098   4.878   1.234
  206TCM    cl2 1195   1.240   5.128   1.180
  206TCM     h1 1196   1.306   4.906   1.120
  206TCM    cl3 1197   1.139   4.967   0.959
  207TCM     c1 1198   2.434   3.112   1.048
  207TCM    cl1 1199   2.511   3.024   1.184
  207TCM    cl2 1200   2.540   3.100   0.903
  207TCM     h1 1201   2.337   3.068   1.025
  207TCM    cl3 1202   2.413   3.284   1.094
  208TCM     c1 1203   1.044   3.440   0.748
  208TCM    cl1 1204   1.136   3.492   0.603
  208TCM    cl2 1205   0.870   3.431   0.708
  208TCM     h1 1206   1.080   3.342   0.781
  208TCM    cl3 1207   1.069   3.560   0.880
  209TCM     c1 1208   3.830   2.167   1.980
  209TCM    cl1 1209   3.991   2.237   2.017
  209TCM    cl2 1210   3.838   1.989   1.996
  209TCM     h1 1211   3.756   2.207   2.050
  209TCM    cl3 1212   3.784   2.210   1.812
  210TCM     c1 1213   2.678   2.170   0.973
  210TCM    cl1 1214   2.665   2.089   0.813
  210TCM    cl2 1215   2.784   2.313   0.958
  210TCM     h1 1216   2.578   2.200   1.007
  210TCM    cl3 1217   2.749   2.055   1.091
  211TCM     c1 1218   2.726   3.131   3.996
  211TCM    cl1 1219   2.762   3.299   4.047
  211TCM    cl2 1220   2.840   3.083   3.866
  211TCM     h1 1221   2.737   3.064   4.081
  211TCM    cl3 1222   2.558   3.122   3.934
  212TCM     c1 1223   1.075   2.851   4.289
  212TCM    cl1 1224   1.177   2.877   4.434
  212TCM    cl2 1225   0.903   2.877   4.332
  212TCM     h1 1226   1.104   2.922   4.211
  212TCM    cl3 1227   1.096   2.683   4.228
  213TCM     c1 1228   1.477   2.728   3.043
  213TCM    cl1 1229   1.399   2.720   3.205
  213TCM    cl2 1230   1.350   2.736   2.916
  213TCM     h1 1231   1.539   2.817   3.038
  213TCM    cl3 1232   1.578   2.582   3.018
  214TCM     c1 1233   3.695   4.539   3.735
  214TCM    cl1 1234   3.534   4.467   3.701
  214TCM    cl2 1235   3.678   4.678   3.847
  214TCM     h1 1236   3.760   4.463   3.780
  214TCM    cl3 1237   3.766   4.595   3.580
  215TCM     c1 1238   0.275   3.106   0.494
  215TCM    cl1 1239   0.416   2.995   0.481
  215TCM    cl2 1240   0.169   3.088   0.351
  215TCM     h1 1241   0.219   3.083   0.585
  215TCM    cl3 1242   0.334   3.276   0.502
  216TCM     c1 1243   1.413   2.181   0.025
  216TCM    cl1 1244   1.461   2.156   0.196
  216TCM    cl2 1245   1.485   2.335  -0.033
  216TCM     h1 1246   1.448   2.098  -0.036
  216TCM    cl3 1247   1.234   2.192   0.014
  217TCM     c1 1248   0.378   1.930   2.661
  217TCM    cl1 1249   0.325   1.822   2.528
  217TCM    cl2 1250   0.531   2.012   2.614
  217TCM     h1 1251   0.301   2.004   2.681
  217TCM    cl3 1252   0.406   1.832   2.809
  218TCM     c1 1253   3.734   0.124   4.626
  218TCM    cl1 1254   3.723  -0.029   4.533
  218TCM    cl2 1255   3.697   0.093   4.799
  218TCM     h1 1256   3.835   0.165   4.617
  218TCM    cl3 1257   3.616   0.242   4.561
  219TCM     c1 1258   2.054   2.395   1.705
  219TCM    cl1 1259   2.072   2.247   1.604
  219TCM    cl2 1260   1.940   2.508   1.627
  219TCM     h1 1261   2.017   2.367   1.804
  219TCM    cl3 1262   2.214   2.474   1.721
  220TCM     c1 1263   3.753   0.422   3.915
  220TCM    cl1 1264   3.761   0.294   3.789
  220TCM    cl2 1265   3.582   0.444   3.966
  220TCM     h1 1266   3.813   0.394   4.001
  220TCM    cl3 1267   3.814   0.576   3.845
  221TCM     c1 1268   0.316   3.567   1.420
  221TCM    cl1 1269   0.458   3.677   1.415
  221TCM    cl2 1270   0.216   3.604   1.564
  221TCM     h1 1271   0.256   3.581   1.329
  221TCM    cl3 1272   0.373   3.397   1.428
  222TCM     c1 1273   0.247   1.373   0.688
  222TCM    cl1 1274   0.115   1.345   0.806
  222TCM    cl2 1275   0.305   1.542   0.701
  222TCM     h1 1276   0.330   1.304   0.709
  222TCM    cl3 1277   0.185   1.344   0.523
  223TCM     c1 1278   3.466   2.430   2.759
  223TCM    cl1 1279   3.548   2.573   2.688
  223TCM    cl2 1280   3.313   2.399   2.671
  223TCM     h1 1281   3.532   2.343   2.751
  223TCM    cl3 1282   3.430   2.461   2.932
  224TCM     c1 1283   0.335   4.572   2.795
  224TCM    cl1 1284   0.384   4.410   2.737
  224TCM    cl2 1285   0.280   4.562   2.965
  224TCM     h1 1286   0.420   4.641   2.788
  224TCM    cl3 1287   0.202   4.634   2.692
  225TCM     c1 1288   0.230   4.427   2.386
  225TCM    cl1 1289   0.133   4.571   2.342
  225TCM    cl2 1290   0.404   4.460   2.351
  225TCM     h1 1291   0.218   4.406   2.492
  225TCM    cl3 1292   0.176   4.287   2.289
  226TCM     c1 1293   0.281   2.391   2.514
  226TCM    cl1 1294   0.220   2.226   2.547
  226TCM    cl2 1295   0.280   2.421   2.338
  226TCM     h1 1296   0.217   2.464   2.565
  226TCM    cl3 1297   0.449   2.406   2.576
  227TCM     c1 1298   0.596   3.793   2.943
  227TCM    cl1 1299   0.476   3.682   3.018
  227TCM    cl2 1300   0.758   3.718   2.949
  227TCM     h1 1301   0.568   3.812   2.839
  227TCM    cl3 1302   0.598   3.948   3.033
  228TCM     c1 1303   2.400   0.319   3.929
  228TCM    cl1 1304   2.390   0.432   4.067
  228TCM    cl2 1305   2.384   0.412   3.776
  228TCM     h1 1306   2.497   0.267   3.931
  228TCM    cl3 1307   2.267   0.199   3.939
  229TCM     c1 1308   1.887   1.675   2.324
  229TCM    cl1 1309   1.917   1.848   2.288
  229TCM    cl2 1310   1.718   1.655   2.381
  229TCM     h1 1311   1.902   1.616   2.233
  229TCM    cl3 1312   2.000   1.621   2.451
  230TCM     c1 1313   0.625   2.982   2.216
  230TCM    cl1 1314   0.717   3.132   2.253
  230TCM    cl2 1315   0.571   2.987   2.045
  230TCM     h1 1316   0.690   2.896   2.232
  230TCM    cl3 1317   0.482   2.971   2.324
  231TCM     c1 1318   4.721   3.576   2.907
  231TCM    cl1 1319   4.793   3.676   2.777
  231TCM    cl2 1320   4.693   3.410   2.846
  231TCM     h1 1321   4.789   3.573   2.993
  231TCM    cl3 1322   4.565   3.650   2.957
  232TCM     c1 1323   4.215   0.739   4.468
  232TCM    cl1 1324   4.329   0.734   4.607
  232TCM    cl2 1325   4.184   0.909   4.422
  232TCM     h1 1326   4.260   0.686   4.383
  232TCM    cl3 1327   4.061   0.660   4.514
  233TCM     c1 1328   0.225   2.891   4.482
  233TCM    cl1 1329   0.365   2.962   4.394
  233TCM    cl2 1330   0.123   3.024   4.547
  233TCM     h1 1331   0.166   2.830   4.413
  233TCM    cl3 1332   0.285   2.789   4.617
  234TCM     c1 1333   0.857   1.865   0.067
  234TCM    cl1 1334   0.753   1.809   0.202
  234TCM    cl2 1335   0.969   1.990   0.128
  234TCM     h1 1336   0.914   1.781   0.027
  234TCM    cl3 1337   0.754   1.936  -0.062
  235TCM     c1 1338   1.974   1.940   1.773
  235TCM    cl1 1339   1.806   1.909   1.719
  235TCM    cl2 1340   2.088   1.853   1.666
  235TCM     h1 1341   1.995   2.047   1.770
  235TCM    cl3 1342   1.995   1.881   1.942
  236TCM     c1 1343   2.511   4.271   3.676
  236TCM    cl1 1344   2.372   4.379   3.711
  236TCM    cl2 1345   2.567   4.303   3.509
  236TCM     h1 1346   2.592   4.290   3.746
  236TCM    cl3 1347   2.457   4.100   3.692
  237TCM     c1 1348   3.251   0.332   1.571
  237TCM    cl1 1349   3.150   0.191   1.615
  237TCM    cl2 1350   3.155   0.440   1.465
  237TCM     h1 1351   3.282   0.386   1.660
  237TCM    cl3 1352   3.396   0.274   1.481
  238TCM     c1 1353   2.392   4.570   4.831
  238TCM    cl1 1354   2.222   4.556   4.775
  238TCM    cl2 1355   2.495   4.629   4.696
  238TCM     h1 1356   2.398   4.639   4.915
  238TCM    cl3 1357   2.450   4.408   4.885
  239TCM     c1 1358   2.661   1.589   3.023
  239TCM    cl1 1359   2.659   1.580   3.202
  239TCM    cl2 1360   2.727   1.436   2.956
  239TCM     h1 1361   2.560   1.605   2.986
  239TCM    cl3 1362   2.767   1.726   2.975
  240TCM     c1 1363   0.736   1.719   4.581
  240TCM    cl1 1364   0.654   1.641   4.720
  240TCM    cl2 1365   0.914   1.696   4.597
  240TCM     h1 1366   0.702   1.674   4.488
  240TCM    cl3 1367   0.698   1.894   4.580
  241TCM     c1 1368   3.146   0.736   2.874
  241TCM    cl1 1369   3.300   0.698   2.957
  241TCM    cl2 1370   3.182   0.826   2.723
  241TCM     h1 1371   3.093   0.643   2.850
  241TCM    cl3 1372   3.044   0.839   2.980
  242TCM     c1 1373   3.568   0.582   1.574
  242TCM    cl1 1374   3.712   0.690   1.572
  242TCM    cl2 1375   3.418   0.679   1.558
  242TCM     h1 1376   3.574   0.511   1.491
  242TCM    cl3 1377   3.563   0.492   1.729
  243TCM     c1 1378   0.546   4.959   0.276
  243TCM    cl1 1379   0.666   4.988   0.406
  243TCM    cl2 1380   0.413   5.078   0.291
  243TCM     h1 1381   0.595   4.970   0.178
  243TCM    cl3 1382   0.480   4.794   0.293
  244TCM     c1 1383   0.547   3.592   3.786
  244TCM    cl1 1384   0.638   3.714   3.881
  244TCM    cl2 1385   0.537   3.438   3.878
  244TCM     h1 1386   0.446   3.629   3.765
  244TCM    cl3 1387   0.633   3.561   3.632
  245TCM     c1 1388   0.170   4.129   4.275
  245TCM    cl1 1389   0.252   4.117   4.434
  245TCM    cl2 1390   0.261   4.244   4.172
  245TCM     h1 1391   0.167   4.031   4.227
  245TCM    cl3 1392   0.003   4.189   4.300
  246TCM     c1 1393   3.655   1.719   0.482
  246TCM    cl1 1394   3.731   1.882   0.475
  246TCM    cl2 1395   3.608   1.683   0.651
  246TCM     h1 1396   3.566   1.718   0.418
  246TCM    cl3 1397   3.772   1.596   0.424
  247TCM     c1 1398   3.295   4.215   3.564
  247TCM    cl1 1399   3.155   4.185   3.672
  247TCM    cl2 1400   3.250   4.176   3.394
  247TCM     h1 1401   3.324   4.320   3.571
  247TCM    cl3 1402   3.432   4.111   3.613
  248TCM     c1 1403   1.882   4.508   3.101
  248TCM    cl1 1404   1.903   4.409   3.250
  248TCM    cl2 1405   2.035   4.508   3.008
  248TCM     h1 1406   1.802   4.465   3.040
  248TCM    cl3 1407   1.838   4.676   3.146
  249TCM     c1 1408   2.622   0.200   2.446
  249TCM    cl1 1409   2.674   0.168   2.615
  249TCM    cl2 1410   2.495   0.328   2.445
  249TCM     h1 1411   2.707   0.233   2.387
  249TCM    cl3 1412   2.555   0.049   2.376
  250TCM     c1 1413   3.292   1.885   3.868
  250TCM    cl1 1414   3.360   1.912   4.033
  250TCM    cl2 1415   3.423   1.832   3.758
  250TCM     h1 1416   3.215   1.809   3.873
  250TCM    cl3 1417   3.222   2.039   3.809
  251TCM     c1 1418   3.067   2.513   0.328
  251TCM    cl1 1419   3.165   2.551   0.183
  251TCM    cl2 1420   3.172   2.441   0.454
  251TCM     h1 1421   3.021   2.605   0.366
  251TCM    cl3 1422   2.938   2.396   0.284
  252TCM     c1 1423   1.525   0.073   4.972
  252TCM    cl1 1424   1.579   0.139   4.814
  252TCM    cl2 1425   1.351   0.029   4.960
  252TCM     h1 1426   1.584  -0.016   4.997
  252TCM    cl3 1427   1.546   0.199   5.098
  253TCM     c1 1428   0.669   1.605   1.754
  253TCM    cl1 1429   0.562   1.637   1.894
  253TCM    cl2 1430   0.822   1.530   1.812
  253TCM     h1 1431   0.619   1.537   1.684
  253TCM    cl3 1432   0.706   1.760   1.671
  254TCM     c1 1433   4.857   2.954   0.226
  254TCM    cl1 1434   4.858   2.775   0.224
  254TCM    cl2 1435   4.800   3.010   0.386
  254TCM     h1 1436   4.958   2.992   0.207
  254TCM    cl3 1437   4.746   3.015   0.099
  255TCM     c1 1438   0.475   1.575   3.949
  255TCM    cl1 1439   0.612   1.502   4.039
  255TCM    cl2 1440   0.407   1.713   4.042
  255TCM     h1 1441   0.510   1.611   3.852
  255TCM    cl3 1442   0.348   1.451   3.925
  256TCM     c1 1443   0.887   0.320   0.372
  256TCM    cl1 1444   0.734   0.311   0.279
  256TCM    cl2 1445   0.978   0.167   0.356
  256TCM     h1 1446   0.948   0.403   0.334
  256TCM    cl3 1447   0.849   0.348   0.545
  257TCM     c1 1448   3.538   4.741   4.955
  257TCM    cl1 1449   3.594   4.776   5.122
  257TCM    cl2 1450   3.457   4.581   4.954
  257TCM     h1 1451   3.467   4.818   4.923
  257TCM    cl3 1452   3.679   4.737   4.845
  258TCM     c1 1453   3.205   3.587   3.533
  258TCM    cl1 1454   3.045   3.625   3.605
  258TCM    cl2 1455   3.308   3.509   3.658
  258TCM     h1 1456   3.192   3.518   3.449
  258TCM    cl3 1457   3.284   3.738   3.476
  259TCM     c1 1458   2.788   4.185   3.027
  259TCM    cl1 1459   2.834   4.347   2.966
  259TCM    cl2 1460   2.659   4.203   3.150
  259TCM     h1 1461   2.752   4.124   2.944
  259TCM    cl3 1462   2.932   4.108   3.102
  260TCM     c1 1463   3.391   1.111   2.664
  260TCM    cl1 1464   3.258   1.213   2.600
  260TCM    cl2 1465   3.379   1.105   2.843
  260TCM     h1 1466   3.384   1.010   2.623
  260TCM    cl3 1467   3.548   1.185   2.620
  261TCM     c1 1468   4.322   1.875   0.022
  261TCM    cl1 1469   4.416   1.763   0.127
  261TCM    cl2 1470   4.162   1.906   0.098
  261TCM     h1 1471   4.377   1.969   0.011
  261TCM    cl3 1472   4.298   1.799  -0.139
  262TCM     c1 1473   2.986   2.087   0.619
  262TCM    cl1 1474   3.055   2.085   0.453
  262TCM    cl2 1475   3.083   2.197   0.722
  262TCM     h1 1476   2.883   2.122   0.615
  262TCM    cl3 1477   2.991   1.922   0.688
  263TCM     c1 1478   4.538   4.602   1.213
  263TCM    cl1 1479   4.655   4.468   1.190
  263TCM    cl2 1480   4.459   4.585   1.373
  263TCM     h1 1481   4.590   4.698   1.207
  263TCM    cl3 1482   4.412   4.593   1.085
  264TCM     c1 1483   4.460   0.531   3.143
  264TCM    cl1 1484   4.357   0.385   3.157
  264TCM    cl2 1485   4.361   0.666   3.077
  264TCM     h1 1486   4.499   0.559   3.242
  264TCM    cl3 1487   4.596   0.498   3.031
  265TCM     c1 1488   3.371   2.185   0.274
  265TCM    cl1 1489   3.482   2.325   0.257
  265TCM    cl2 1490   3.467   2.034   0.272
  265TCM     h1 1491   3.316   2.193   0.369
  265TCM    cl3 1492   3.255   2.185   0.137
  266TCM     c1 1493   1.730   0.047   2.877
  266TCM    cl1 1494   1.633   0.153   2.770
  266TCM    cl2 1495   1.873  -0.015   2.787
  266TCM     h1 1496   1.764   0.104   2.964
  266TCM    cl3 1497   1.630  -0.091   2.931
  267TCM     c1 1498   1.086   4.202   4.757
  267TCM    cl1 1499   1.228   4.207   4.648
  267TCM    cl2 1500   1.130   4.276   4.914
  267TCM     h1 1501   1.003   4.258   4.712
  267TCM    cl3 1502   1.036   4.031   4.782
  268TCM     c1 1503   0.018   0.005   4.359
  268TCM    cl1 1504  -0.028  -0.054   4.197
  268TCM    cl2 1505   0.080  -0.131   4.457
  268TCM     h1 1506   0.095   0.082   4.349
  268TCM    cl3 1507  -0.126   0.076   4.440
  269TCM     c1 1508   4.426   4.626   0.135
  269TCM    cl1 1509   4.287   4.681   0.235
  269TCM    cl2 1510   4.577   4.639   0.230
  269TCM     h1 1511   4.410   4.522   0.105
  269TCM    cl3 1512   4.438   4.730  -0.010
  270TCM     c1 1513   0.363   2.318   3.582
  270TCM    cl1 1514   0.507   2.424   3.592
  270TCM    cl2 1515   0.269   2.335   3.734
  270TCM     h1 1516   0.302   2.347   3.497
  270TCM    cl3 1517   0.416   2.147   3.563
  271TCM     c1 1518   3.961   1.245   1.698
  271TCM    cl1 1519   4.121   1.163   1.699
  271TCM    cl2 1520   3.975   1.402   1.784
  271TCM     h1 1521   3.929   1.262   1.595
  271TCM    cl3 1522   3.841   1.142   1.783
  272TCM     c1 1523   1.376   4.534   4.993
  272TCM    cl1 1524   1.470   4.687   5.006
  272TCM    cl2 1525   1.316   4.487   5.155
  272TCM     h1 1526   1.291   4.549   4.926
  272TCM    cl3 1527   1.481   4.405   4.928
  273TCM     c1 1528   3.486   0.889   3.643
  273TCM    cl1 1529   3.483   0.828   3.474
  273TCM    cl2 1530   3.501   0.750   3.755
  273TCM     h1 1531   3.571   0.956   3.656
  273TCM    cl3 1532   3.333   0.976   3.677
  274TCM     c1 1533   4.458   3.278   3.256
  274TCM    cl1 1534   4.597   3.219   3.158
  274TCM    cl2 1535   4.315   3.173   3.226
  274TCM     h1 1536   4.485   3.276   3.362
  274TCM    cl3 1537   4.418   3.446   3.207
  275TCM     c1 1538   1.370   0.413   0.343
  275TCM    cl1 1539   1.214   0.481   0.399
  275TCM    cl2 1540   1.477   0.383   0.484
  275TCM     h1 1541   1.352   0.319   0.290
  275TCM    cl3 1542   1.449   0.530   0.232
  276TCM     c1 1543   0.824   1.679   0.675
  276TCM    cl1 1544   0.930   1.712   0.817
  276TCM    cl2 1545   0.806   1.829   0.578
  276TCM     h1 1546   0.870   1.601   0.614
  276TCM    cl3 1547   0.663   1.624   0.731
  277TCM     c1 1548   3.301   2.809   2.434
  277TCM    cl1 1549   3.417   2.945   2.452
  277TCM    cl2 1550   3.230   2.771   2.594
  277TCM     h1 1551   3.222   2.838   2.365
  277TCM    cl3 1552   3.387   2.666   2.370
  278TCM     c1 1553   3.207   3.195   2.628
  278TCM    cl1 1554   3.299   3.287   2.505
  278TCM    cl2 1555   3.039   3.258   2.634
  278TCM     h1 1556   3.205   3.089   2.601
  278TCM    cl3 1557   3.285   3.215   2.788
  279TCM     c1 1558   1.107   0.970   0.146
  279TCM    cl1 1559   0.996   0.972   0.287
  279TCM    cl2 1560   1.012   0.943  -0.004
  279TCM     h1 1561   1.160   1.065   0.139
  279TCM    cl3 1562   1.225   0.836   0.167
  280TCM     c1 1563   3.104   0.059   0.586
  280TCM    cl1 1564   3.198   0.135   0.718
  280TCM    cl2 1565   2.940   0.016   0.645
  280TCM     h1 1566   3.096   0.128   0.502
  280TCM    cl3 1567   3.188  -0.091   0.532
  281TCM     c1 1568   1.905   3.255   0.884
  281TCM    cl1 1569   1.856   3.423   0.923
  281TCM    cl2 1570   1.793   3.141   0.965
  281TCM     h1 1571   1.901   3.240   0.776
  281TCM    cl3 1572   2.072   3.224   0.942
  282TCM     c1 1573   2.894   3.713   1.725
  282TCM    cl1 1574   2.938   3.858   1.629
  282TCM    cl2 1575   2.925   3.743   1.899
  282TCM     h1 1576   2.788   3.690   1.711
  282TCM    cl3 1577   2.993   3.573   1.673
  283TCM     c1 1578   4.577   0.095   4.054
  283TCM    cl1 1579   4.616  -0.016   4.189
  283TCM    cl2 1580   4.706   0.219   4.040
  283TCM     h1 1581   4.570   0.039   3.961
  283TCM    cl3 1582   4.420   0.175   4.088
  284TCM     c1 1583   4.858   2.573   4.620
  284TCM    cl1 1584   4.982   2.607   4.494
  284TCM    cl2 1585   4.921   2.449   4.734
  284TCM     h1 1586   4.837   2.665   4.675
  284TCM    cl3 1587   4.708   2.513   4.543
  285TCM     c1 1588   0.952   4.550   2.072
  285TCM    cl1 1589   0.969   4.643   1.920
  285TCM    cl2 1590   1.049   4.628   2.201
  285TCM     h1 1591   0.846   4.548   2.101
  285TCM    cl3 1592   1.010   4.382   2.045
  286TCM     c1 1593   0.012   4.967   0.358
  286TCM    cl1 1594  -0.136   4.866   0.367
  286TCM    cl2 1595   0.071   4.975   0.189
  286TCM     h1 1596  -0.011   5.068   0.393
  286TCM    cl3 1597   0.139   4.896   0.463
  287TCM     c1 1598   4.464   0.250   3.552
  287TCM    cl1 1599   4.590   0.148   3.473
  287TCM    cl2 1600   4.491   0.421   3.509
  287TCM     h1 1601   4.365   0.218   3.519
  287TCM    cl3 1602   4.476   0.231   3.730
  288TCM     c1 1603   3.592   0.026   4.133
  288TCM    cl1 1604   3.468  -0.015   4.256
  288TCM    cl2 1605   3.687   0.168   4.190
  288TCM     h1 1606   3.659  -0.059   4.118
  288TCM    cl3 1607   3.511   0.068   3.978
  289TCM     c1 1608   1.689   1.571   1.946
  289TCM    cl1 1609   1.708   1.454   2.081
  289TCM    cl2 1610   1.837   1.566   1.845
  289TCM     h1 1611   1.602   1.543   1.886
  289TCM    cl3 1612   1.666   1.736   2.013
  290TCM     c1 1613   0.359   0.096   1.497
  290TCM    cl1 1614   0.332   0.004   1.649
  290TCM    cl2 1615   0.219   0.204   1.467
  290TCM     h1 1616   0.450   0.155   1.505
  290TCM    cl3 1617   0.374  -0.020   1.360
  291TCM     c1 1618   3.409   1.546   2.669
  291TCM    cl1 1619   3.462   1.536   2.497
  291TCM    cl2 1620   3.341   1.708   2.701
  291TCM     h1 1621   3.333   1.470   2.687
  291TCM    cl3 1622   3.550   1.517   2.777
  292TCM     c1 1623   3.578   0.099   0.409
  292TCM    cl1 1624   3.655   0.118   0.248
  292TCM    cl2 1625   3.552  -0.075   0.442
  292TCM     h1 1626   3.644   0.141   0.486
  292TCM    cl3 1627   3.421   0.184   0.410
  293TCM     c1 1628   0.611   1.264   1.990
  293TCM    cl1 1629   0.575   1.259   1.814
  293TCM    cl2 1630   0.662   1.101   2.044
  293TCM     h1 1631   0.691   1.336   2.009
  293TCM    cl3 1632   0.464   1.314   2.079
  294TCM     c1 1633   2.967   3.601   1.200
  294TCM    cl1 1634   2.860   3.529   1.075
  294TCM    cl2 1635   3.003   3.476   1.324
  294TCM     h1 1636   3.060   3.634   1.153
  294TCM    cl3 1637   2.886   3.741   1.276
  295TCM     c1 1638   2.452   2.415   4.167
  295TCM    cl1 1639   2.473   2.253   4.092
  295TCM    cl2 1640   2.388   2.397   4.334
  295TCM     h1 1641   2.549   2.467   4.171
  295TCM    cl3 1642   2.336   2.511   4.070
  296TCM     c1 1643   0.434   2.291   0.661
  296TCM    cl1 1644   0.562   2.165   0.652
  296TCM    cl2 1645   0.277   2.213   0.700
  296TCM     h1 1646   0.459   2.364   0.739
  296TCM    cl3 1647   0.422   2.375   0.503
  297TCM     c1 1648   2.731   0.083   1.567
  297TCM    cl1 1649   2.846  -0.014   1.665
  297TCM    cl2 1650   2.616   0.167   1.676
  297TCM     h1 1651   2.786   0.156   1.507
  297TCM    cl3 1652   2.640  -0.028   1.458
  298TCM     c1 1653   2.434   3.507   0.132
  298TCM    cl1 1654   2.347   3.490  -0.024
  298TCM    cl2 1655   2.342   3.423   0.261
  298TCM     h1 1656   2.533   3.462   0.123
  298TCM    cl3 1657   2.450   3.681   0.172
  299TCM     c1 1658   0.365   3.256   4.729
  299TCM    cl1 1659   0.407   3.090   4.783
  299TCM    cl2 1660   0.447   3.289   4.573
  299TCM     h1 1661   0.257   3.264   4.716
  299TCM    cl3 1662   0.422   3.373   4.852
  300TCM     c1 1663   3.966   1.877   1.600
  300TCM    cl1 1664   3.903   1.754   1.714
  300TCM    cl2 1665   4.059   2.000   1.692
  300TCM     h1 1666   4.030   1.830   1.526
  300TCM    cl3 1667   3.826   1.955   1.518
  301TCM     c1 1668   2.178   2.676   2.444
  301TCM    cl1 1669   2.100   2.802   2.342
  301TCM    cl2 1670   2.280   2.570   2.341
  301TCM     h1 1671   2.241   2.725   2.519
  301TCM    cl3 1672   2.052   2.578   2.524
  302TCM     c1 1673   4.583   2.717   0.474
  302TCM    cl1 1674   4.730   2.624   0.522
  302TCM    cl2 1675   4.540   2.830   0.606
  302TCM     h1 1676   4.604   2.773   0.383
  302TCM    cl3 1677   4.448   2.602   0.446
  303TCM     c1 1678   0.333   4.107   1.490
  303TCM    cl1 1679   0.219   3.969   1.506
  303TCM    cl2 1680   0.343   4.158   1.318
  303TCM     h1 1681   0.297   4.190   1.551
  303TCM    cl3 1682   0.496   4.056   1.547
  304TCM     c1 1683   3.068   1.436   3.599
  304TCM    cl1 1684   3.098   1.280   3.681
  304TCM    cl2 1685   3.170   1.563   3.675
  304TCM     h1 1686   3.093   1.428   3.492
  304TCM    cl3 1687   2.895   1.480   3.616
  305TCM     c1 1688   0.828   3.648   2.180
  305TCM    cl1 1689   0.829   3.657   2.001
  305TCM    cl2 1690   0.852   3.478   2.231
  305TCM     h1 1691   0.908   3.711   2.220
  305TCM    cl3 1692   0.670   3.708   2.241
  306TCM     c1 1693   2.747   3.915   2.226
  306TCM    cl1 1694   2.834   4.022   2.111
  306TCM    cl2 1695   2.865   3.836   2.336
  306TCM     h1 1696   2.677   3.975   2.285
  306TCM    cl3 1697   2.657   3.789   2.136
  307TCM     c1 1698   1.362   2.555   2.192
  307TCM    cl1 1699   1.202   2.510   2.126
  307TCM    cl2 1700   1.343   2.654   2.340
  307TCM     h1 1701   1.419   2.465   2.215
  307TCM    cl3 1702   1.450   2.652   2.068
  308TCM     c1 1703   4.775   4.881   4.901
  308TCM    cl1 1704   4.895   4.928   4.777
  308TCM    cl2 1705   4.740   5.023   5.006
  308TCM     h1 1706   4.682   4.848   4.852
  308TCM    cl3 1707   4.840   4.748   5.001
  309TCM     c1 1708   4.396   4.756   2.361
  309TCM    cl1 1709   4.287   4.867   2.273
  309TCM    cl2 1710   4.534   4.711   2.255
  309TCM     h1 1711   4.434   4.806   2.450
  309TCM    cl3 1712   4.306   4.608   2.408
  310TCM     c1 1713   1.192   0.062   2.957
  310TCM    cl1 1714   1.212   0.236   2.999
  310TCM    cl2 1715   1.277  -0.038   3.080
  310TCM     h1 1716   1.086   0.037   2.956
  310TCM    cl3 1717   1.263   0.032   2.795
  311TCM     c1 1718   3.502   4.933   3.548
  311TCM    cl1 1719   3.653   4.986   3.629
  311TCM    cl2 1720   3.405   4.832   3.660
  311TCM     h1 1721   3.444   5.020   3.518
  311TCM    cl3 1722   3.545   4.836   3.403
  312TCM     c1 1723   3.588   2.067   4.820
  312TCM    cl1 1724   3.653   1.982   4.676
  312TCM    cl2 1725   3.717   2.081   4.945
  312TCM     h1 1726   3.554   2.166   4.792
  312TCM    cl3 1727   3.451   1.972   4.887
  313TCM     c1 1728   4.521   3.908   2.687
  313TCM    cl1 1729   4.668   3.988   2.623
  313TCM    cl2 1730   4.390   3.918   2.564
  313TCM     h1 1731   4.542   3.803   2.709
  313TCM    cl3 1732   4.468   3.992   2.837
  314TCM     c1 1733   4.815   3.047   2.234
  314TCM    cl1 1734   4.989   3.030   2.277
  314TCM    cl2 1735   4.735   3.159   2.350
  314TCM     h1 1736   4.806   3.086   2.133
  314TCM    cl3 1737   4.737   2.886   2.244
  315TCM     c1 1738   1.140   2.094   0.540
  315TCM    cl1 1739   0.970   2.147   0.517
  315TCM    cl2 1740   1.195   2.009   0.393
  315TCM     h1 1741   1.203   2.181   0.558
  315TCM    cl3 1742   1.149   1.983   0.680
  316TCM     c1 1743   0.883   1.761   3.791
  316TCM    cl1 1744   0.921   1.616   3.889
  316TCM    cl2 1745   0.982   1.899   3.847
  316TCM     h1 1746   0.905   1.741   3.686
  316TCM    cl3 1747   0.709   1.803   3.809
  317TCM     c1 1748   3.988   3.504   1.100
  317TCM    cl1 1749   4.016   3.681   1.087
  317TCM    cl2 1750   3.811   3.471   1.097
  317TCM     h1 1751   4.035   3.454   1.016
  317TCM    cl3 1752   4.057   3.444   1.254
  318TCM     c1 1753   0.337   4.738   1.981
  318TCM    cl1 1754   0.491   4.731   1.889
  318TCM    cl2 1755   0.372   4.772   2.154
  318TCM     h1 1756   0.274   4.817   1.940
  318TCM    cl3 1757   0.252   4.581   1.969
  319TCM     c1 1758   1.383   2.036   1.975
  319TCM    cl1 1759   1.433   1.998   1.807
  319TCM    cl2 1760   1.294   1.897   2.043
  319TCM     h1 1761   1.472   2.056   2.035
  319TCM    cl3 1762   1.277   2.181   1.974
  320TCM     c1 1763   0.619   2.175   3.938
  320TCM    cl1 1764   0.707   2.177   3.782
  320TCM    cl2 1765   0.726   2.108   4.065
  320TCM     h1 1766   0.589   2.277   3.964
  320TCM    cl3 1767   0.472   2.072   3.923
  321TCM     c1 1768   0.876   0.586   4.961
  321TCM    cl1 1769   0.830   0.414   4.936
  321TCM    cl2 1770   0.889   0.620   5.137
  321TCM     h1 1771   0.972   0.605   4.913
  321TCM    cl3 1772   0.751   0.692   4.888
  322TCM     c1 1773   3.404   2.547   0.899
  322TCM    cl1 1774   3.298   2.408   0.939
  322TCM    cl2 1775   3.353   2.689   0.995
  322TCM     h1 1776   3.508   2.522   0.921
  322TCM    cl3 1777   3.387   2.585   0.724
  323TCM     c1 1778   3.487   4.830   2.846
  323TCM    cl1 1779   3.551   4.858   3.011
  323TCM    cl2 1780   3.414   4.982   2.785
  323TCM     h1 1781   3.568   4.799   2.780
  323TCM    cl3 1782   3.362   4.701   2.850
  324TCM     c1 1783   4.655   2.993   4.753
  324TCM    cl1 1784   4.644   2.880   4.614
  324TCM    cl2 1785   4.491   3.051   4.796
  324TCM     h1 1786   4.698   2.940   4.838
  324TCM    cl3 1787   4.759   3.133   4.710
  325TCM     c1 1788   4.489   2.710   2.625
  325TCM    cl1 1789   4.555   2.864   2.563
  325TCM    cl2 1790   4.367   2.743   2.753
  325TCM     h1 1791   4.442   2.654   2.543
  325TCM    cl3 1792   4.623   2.613   2.695
  326TCM     c1 1793   2.192   4.210   3.365
  326TCM    cl1 1794   2.332   4.101   3.333
  326TCM    cl2 1795   2.247   4.381   3.370
  326TCM     h1 1796   2.118   4.198   3.286
  326TCM    cl3 1797   2.120   4.166   3.523
  327TCM     c1 1798   3.473   2.065   0.697
  327TCM    cl1 1799   3.435   2.067   0.872
  327TCM    cl2 1800   3.454   2.230   0.630
  327TCM     h1 1801   3.576   2.031   0.683
  327TCM    cl3 1802   3.361   1.953   0.612
  328TCM     c1 1803   2.241   1.917   2.491
  328TCM    cl1 1804   2.367   1.928   2.617
  328TCM    cl2 1805   2.294   1.805   2.361
  328TCM     h1 1806   2.148   1.881   2.535
  328TCM    cl3 1807   2.214   2.079   2.419
  329TCM     c1 1808   2.891   2.583   3.212
  329TCM    cl1 1809   2.845   2.750   3.164
  329TCM    cl2 1810   2.807   2.464   3.108
  329TCM     h1 1811   2.999   2.571   3.202
  329TCM    cl3 1812   2.844   2.556   3.383
  330TCM     c1 1813   4.986   1.663   1.613
  330TCM    cl1 1814   4.934   1.604   1.452
  330TCM    cl2 1815   4.859   1.626   1.735
  330TCM     h1 1816   5.079   1.612   1.642
  330TCM    cl3 1817   5.013   1.840   1.607
  331TCM     c1 1818   1.652   1.043   3.439
  331TCM    cl1 1819   1.501   1.070   3.533
  331TCM    cl2 1820   1.793   1.049   3.551
  331TCM     h1 1821   1.648   0.945   3.390
  331TCM    cl3 1822   1.670   1.171   3.315
  332TCM     c1 1823   3.245   3.994   2.267
  332TCM    cl1 1824   3.219   3.928   2.432
  332TCM    cl2 1825   3.156   4.149   2.250
  332TCM     h1 1826   3.352   4.011   2.250
  332TCM    cl3 1827   3.184   3.877   2.145
  333TCM     c1 1828   2.028   3.401   0.486
  333TCM    cl1 1829   2.087   3.239   0.536
  333TCM    cl2 1830   2.022   3.508   0.629
  333TCM     h1 1831   2.096   3.443   0.411
  333TCM    cl3 1832   1.863   3.385   0.418
  334TCM     c1 1833   4.574   1.957   3.030
  334TCM    cl1 1834   4.669   1.977   2.878
  334TCM    cl2 1835   4.399   1.949   2.990
  334TCM     h1 1836   4.605   1.866   3.081
  334TCM    cl3 1837   4.603   2.098   3.137
  335TCM     c1 1838   2.552   3.613   1.441
  335TCM    cl1 1839   2.674   3.506   1.515
  335TCM    cl2 1840   2.552   3.591   1.263
  335TCM     h1 1841   2.453   3.588   1.480
  335TCM    cl3 1842   2.589   3.784   1.480
  336TCM     c1 1843   0.977   4.591   4.592
  336TCM    cl1 1844   1.124   4.587   4.695
  336TCM    cl2 1845   0.831   4.568   4.695
  336TCM     h1 1846   0.970   4.687   4.540
  336TCM    cl3 1847   0.986   4.457   4.473
  337TCM     c1 1848   3.521   3.018   3.462
  337TCM    cl1 1849   3.497   2.876   3.569
  337TCM    cl2 1850   3.420   3.001   3.315
  337TCM     h1 1851   3.493   3.109   3.516
  337TCM    cl3 1852   3.694   3.028   3.414
  338TCM     c1 1853   3.510   3.729   1.046
  338TCM    cl1 1854   3.546   3.647   0.890
  338TCM    cl2 1855   3.661   3.804   1.110
  338TCM     h1 1856   3.435   3.807   1.030
  338TCM    cl3 1857   3.449   3.609   1.164
  339TCM     c1 1858   2.558   0.835   3.677
  339TCM    cl1 1859   2.404   0.786   3.754
  339TCM    cl2 1860   2.525   0.930   3.528
  339TCM     h1 1861   2.616   0.895   3.747
  339TCM    cl3 1862   2.651   0.687   3.633
  340TCM     c1 1863   2.041   3.223   4.583
  340TCM    cl1 1864   1.886   3.155   4.643
  340TCM    cl2 1865   2.151   3.253   4.722
  340TCM     h1 1866   2.087   3.152   4.514
  340TCM    cl3 1867   2.010   3.377   4.497
  341TCM     c1 1868   4.177   3.654   2.971
  341TCM    cl1 1869   4.225   3.692   2.803
  341TCM    cl2 1870   4.006   3.600   2.974
  341TCM     h1 1871   4.241   3.574   3.011
  341TCM    cl3 1872   4.195   3.801   3.072
  342TCM     c1 1873   2.375   4.913   4.480
  342TCM    cl1 1874   2.436   4.997   4.333
  342TCM    cl2 1875   2.257   4.786   4.432
  342TCM     h1 1876   2.459   4.867   4.533
  342TCM    cl3 1877   2.294   5.032   4.587
  343TCM     c1 1878   3.260   1.738   4.674
  343TCM    cl1 1879   3.270   1.576   4.597
  343TCM    cl2 1880   3.092   1.768   4.727
  343TCM     h1 1881   3.327   1.741   4.761
  343TCM    cl3 1882   3.310   1.864   4.556
  344TCM     c1 1883   0.376   0.592   3.779
  344TCM    cl1 1884   0.313   0.637   3.942
  344TCM    cl2 1885   0.246   0.513   3.684
  344TCM     h1 1886   0.410   0.682   3.727
  344TCM    cl3 1887   0.512   0.478   3.799
  345TCM     c1 1888   3.462   0.829   1.991
  345TCM    cl1 1889   3.583   0.872   1.865
  345TCM    cl2 1890   3.543   0.742   2.125
  345TCM     h1 1891   3.416   0.921   2.029
  345TCM    cl3 1892   3.337   0.723   1.919
  346TCM     c1 1893   2.949   4.878   2.496
  346TCM    cl1 1894   3.109   4.918   2.566
  346TCM    cl2 1895   2.954   4.711   2.429
  346TCM     h1 1896   2.872   4.883   2.574
  346TCM    cl3 1897   2.909   4.994   2.366
  347TCM     c1 1898   2.464   4.193   2.299
  347TCM    cl1 1899   2.478   4.100   2.451
  347TCM    cl2 1900   2.424   4.081   2.165
  347TCM     h1 1901   2.386   4.269   2.308
  347TCM    cl3 1902   2.622   4.271   2.265
  348TCM     c1 1903   0.674   0.692   2.217
  348TCM    cl1 1904   0.678   0.852   2.298
  348TCM    cl2 1905   0.671   0.716   2.039
  348TCM     h1 1906   0.763   0.635   2.245
  348TCM    cl3 1907   0.527   0.602   2.266
  349TCM     c1 1908   2.438   4.349   2.902
  349TCM    cl1 1909   2.321   4.281   3.020
  349TCM    cl2 1910   2.353   4.466   2.796
  349TCM     h1 1911   2.519   4.399   2.955
  349TCM    cl3 1912   2.505   4.215   2.802
  350TCM     c1 1913   4.086   1.912   4.586
  350TCM    cl1 1914   4.183   2.008   4.470
  350TCM    cl2 1915   3.948   1.836   4.501
  350TCM     h1 1916   4.149   1.834   4.631
  350TCM    cl3 1917   4.024   2.020   4.715
  351TCM     c1 1918   0.407   0.319   0.026
  351TCM    cl1 1919   0.463   0.485  -0.012
  351TCM    cl2 1920   0.526   0.200  -0.037
  351TCM     h1 1921   0.397   0.307   0.134
  351TCM    cl3 1922   0.248   0.290  -0.053
  352TCM     c1 1923   3.537   3.528   0.106
  352TCM    cl1 1924   3.538   3.450  -0.055
  352TCM    cl2 1925   3.543   3.403   0.234
  352TCM     h1 1926   3.624   3.595   0.115
  352TCM    cl3 1927   3.386   3.623   0.124
  353TCM     c1 1928   1.992   2.266   2.724
  353TCM    cl1 1929   2.083   2.121   2.777
  353TCM    cl2 1930   1.858   2.298   2.840
  353TCM     h1 1931   2.059   2.353   2.721
  353TCM    cl3 1932   1.923   2.239   2.561
  354TCM     c1 1933   1.885   4.038   1.468
  354TCM    cl1 1934   1.924   4.174   1.357
  354TCM    cl2 1935   1.791   4.101   1.607
  354TCM     h1 1936   1.827   3.962   1.414
  354TCM    cl3 1937   2.038   3.966   1.528
  355TCM     c1 1938   4.010   3.420   1.641
  355TCM    cl1 1939   4.010   3.256   1.714
  355TCM    cl2 1940   4.179   3.468   1.603
  355TCM     h1 1941   3.950   3.419   1.550
  355TCM    cl3 1942   3.940   3.537   1.758
  356TCM     c1 1943   2.454   4.325   0.503
  356TCM    cl1 1944   2.302   4.248   0.558
  356TCM    cl2 1945   2.590   4.279   0.611
  356TCM     h1 1946   2.476   4.291   0.401
  356TCM    cl3 1947   2.433   4.503   0.505
  357TCM     c1 1948   2.768   2.237   4.459
  357TCM    cl1 1949   2.641   2.117   4.421
  357TCM    cl2 1950   2.771   2.364   4.332
  357TCM     h1 1951   2.747   2.283   4.556
  357TCM    cl3 1952   2.928   2.156   4.465
  358TCM     c1 1953   1.696   2.851   2.653
  358TCM    cl1 1954   1.656   2.676   2.665
  358TCM    cl2 1955   1.873   2.871   2.632
  358TCM     h1 1956   1.643   2.895   2.568
  358TCM    cl3 1957   1.646   2.934   2.804
  359TCM     c1 1958   0.587   4.127   4.642
  359TCM    cl1 1959   0.595   4.045   4.801
  359TCM    cl2 1960   0.588   4.004   4.511
  359TCM     h1 1961   0.496   4.187   4.635
  359TCM    cl3 1962   0.732   4.231   4.623
  360TCM     c1 1963   0.107   2.321   1.519
  360TCM    cl1 1964   0.014   2.330   1.673
  360TCM    cl2 1965  -0.000   2.363   1.382
  360TCM     h1 1966   0.190   2.392   1.523
  360TCM    cl3 1967   0.170   2.155   1.497
  361TCM     c1 1968   4.240   0.662   4.009
  361TCM    cl1 1969   4.095   0.631   4.111
  361TCM    cl2 1970   4.320   0.507   3.969
  361TCM     h1 1971   4.209   0.712   3.916
  361TCM    cl3 1972   4.353   0.767   4.100
  362TCM     c1 1973   3.938   0.973   0.212
  362TCM    cl1 1974   3.951   0.842   0.090
  362TCM    cl2 1975   3.898   0.901   0.372
  362TCM     h1 1976   4.032   1.027   0.219
  362TCM    cl3 1977   3.807   1.086   0.163
  363TCM     c1 1978   2.048   1.467   3.612
  363TCM    cl1 1979   2.020   1.644   3.598
  363TCM    cl2 1980   1.969   1.382   3.476
  363TCM     h1 1981   2.156   1.447   3.609
  363TCM    cl3 1982   1.980   1.407   3.767
  364TCM     c1 1983   0.213   1.540   1.942
  364TCM    cl1 1984   0.059   1.485   2.016
  364TCM    cl2 1985   0.195   1.711   1.891
  364TCM     h1 1986   0.294   1.531   2.015
  364TCM    cl3 1987   0.248   1.440   1.798
  365TCM     c1 1988   1.582   0.328   3.271
  365TCM    cl1 1989   1.551   0.219   3.132
  365TCM    cl2 1990   1.507   0.488   3.236
  365TCM     h1 1991   1.538   0.286   3.362
  365TCM    cl3 1992   1.759   0.346   3.292
  366TCM     c1 1993   2.212   4.072   0.937
  366TCM    cl1 1994   2.351   4.180   0.905
  366TCM    cl2 1995   2.244   3.912   0.862
  366TCM     h1 1996   2.198   4.060   1.044
  366TCM    cl3 1997   2.063   4.141   0.864
  367TCM     c1 1998   3.409   1.573   4.186
  367TCM    cl1 1999   3.243   1.628   4.226
  367TCM    cl2 2000   3.422   1.548   4.009
  367TCM     h1 2001   3.481   1.649   4.218
  367TCM    cl3 2002   3.443   1.419   4.271
  368TCM     c1 2003   2.220   3.432   4.014
  368TCM    cl1 2004   2.216   3.253   4.029
  368TCM    cl2 2005   2.128   3.506   4.148
  368TCM     h1 2006   2.324   3.466   4.018
  368TCM    cl3 2007   2.147   3.481   3.857
  369TCM     c1 2008   3.034   0.440   4.621
  369TCM    cl1 2009   2.920   0.301   4.628
  369TCM    cl2 2010   3.066   0.499   4.787
  369TCM     h1 2011   3.128   0.408   4.575
  369TCM    cl3 2012   2.961   0.571   4.522
  370TCM     c1 2013   2.951   2.580   2.255
  370TCM    cl1 2014   3.041   2.503   2.390
  370TCM    cl2 2015   3.055   2.706   2.181
  370TCM     h1 2016   2.927   2.504   2.180
  370TCM    cl3 2017   2.800   2.655   2.317
  371TCM     c1 2018   4.943   4.041   0.626
  371TCM    cl1 2019   5.107   4.059   0.556
  371TCM    cl2 2020   4.884   4.201   0.682
  371TCM     h1 2021   4.875   4.001   0.550
  371TCM    cl3 2022   4.948   3.928   0.766
  372TCM     c1 2023   1.940   2.727   4.495
  372TCM    cl1 2024   1.787   2.812   4.453
  372TCM    cl2 2025   2.062   2.847   4.551
  372TCM     h1 2026   1.920   2.655   4.574
  372TCM    cl3 2027   2.003   2.643   4.349
  373TCM     c1 2028   2.526   3.986   4.273
  373TCM    cl1 2029   2.615   4.128   4.338
  373TCM    cl2 2030   2.490   3.871   4.406
  373TCM     h1 2031   2.432   4.019   4.229
  373TCM    cl3 2032   2.626   3.905   4.148
  374TCM     c1 2033   4.555   0.094   2.575
  374TCM    cl1 2034   4.636   0.017   2.714
  374TCM    cl2 2035   4.380   0.052   2.578
  374TCM     h1 2036   4.567   0.203   2.580
  374TCM    cl3 2037   4.628   0.033   2.422
  375TCM     c1 2038   1.945   3.520   1.991
  375TCM    cl1 2039   2.020   3.481   1.833
  375TCM    cl2 2040   2.066   3.603   2.094
  375TCM     h1 2041   1.859   3.586   1.975
  375TCM    cl3 2042   1.891   3.369   2.070
  376TCM     c1 2043   3.490   0.526   1.038
  376TCM    cl1 2044   3.446   0.503   1.211
  376TCM    cl2 2045   3.429   0.388   0.941
  376TCM     h1 2046   3.446   0.619   1.001
  376TCM    cl3 2047   3.669   0.534   1.023
  377TCM     c1 2048   0.149   3.527   3.041
  377TCM    cl1 2049   0.118   3.665   2.931
  377TCM    cl2 2050   0.024   3.401   3.012
  377TCM     h1 2051   0.248   3.486   3.022
  377TCM    cl3 2052   0.138   3.582   3.212
  378TCM     c1 2053   2.858   2.533   4.775
  378TCM    cl1 2054   2.924   2.441   4.913
  378TCM    cl2 2055   2.688   2.485   4.745
  378TCM     h1 2056   2.863   2.640   4.796
  378TCM    cl3 2057   2.956   2.498   4.629
  379TCM     c1 2058   2.097   0.300   0.417
  379TCM    cl1 2059   1.919   0.316   0.405
  379TCM    cl2 2060   2.166   0.287   0.252
  379TCM     h1 2061   2.139   0.388   0.467
  379TCM    cl3 2062   2.138   0.153   0.510
  380TCM     c1 2063   2.760   0.189   2.008
  380TCM    cl1 2064   2.735   0.012   2.019
  380TCM    cl2 2065   2.914   0.235   2.089
  380TCM     h1 2066   2.764   0.219   1.903
  380TCM    cl3 2067   2.623   0.274   2.089
  381TCM     c1 2068   1.690   3.566   4.537
  381TCM    cl1 2069   1.549   3.598   4.431
  381TCM    cl2 2070   1.654   3.422   4.639
  381TCM     h1 2071   1.778   3.546   4.476
  381TCM    cl3 2072   1.719   3.708   4.643
  382TCM     c1 2073   0.745   2.643   0.606
  382TCM    cl1 2074   0.841   2.705   0.745
  382TCM    cl2 2075   0.571   2.681   0.633
  382TCM     h1 2076   0.778   2.690   0.514
  382TCM    cl3 2077   0.766   2.466   0.595
  383TCM     c1 2078   2.738   0.061   3.214
  383TCM    cl1 2079   2.839   0.196   3.153
  383TCM    cl2 2080   2.840  -0.086   3.229
  383TCM     h1 2081   2.696   0.087   3.311
  383TCM    cl3 2082   2.604   0.029   3.098
  384TCM     c1 2083   1.997   2.843   1.114
  384TCM    cl1 2084   2.011   2.828   0.935
  384TCM    cl2 2085   2.137   2.937   1.176
  384TCM     h1 2086   1.904   2.894   1.139
  384TCM    cl3 2087   1.997   2.679   1.187
  385TCM     c1 2088   3.132   0.001   4.082
  385TCM    cl1 2089   2.974   0.049   4.012
  385TCM    cl2 2090   3.204  -0.129   3.982
  385TCM     h1 2091   3.199   0.088   4.084
  385TCM    cl3 2092   3.108  -0.061   4.249
  386TCM     c1 2093   0.133   0.361   4.119
  386TCM    cl1 2094   0.253   0.239   4.174
  386TCM    cl2 2095  -0.004   0.367   4.235
  386TCM     h1 2096   0.181   0.459   4.114
  386TCM    cl3 2097   0.072   0.315   3.957
  387TCM     c1 2098   2.560   2.378   3.751
  387TCM    cl1 2099   2.664   2.470   3.865
  387TCM    cl2 2100   2.654   2.340   3.603
  387TCM     h1 2101   2.527   2.285   3.799
  387TCM    cl3 2102   2.418   2.477   3.705
  388TCM     c1 2103   0.650   0.956   0.160
  388TCM    cl1 2104   0.611   1.084   0.280
  388TCM    cl2 2105   0.638   1.026  -0.005
  388TCM     h1 2106   0.751   0.919   0.177
  388TCM    cl3 2107   0.534   0.820   0.177
  389TCM     c1 2108   4.822   2.841   1.842
  389TCM    cl1 2109   4.878   2.694   1.930
  389TCM    cl2 2110   4.921   2.982   1.893
  389TCM     h1 2111   4.834   2.825   1.734
  389TCM    cl3 2112   4.650   2.872   1.879
  390TCM     c1 2113   3.012   3.046   0.368
  390TCM    cl1 2114   2.923   3.168   0.271
  390TCM    cl2 2115   3.173   3.111   0.415
  390TCM     h1 2116   2.955   3.022   0.458
  390TCM    cl3 2117   3.034   2.898   0.270
  391TCM     c1 2118   2.563   4.556   1.250
  391TCM    cl1 2119   2.419   4.631   1.325
  391TCM    cl2 2120   2.512   4.450   1.115
  391TCM     h1 2121   2.630   4.634   1.213
  391TCM    cl3 2122   2.648   4.457   1.374
  392TCM     c1 2123   2.651   3.718   4.765
  392TCM    cl1 2124   2.679   3.634   4.609
  392TCM    cl2 2125   2.682   3.604   4.900
  392TCM     h1 2126   2.719   3.803   4.773
  392TCM    cl3 2127   2.481   3.776   4.773
  393TCM     c1 2128   3.944   3.854   2.539
  393TCM    cl1 2129   4.025   3.967   2.654
  393TCM    cl2 2130   3.881   3.714   2.631
  393TCM     h1 2131   3.862   3.906   2.489
  393TCM    cl3 2132   4.063   3.798   2.418
  394TCM     c1 2133   2.497   1.278   2.362
  394TCM    cl1 2134   2.587   1.303   2.515
  394TCM    cl2 2135   2.605   1.200   2.241
  394TCM     h1 2136   2.411   1.214   2.380
  394TCM    cl3 2137   2.440   1.436   2.298
  395TCM     c1 2138   0.012   2.265   0.456
  395TCM    cl1 2139  -0.110   2.156   0.383
  395TCM    cl2 2140  -0.055   2.339   0.605
  395TCM     h1 2141   0.103   2.208   0.480
  395TCM    cl3 2142   0.052   2.395   0.338
  396TCM     c1 2143   4.058   0.491   2.946
  396TCM    cl1 2144   3.981   0.449   3.102
  396TCM    cl2 2145   4.023   0.663   2.907
  396TCM     h1 2146   4.166   0.476   2.953
  396TCM    cl3 2147   3.991   0.388   2.816
  397TCM     c1 2148   4.846   1.968   4.944
  397TCM    cl1 2149   4.946   1.919   4.803
  397TCM    cl2 2150   4.674   1.931   4.911
  397TCM     h1 2151   4.878   1.912   5.032
  397TCM    cl3 2152   4.867   2.143   4.975
  398TCM     c1 2153   3.276   0.973   1.042
  398TCM    cl1 2154   3.112   0.981   0.971
  398TCM    cl2 2155   3.346   1.138   1.052
  398TCM     h1 2156   3.271   0.929   1.141
  398TCM    cl3 2157   3.381   0.871   0.937
  399TCM     c1 2158   2.818   4.221   4.715
  399TCM    cl1 2159   2.725   4.347   4.628
  399TCM    cl2 2160   2.728   4.066   4.708
  399TCM     h1 2161   2.916   4.208   4.667
  399TCM    cl3 2162   2.840   4.268   4.886
  400TCM     c1 2163   1.415   4.939   0.454
  400TCM    cl1 2164   1.574   5.006   0.503
  400TCM    cl2 2165   1.439   4.781   0.372
  400TCM     h1 2166   1.352   4.926   0.542
  400TCM    cl3 2167   1.336   5.053   0.340
  401TCM     c1 2168   1.386   3.218   4.496
  401TCM    cl1 2169   1.284   3.199   4.642
  401TCM    cl2 2170   1.281   3.223   4.350
  401TCM     h1 2171   1.443   3.311   4.503
  401TCM    cl3 2172   1.499   3.079   4.484
  402TCM     c1 2173   1.140   2.213   2.366
  402TCM    cl1 2174   1.091   2.199   2.538
  402TCM    cl2 2175   1.079   2.070   2.276
  402TCM     h1 2176   1.097   2.304   2.323
  402TCM    cl3 2177   1.319   2.219   2.353
  403TCM     c1 2178   1.346   1.288   0.363
  403TCM    cl1 2179   1.172   1.295   0.323
  403TCM    cl2 2180   1.425   1.439   0.308
  403TCM     h1 2181   1.360   1.276   0.470
  403TCM    cl3 2182   1.420   1.148   0.277
  404TCM     c1 2183   0.522   0.299   3.284
  404TCM    cl1 2184   0.553   0.122   3.274
  404TCM    cl2 2185   0.509   0.348   3.456
  404TCM     h1 2186   0.604   0.354   3.236
  404TCM    cl3 2187   0.367   0.336   3.200
  405TCM     c1 2188   2.767   3.592   0.422
  405TCM    cl1 2189   2.787   3.769   0.392
  405TCM    cl2 2190   2.775   3.505   0.265
  405TCM     h1 2191   2.847   3.557   0.487
  405TCM    cl3 2192   2.609   3.561   0.499
  406TCM     c1 2193   0.087   1.825   0.650
  406TCM    cl1 2194   0.021   1.951   0.759
  406TCM    cl2 2195   0.100   1.891   0.484
  406TCM     h1 2196   0.185   1.793   0.684
  406TCM    cl3 2197  -0.025   1.684   0.647
  407TCM     c1 2198   3.193   4.522   3.963
  407TCM    cl1 2199   3.192   4.540   3.785
  407TCM    cl2 2200   3.361   4.540   4.025
  407TCM     h1 2201   3.129   4.598   4.008
  407TCM    cl3 2202   3.132   4.359   4.007
  408TCM     c1 2203   0.362   3.155   3.168
  408TCM    cl1 2204   0.249   3.116   3.033
  408TCM    cl2 2205   0.430   3.319   3.144
  408TCM     h1 2206   0.308   3.151   3.263
  408TCM    cl3 2207   0.495   3.034   3.170
  409TCM     c1 2208   2.927   0.535   1.877
  409TCM    cl1 2209   3.004   0.677   1.799
  409TCM    cl2 2210   2.909   0.403   1.756
  409TCM     h1 2211   2.989   0.501   1.960
  409TCM    cl3 2212   2.765   0.580   1.938
  410TCM     c1 2213   4.816   4.617   4.353
  410TCM    cl1 2214   4.750   4.630   4.187
  410TCM    cl2 2215   4.781   4.454   4.418
  410TCM     h1 2216   4.924   4.634   4.350
  410TCM    cl3 2217   4.738   4.740   4.458
  411TCM     c1 2218   3.936   0.828   2.003
  411TCM    cl1 2219   3.984   0.842   2.175
  411TCM    cl2 2220   3.872   0.663   1.971
  411TCM     h1 2221   3.858   0.902   1.980
  411TCM    cl3 2222   4.079   0.858   1.899
  412TCM     c1 2223   2.652   4.630   2.059
  412TCM    cl1 2224   2.663   4.728   2.209
  412TCM    cl2 2225   2.494   4.546   2.057
  412TCM     h1 2226   2.660   4.696   1.972
  412TCM    cl3 2227   2.784   4.510   2.057
  413TCM     c1 2228   2.294   2.459   0.789
  413TCM    cl1 2229   2.131   2.472   0.861
  413TCM    cl2 2230   2.288   2.501   0.614
  413TCM     h1 2231   2.362   2.527   0.840
  413TCM    cl3 2232   2.355   2.291   0.807
  414TCM     c1 2233   2.181   4.489   0.242
  414TCM    cl1 2234   2.032   4.536   0.330
  414TCM    cl2 2235   2.248   4.632   0.157
  414TCM     h1 2236   2.255   4.451   0.313
  414TCM    cl3 2237   2.144   4.360   0.122
  415TCM     c1 2238   3.633   1.094   2.287
  415TCM    cl1 2239   3.710   1.087   2.125
  415TCM    cl2 2240   3.692   0.957   2.386
  415TCM     h1 2241   3.658   1.188   2.335
  415TCM    cl3 2242   3.455   1.081   2.269
  416TCM     c1 2243   3.408   4.022   0.697
  416TCM    cl1 2244   3.452   3.900   0.572
  416TCM    cl2 2245   3.529   4.018   0.830
  416TCM     h1 2246   3.408   4.122   0.652
  416TCM    cl3 2247   3.246   3.985   0.763
  417TCM     c1 2248   1.891   3.982   1.947
  417TCM    cl1 2249   1.938   3.842   1.846
  417TCM    cl2 2250   2.001   3.992   2.089
  417TCM     h1 2251   1.897   4.074   1.888
  417TCM    cl3 2252   1.722   3.959   2.004
  418TCM     c1 2253   4.845   2.932   2.794
  418TCM    cl1 2254   4.878   3.060   2.916
  418TCM    cl2 2255   4.941   2.786   2.832
  418TCM     h1 2256   4.738   2.908   2.794
  418TCM    cl3 2257   4.892   2.992   2.631
  419TCM     c1 2258   1.575   1.138   2.218
  419TCM    cl1 2259   1.422   1.046   2.195
  419TCM    cl2 2260   1.708   1.023   2.253
  419TCM     h1 2261   1.598   1.193   2.126
  419TCM    cl3 2262   1.556   1.253   2.354
  420TCM     c1 2263   1.030   4.117   0.264
  420TCM    cl1 2264   0.944   4.028   0.135
  420TCM    cl2 2265   0.965   4.284   0.276
  420TCM     h1 2266   1.016   4.066   0.360
  420TCM    cl3 2267   1.206   4.124   0.227
  421TCM     c1 2268   3.046   2.729   0.770
  421TCM    cl1 2269   3.085   2.778   0.602
  421TCM    cl2 2270   3.002   2.555   0.773
  421TCM     h1 2271   3.133   2.745   0.834
  421TCM    cl3 2272   2.908   2.826   0.829
  422TCM     c1 2273   0.744   1.683   2.382
  422TCM    cl1 2274   0.726   1.854   2.333
  422TCM    cl2 2275   0.669   1.576   2.258
  422TCM     h1 2276   0.850   1.658   2.392
  422TCM    cl3 2277   0.661   1.659   2.539
  423TCM     c1 2278   2.483   0.458   4.580
  423TCM    cl1 2279   2.545   0.310   4.499
  423TCM    cl2 2280   2.615   0.531   4.678
  423TCM     h1 2281   2.449   0.529   4.505
  423TCM    cl3 2282   2.346   0.413   4.687
  424TCM     c1 2283   0.175   3.919   3.785
  424TCM    cl1 2284   0.351   3.946   3.800
  424TCM    cl2 2285   0.098   3.947   3.945
  424TCM     h1 2286   0.133   3.988   3.712
  424TCM    cl3 2287   0.146   3.750   3.732
  425TCM     c1 2288   0.029   3.873   1.164
  425TCM    cl1 2289  -0.059   3.785   1.293
  425TCM    cl2 2290   0.203   3.827   1.169
  425TCM     h1 2291  -0.013   3.847   1.066
  425TCM    cl3 2292   0.013   4.050   1.191
  426TCM     c1 2293   2.603   2.232   0.216
  426TCM    cl1 2294   2.533   2.083   0.145
  426TCM    cl2 2295   2.496   2.290   0.348
  426TCM     h1 2296   2.703   2.211   0.255
  426TCM    cl3 2297   2.612   2.359   0.090
  427TCM     c1 2298   3.348   2.233   2.167
  427TCM    cl1 2299   3.471   2.275   2.043
  427TCM    cl2 2300   3.185   2.286   2.112
  427TCM     h1 2301   3.348   2.125   2.183
  427TCM    cl3 2302   3.387   2.316   2.321
  428TCM     c1 2303   3.957   1.055   4.789
  428TCM    cl1 2304   3.968   1.218   4.863
  428TCM    cl2 2305   4.121   0.982   4.785
  428TCM     h1 2306   3.890   0.992   4.849
  428TCM    cl3 2307   3.894   1.069   4.622
  429TCM     c1 2308   0.936   1.852   4.215
  429TCM    cl1 2309   0.967   1.968   4.348
  429TCM    cl2 2310   0.771   1.783   4.230
  429TCM     h1 2311   0.945   1.903   4.119
  429TCM    cl3 2312   1.056   1.718   4.224
  430TCM     c1 2313   0.342   0.198   2.135
  430TCM    cl1 2314   0.433   0.092   2.023
  430TCM    cl2 2315   0.439   0.225   2.284
  430TCM     h1 2316   0.322   0.294   2.087
  430TCM    cl3 2317   0.188   0.118   2.179
  431TCM     c1 2318   3.700   0.158   0.918
  431TCM    cl1 2319   3.616   0.098   1.065
  431TCM    cl2 2320   3.613   0.103   0.771
  431TCM     h1 2321   3.702   0.267   0.920
  431TCM    cl3 2322   3.868   0.095   0.915
  432TCM     c1 2323   3.021   1.867   3.446
  432TCM    cl1 2324   3.200   1.880   3.458
  432TCM    cl2 2325   2.951   1.854   3.610
  432TCM     h1 2326   2.982   1.956   3.397
  432TCM    cl3 2327   2.979   1.721   3.350
  433TCM     c1 2328   3.658   2.601   3.400
  433TCM    cl1 2329   3.812   2.678   3.452
  433TCM    cl2 2330   3.684   2.425   3.378
  433TCM     h1 2331   3.582   2.618   3.476
  433TCM    cl3 2332   3.606   2.675   3.245
  434TCM     c1 2333   3.114   4.251   1.735
  434TCM    cl1 2334   2.991   4.374   1.779
  434TCM    cl2 2335   3.082   4.192   1.568
  434TCM     h1 2336   3.214   4.296   1.739
  434TCM    cl3 2337   3.103   4.114   1.850
  435TCM     c1 2338   0.421   1.081   3.900
  435TCM    cl1 2339   0.396   0.991   4.053
  435TCM    cl2 2340   0.399   0.969   3.761
  435TCM     h1 2341   0.349   1.163   3.893
  435TCM    cl3 2342   0.588   1.147   3.897
  436TCM     c1 2343   0.332   1.820   1.430
  436TCM    cl1 2344   0.492   1.875   1.368
  436TCM    cl2 2345   0.355   1.674   1.531
  436TCM     h1 2346   0.287   1.900   1.489
  436TCM    cl3 2347   0.227   1.780   1.291
  437TCM     c1 2348   0.013   2.562   1.068
  437TCM    cl1 2349   0.157   2.477   1.004
  437TCM    cl2 2350  -0.065   2.654   0.935
  437TCM     h1 2351  -0.057   2.489   1.108
  437TCM    cl3 2352   0.062   2.676   1.198
  438TCM     c1 2353   1.077   3.406   4.976
  438TCM    cl1 2354   0.996   3.294   5.092
  438TCM    cl2 2355   1.071   3.574   5.040
  438TCM     h1 2356   1.181   3.375   4.962
  438TCM    cl3 2357   0.990   3.401   4.819
  439TCM     c1 2358   3.495   1.025   1.373
  439TCM    cl1 2359   3.320   1.013   1.411
  439TCM    cl2 2360   3.545   0.880   1.279
  439TCM     h1 2361   3.514   1.115   1.314
  439TCM    cl3 2362   3.588   1.033   1.527
  440TCM     c1 2363   3.699   1.601   4.631
  440TCM    cl1 2364   3.728   1.424   4.618
  440TCM    cl2 2365   3.587   1.632   4.768
  440TCM     h1 2366   3.793   1.653   4.649
  440TCM    cl3 2367   3.624   1.661   4.479
  441TCM     c1 2368   0.378   3.749   4.198
  441TCM    cl1 2369   0.241   3.770   4.312
  441TCM    cl2 2370   0.444   3.910   4.154
  441TCM     h1 2371   0.456   3.689   4.245
  441TCM    cl3 2372   0.317   3.666   4.051
  442TCM     c1 2373   3.362   3.151   0.023
  442TCM    cl1 2374   3.363   3.135  -0.156
  442TCM    cl2 2375   3.336   2.989   0.096
  442TCM     h1 2376   3.458   3.191   0.056
  442TCM    cl3 2377   3.229   3.261   0.072
  443TCM     c1 2378   0.960   2.966   0.974
  443TCM    cl1 2379   0.981   3.145   0.977
  443TCM    cl2 2380   0.916   2.908   1.138
  443TCM     h1 2381   0.881   2.940   0.903
  443TCM    cl3 2382   1.115   2.890   0.924
  444TCM     c1 2383   4.321   0.051   0.169
  444TCM    cl1 2384   4.258   0.202   0.241
  444TCM    cl2 2385   4.474   0.005   0.253
  444TCM     h1 2386   4.248  -0.029   0.181
  444TCM    cl3 2387   4.354   0.078  -0.005
  445TCM     c1 2388   4.413   1.040   4.986
  445TCM    cl1 2389   4.367   1.207   4.938
  445TCM    cl2 2390   4.304   0.985   5.117
  445TCM     h1 2391   4.405   0.973   4.900
  445TCM    cl3 2392   4.583   1.041   5.046
  446TCM     c1 2393   3.043   0.592   3.316
  446TCM    cl1 2394   3.006   0.526   3.153
  446TCM    cl2 2395   2.913   0.704   3.367
  446TCM     h1 2396   3.051   0.509   3.387
  446TCM    cl3 2397   3.198   0.682   3.311
  447TCM     c1 2398   4.206   1.407   4.677
  447TCM    cl1 2399   4.369   1.483   4.674
  447TCM    cl2 2400   4.194   1.286   4.545
  447TCM     h1 2401   4.190   1.358   4.773
  447TCM    cl3 2402   4.081   1.534   4.653
  448TCM     c1 2403   4.903   2.228   3.446
  448TCM    cl1 2404   4.791   2.088   3.448
  448TCM    cl2 2405   4.868   2.332   3.304
  448TCM     h1 2406   4.890   2.286   3.538
  448TCM    cl3 2407   5.072   2.168   3.436
  449TCM     c1 2408   4.975   4.718   3.669
  449TCM    cl1 2409   4.900   4.597   3.560
  449TCM    cl2 2410   5.152   4.689   3.676
  449TCM     h1 2411   4.956   4.819   3.631
  449TCM    cl3 2412   4.905   4.702   3.834
  450TCM     c1 2413   3.399   0.425   3.643
  450TCM    cl1 2414   3.241   0.508   3.622
  450TCM    cl2 2415   3.497   0.450   3.496
  450TCM     h1 2416   3.451   0.467   3.729
  450TCM    cl3 2417   3.372   0.250   3.669
  451TCM     c1 2418   3.693   3.634   1.441
  451TCM    cl1 2419   3.863   3.691   1.434
  451TCM    cl2 2420   3.616   3.694   1.591
  451TCM     h1 2421   3.638   3.670   1.354
  451TCM    cl3 2422   3.693   3.454   1.443
  452TCM     c1 2423   0.721   4.899   1.078
  452TCM    cl1 2424   0.712   4.878   1.256
  452TCM    cl2 2425   0.815   4.763   1.007
  452TCM     h1 2426   0.620   4.899   1.036
  452TCM    cl3 2427   0.803   5.054   1.041
  453TCM     c1 2428   2.267   3.679   3.548
  453TCM    cl1 2429   2.424   3.765   3.549
  453TCM    cl2 2430   2.293   3.511   3.491
  453TCM     h1 2431   2.225   3.678   3.649
  453TCM    cl3 2432   2.155   3.765   3.437
  454TCM     c1 2433   4.444   3.771   1.066
  454TCM    cl1 2434   4.386   3.643   1.177
  454TCM    cl2 2435   4.601   3.834   1.124
  454TCM     h1 2436   4.457   3.729   0.966
  454TCM    cl3 2437   4.325   3.905   1.060
  455TCM     c1 2438   3.073   3.932   4.459
  455TCM    cl1 2439   2.897   3.920   4.429
  455TCM    cl2 2440   3.146   3.769   4.441
  455TCM     h1 2441   3.118   4.000   4.386
  455TCM    cl3 2442   3.102   3.993   4.625
  456TCM     c1 2443   1.731   1.711   4.708
  456TCM    cl1 2444   1.587   1.818   4.712
  456TCM    cl2 2445   1.682   1.549   4.647
  456TCM     h1 2446   1.806   1.754   4.641
  456TCM    cl3 2447   1.798   1.695   4.873
  457TCM     c1 2448   1.552   3.381   1.791
  457TCM    cl1 2449   1.463   3.416   1.639
  457TCM    cl2 2450   1.572   3.533   1.885
  457TCM     h1 2451   1.498   3.307   1.851
  457TCM    cl3 2452   1.714   3.318   1.749
  458TCM     c1 2453   1.917   4.699   1.241
  458TCM    cl1 2454   2.068   4.763   1.313
  458TCM    cl2 2455   1.903   4.754   1.071
  458TCM     h1 2456   1.919   4.589   1.243
  458TCM    cl3 2457   1.775   4.758   1.333
  459TCM     c1 2458   3.838   4.116   3.532
  459TCM    cl1 2459   3.950   4.234   3.456
  459TCM    cl2 2460   3.781   4.184   3.688
  459TCM     h1 2461   3.753   4.098   3.466
  459TCM    cl3 2462   3.925   3.962   3.564
  460TCM     c1 2463   0.677   0.867   3.468
  460TCM    cl1 2464   0.526   0.946   3.413
  460TCM    cl2 2465   0.639   0.704   3.534
  460TCM     h1 2466   0.746   0.858   3.384
  460TCM    cl3 2467   0.753   0.966   3.597
  461TCM     c1 2468   1.638   4.307   0.254
  461TCM    cl1 2469   1.665   4.485   0.253
  461TCM    cl2 2470   1.519   4.264   0.381
  461TCM     h1 2471   1.600   4.276   0.156
  461TCM    cl3 2472   1.794   4.225   0.286
  462TCM     c1 2473   3.211   0.175   0.054
  462TCM    cl1 2474   3.115   0.135   0.200
  462TCM    cl2 2475   3.112   0.147  -0.093
  462TCM     h1 2476   3.240   0.280   0.058
  462TCM    cl3 2477   3.358   0.072   0.048
  463TCM     c1 2478   3.611   0.674   3.140
  463TCM    cl1 2479   3.632   0.840   3.077
  463TCM    cl2 2480   3.727   0.646   3.274
  463TCM     h1 2481   3.508   0.661   3.176
  463TCM    cl3 2482   3.644   0.556   3.009
  464TCM     c1 2483   0.052   4.346   3.793
  464TCM    cl1 2484  -0.022   4.240   3.669
  464TCM    cl2 2485   0.226   4.306   3.809
  464TCM     h1 2486   0.041   4.451   3.764
  464TCM    cl3 2487  -0.030   4.320   3.951
  465TCM     c1 2488   4.195   1.457   0.185
  465TCM    cl1 2489   4.125   1.581   0.293
  465TCM    cl2 2490   4.166   1.505   0.014
  465TCM     h1 2491   4.303   1.449   0.202
  465TCM    cl3 2492   4.117   1.299   0.216
  466TCM     c1 2493   0.650   0.374   2.623
  466TCM    cl1 2494   0.734   0.375   2.464
  466TCM    cl2 2495   0.492   0.457   2.607
  466TCM     h1 2496   0.633   0.271   2.654
  466TCM    cl3 2497   0.753   0.456   2.745
  467TCM     c1 2498   0.302   1.976   2.198
  467TCM    cl1 2499   0.389   1.822   2.166
  467TCM    cl2 2500   0.238   2.042   2.044
  467TCM     h1 2501   0.220   1.958   2.267
  467TCM    cl3 2502   0.415   2.094   2.269
  468TCM     c1 2503   3.553   1.929   1.767
  468TCM    cl1 2504   3.476   2.065   1.679
  468TCM    cl2 2505   3.521   1.775   1.680
  468TCM     h1 2506   3.661   1.946   1.773
  468TCM    cl3 2507   3.486   1.920   1.934
  469TCM     c1 2508   2.675   0.731   4.131
  469TCM    cl1 2509   2.705   0.629   3.986
  469TCM    cl2 2510   2.645   0.626   4.274
  469TCM     h1 2511   2.763   0.794   4.150
  469TCM    cl3 2512   2.533   0.835   4.101
  470TCM     c1 2513   4.513   2.248   4.710
  470TCM    cl1 2514   4.588   2.332   4.850
  470TCM    cl2 2515   4.384   2.139   4.771
  470TCM     h1 2516   4.470   2.322   4.642
  470TCM    cl3 2517   4.638   2.152   4.625
  471TCM     c1 2518   3.741   0.780   2.733
  471TCM    cl1 2519   3.566   0.798   2.698
  471TCM    cl2 2520   3.817   0.943   2.741
  471TCM     h1 2521   3.754   0.729   2.829
  471TCM    cl3 2522   3.819   0.684   2.603
  472TCM     c1 2523   3.092   1.866   3.035
  472TCM    cl1 2524   3.074   1.889   2.858
  472TCM    cl2 2525   3.086   2.025   3.118
  472TCM     h1 2526   3.011   1.803   3.072
  472TCM    cl3 2527   3.249   1.787   3.070
  473TCM     c1 2528   3.732   1.466   1.417
  473TCM    cl1 2529   3.893   1.545   1.419
  473TCM    cl2 2530   3.674   1.445   1.585
  473TCM     h1 2531   3.662   1.527   1.361
  473TCM    cl3 2532   3.747   1.304   1.340
  474TCM     c1 2533   0.702   2.801   1.652
  474TCM    cl1 2534   0.730   2.971   1.704
  474TCM    cl2 2535   0.645   2.801   1.483
  474TCM     h1 2536   0.796   2.746   1.659
  474TCM    cl3 2537   0.580   2.725   1.760
  475TCM     c1 2538   2.500   3.463   4.341
  475TCM    cl1 2539   2.363   3.516   4.445
  475TCM    cl2 2540   2.504   3.564   4.192
  475TCM     h1 2541   2.594   3.474   4.395
  475TCM    cl3 2542   2.476   3.291   4.294
  476TCM     c1 2543   2.271   1.563   1.991
  476TCM    cl1 2544   2.210   1.504   1.833
  476TCM    cl2 2545   2.138   1.550   2.111
  476TCM     h1 2546   2.356   1.502   2.023
  476TCM    cl3 2547   2.321   1.734   1.975
  477TCM     c1 2548   4.533   2.298   0.251
  477TCM    cl1 2549   4.670   2.406   0.209
  477TCM    cl2 2550   4.569   2.130   0.197
  477TCM     h1 2551   4.517   2.300   0.359
  477TCM    cl3 2552   4.385   2.355   0.167
  478TCM     c1 2553   2.938   4.464   3.344
  478TCM    cl1 2554   2.786   4.537   3.282
  478TCM    cl2 2555   2.904   4.303   3.415
  478TCM     h1 2556   3.009   4.453   3.263
  478TCM    cl3 2557   3.006   4.571   3.470
  479TCM     c1 2558   0.170   3.579   0.142
  479TCM    cl1 2559   0.199   3.402   0.141
  479TCM    cl2 2560   0.022   3.614   0.237
  479TCM     h1 2561   0.255   3.630   0.187
  479TCM    cl3 2562   0.149   3.637  -0.027
  480TCM     c1 2563   1.078   2.466   2.940
  480TCM    cl1 2564   0.985   2.593   3.026
  480TCM    cl2 2565   0.974   2.323   2.911
  480TCM     h1 2566   1.113   2.505   2.845
  480TCM    cl3 2567   1.218   2.418   3.041
  481TCM     c1 2568   2.465   2.660   1.134
  481TCM    cl1 2569   2.381   2.741   0.997
  481TCM    cl2 2570   2.488   2.486   1.095
  481TCM     h1 2571   2.563   2.707   1.150
  481TCM    cl3 2572   2.366   2.675   1.283
  482TCM     c1 2573   4.951   3.197   3.483
  482TCM    cl1 2574   5.024   3.212   3.320
  482TCM    cl2 2575   4.779   3.151   3.467
  482TCM     h1 2576   5.004   3.121   3.541
  482TCM    cl3 2577   4.963   3.356   3.567
  483TCM     c1 2578   2.326   4.764   3.130
  483TCM    cl1 2579   2.428   4.616   3.138
  483TCM    cl2 2580   2.186   4.743   3.240
  483TCM     h1 2581   2.384   4.851   3.162
  483TCM    cl3 2582   2.268   4.789   2.962
  484TCM     c1 2583   4.997   2.587   3.906
  484TCM    cl1 2584   5.146   2.673   3.855
  484TCM    cl2 2585   4.864   2.705   3.926
  484TCM     h1 2586   4.970   2.513   3.830
  484TCM    cl3 2587   5.026   2.504   4.062
  485TCM     c1 2588   2.698   2.108   3.290
  485TCM    cl1 2589   2.669   1.953   3.376
  485TCM    cl2 2590   2.714   2.074   3.114
  485TCM     h1 2591   2.614   2.176   3.307
  485TCM    cl3 2592   2.849   2.182   3.350
  486TCM     c1 2593   2.027   0.493   3.735
  486TCM    cl1 2594   2.016   0.464   3.912
  486TCM    cl2 2595   2.041   0.669   3.705
  486TCM     h1 2596   2.115   0.443   3.696
  486TCM    cl3 2597   1.880   0.430   3.654
  487TCM     c1 2598   0.951   4.840   0.677
  487TCM    cl1 2599   0.894   5.009   0.690
  487TCM    cl2 2600   1.080   4.830   0.553
  487TCM     h1 2601   0.990   4.807   0.773
  487TCM    cl3 2602   0.813   4.735   0.629
  488TCM     c1 2603   3.920   1.032   3.501
  488TCM    cl1 2604   3.850   1.161   3.605
  488TCM    cl2 2605   3.838   0.877   3.538
  488TCM     h1 2606   3.905   1.058   3.396
  488TCM    cl3 2607   4.095   1.018   3.535
  489TCM     c1 2608   3.224   4.819   3.175
  489TCM    cl1 2609   3.132   4.669   3.143
  489TCM    cl2 2610   3.189   4.876   3.341
  489TCM     h1 2611   3.331   4.800   3.164
  489TCM    cl3 2612   3.171   4.944   3.057
  490TCM     c1 2613   2.391   2.375   2.843
  490TCM    cl1 2614   2.464   2.214   2.873
  490TCM    cl2 2615   2.249   2.398   2.950
  490TCM     h1 2616   2.465   2.453   2.863
  490TCM    cl3 2617   2.338   2.385   2.672
  491TCM     c1 2618   1.246   0.381   4.926
  491TCM    cl1 2619   1.241   0.561   4.922
  491TCM    cl2 2620   1.168   0.317   4.779
  491TCM     h1 2621   1.350   0.347   4.931
  491TCM    cl3 2622   1.157   0.323   5.071
  492TCM     c1 2623   2.236   4.311   4.060
  492TCM    cl1 2624   2.126   4.253   3.931
  492TCM    cl2 2625   2.267   4.486   4.042
  492TCM     h1 2626   2.191   4.292   4.158
  492TCM    cl3 2627   2.392   4.222   4.049
  493TCM     c1 2628   0.693   3.693   4.996
  493TCM    cl1 2629   0.763   3.725   4.834
  493TCM    cl2 2630   0.701   3.517   5.029
  493TCM     h1 2631   0.749   3.747   5.072
  493TCM    cl3 2632   0.521   3.745   4.999
  494TCM     c1 2633   0.254   2.806   1.607
  494TCM    cl1 2634   0.092   2.728   1.603
  494TCM    cl2 2635   0.253   2.943   1.723
  494TCM     h1 2636   0.329   2.733   1.637
  494TCM    cl3 2637   0.292   2.868   1.443
  495TCM     c1 2638   3.226   1.036   3.325
  495TCM    cl1 2639   3.284   1.194   3.387
  495TCM    cl2 2640   3.311   0.999   3.172
  495TCM     h1 2641   3.245   0.958   3.399
  495TCM    cl3 2642   3.050   1.047   3.293
  496TCM     c1 2643   4.898   1.155   2.037
  496TCM    cl1 2644   5.018   1.136   1.905
  496TCM    cl2 2645   4.966   1.094   2.191
  496TCM     h1 2646   4.873   1.261   2.048
  496TCM    cl3 2647   4.749   1.063   1.997
  497TCM     c1 2648   1.566   4.834   0.962
  497TCM    cl1 2649   1.449   4.866   0.830
  497TCM    cl2 2650   1.499   4.710   1.074
  497TCM     h1 2651   1.661   4.798   0.920
  497TCM    cl3 2652   1.594   4.986   1.054
  498TCM     c1 2653   2.704   2.783   3.624
  498TCM    cl1 2654   2.867   2.763   3.695
  498TCM    cl2 2655   2.704   2.925   3.514
  498TCM     h1 2656   2.677   2.693   3.568
  498TCM    cl3 2657   2.584   2.810   3.755
  499TCM     c1 2658   0.137   3.050   1.182
  499TCM    cl1 2659   0.052   3.093   1.031
  499TCM    cl2 2660   0.039   3.102   1.323
  499TCM     h1 2661   0.153   2.942   1.186
  499TCM    cl3 2662   0.296   3.133   1.187
  500TCM     c1 2663   1.879   4.995   0.232
  500TCM    cl1 2664   1.748   4.876   0.207
  500TCM    cl2 2665   1.895   5.098   0.086
  500TCM     h1 2666   1.856   5.058   0.319
  500TCM    cl3 2667   2.034   4.909   0.259
  501TCM     c1 2668   0.753   1.746   2.877
  501TCM    cl1 2669   0.881   1.620   2.867
  501TCM    cl2 2670   0.818   1.903   2.821
  501TCM     h1 2671   0.668   1.716   2.815
  501TCM    cl3 2672   0.699   1.763   3.048
  502TCM     c1 2673   2.957   3.507   2.195
  502TCM    cl1 2674   2.996   3.383   2.070
  502TCM    cl2 2675   3.098   3.527   2.305
  502TCM     h1 2676   2.935   3.602   2.147
  502TCM    cl3 2677   2.816   3.452   2.290
  503TCM     c1 2678   1.382   0.430   2.673
  503TCM    cl1 2679   1.203   0.442   2.670
  503TCM    cl2 2680   1.442   0.471   2.837
  503TCM     h1 2681   1.413   0.328   2.648
  503TCM    cl3 2682   1.452   0.545   2.555
  504TCM     c1 2683   0.014   4.947   2.641
  504TCM    cl1 2684  -0.079   4.823   2.551
  504TCM    cl2 2685  -0.021   4.934   2.817
  504TCM     h1 2686   0.121   4.930   2.625
  504TCM    cl3 2687  -0.031   5.109   2.581
  505TCM     c1 2688   2.525   3.847   3.137
  505TCM    cl1 2689   2.429   3.923   3.006
  505TCM    cl2 2690   2.693   3.822   3.080
  505TCM     h1 2691   2.525   3.912   3.225
  505TCM    cl3 2692   2.453   3.688   3.181
  506TCM     c1 2693   0.245   4.573   0.138
  506TCM    cl1 2694   0.276   4.684   0.000
  506TCM    cl2 2695   0.243   4.404   0.080
  506TCM     h1 2696   0.323   4.585   0.214
  506TCM    cl3 2697   0.086   4.612   0.211
  507TCM     c1 2698   1.465   3.888   4.959
  507TCM    cl1 2699   1.298   3.852   5.013
  507TCM    cl2 2700   1.575   3.758   5.015
  507TCM     h1 2701   1.468   3.894   4.850
  507TCM    cl3 2702   1.516   4.045   5.030
  508TCM     c1 2703   0.413   1.805   3.280
  508TCM    cl1 2704   0.365   1.683   3.157
  508TCM    cl2 2705   0.376   1.743   3.444
  508TCM     h1 2706   0.520   1.825   3.272
  508TCM    cl3 2707   0.320   1.956   3.250
  509TCM     c1 2708   4.524   0.026   4.562
  509TCM    cl1 2709   4.572   0.154   4.678
  509TCM    cl2 2710   4.390   0.084   4.458
  509TCM     h1 2711   4.610  -0.001   4.499
  509TCM    cl3 2712   4.469  -0.118   4.654
  510TCM     c1 2713   4.237   2.371   2.348
  510TCM    cl1 2714   4.297   2.415   2.512
  510TCM    cl2 2715   4.140   2.507   2.283
  510TCM     h1 2716   4.321   2.351   2.282
  510TCM    cl3 2717   4.133   2.225   2.359
  511TCM     c1 2718   3.141   4.676   1.619
  511TCM    cl1 2719   3.188   4.549   1.501
  511TCM    cl2 2720   3.185   4.837   1.553
  511TCM     h1 2721   3.033   4.671   1.637
  511TCM    cl3 2722   3.230   4.649   1.773
  512TCM     c1 2723   0.229   4.846   0.855
  512TCM    cl1 2724   0.176   5.015   0.825
  512TCM    cl2 2725   0.085   4.741   0.873
  512TCM     h1 2726   0.289   4.811   0.771
  512TCM    cl3 2727   0.325   4.840   1.006
  513TCM     c1 2728   3.929   4.941   0.054
  513TCM    cl1 2729   3.952   4.883   0.222
  513TCM    cl2 2730   4.039   4.849  -0.055
  513TCM     h1 2731   3.825   4.926   0.023
  513TCM    cl3 2732   3.969   5.115   0.045
  514TCM     c1 2733   0.817   4.937   2.123
  514TCM    cl1 2734   0.772   5.079   2.222
  514TCM    cl2 2735   0.778   4.968   1.951
  514TCM     h1 2736   0.925   4.918   2.133
  514TCM    cl3 2737   0.725   4.794   2.180
  515TCM     c1 2738   2.714   4.774   4.259
  515TCM    cl1 2739   2.572   4.664   4.257
  515TCM    cl2 2740   2.823   4.733   4.122
  515TCM     h1 2741   2.680   4.877   4.249
  515TCM    cl3 2742   2.801   4.754   4.414
  516TCM     c1 2743   4.288   3.809   1.493
  516TCM    cl1 2744   4.165   3.872   1.380
  516TCM    cl2 2745   4.230   3.834   1.661
  516TCM     h1 2746   4.304   3.703   1.475
  516TCM    cl3 2747   4.442   3.898   1.469
  517TCM     c1 2748   3.047   3.503   4.820
  517TCM    cl1 2749   3.211   3.456   4.767
  517TCM    cl2 2750   2.928   3.390   4.747
  517TCM     h1 2751   3.040   3.499   4.929
  517TCM    cl3 2752   3.013   3.670   4.764
  518TCM     c1 2753   2.833   0.282   4.287
  518TCM    cl1 2754   2.808   0.114   4.342
  518TCM    cl2 2755   2.744   0.309   4.134
  518TCM     h1 2756   2.796   0.352   4.363
  518TCM    cl3 2757   3.009   0.311   4.260
  519TCM     c1 2758   3.226   3.308   1.584
  519TCM    cl1 2759   3.336   3.447   1.556
  519TCM    cl2 2760   3.219   3.272   1.760
  519TCM     h1 2761   3.126   3.333   1.548
  519TCM    cl3 2762   3.288   3.165   1.496
  520TCM     c1 2763   0.069   2.816   3.169
  520TCM    cl1 2764   0.055   2.638   3.150
  520TCM    cl2 2765   0.192   2.853   3.293
  520TCM     h1 2766   0.097   2.861   3.074
  520TCM    cl3 2767  -0.089   2.881   3.222
  521TCM     c1 2768   1.671   3.298   2.843
  521TCM    cl1 2769   1.731   3.450   2.916
  521TCM    cl2 2770   1.768   3.259   2.697
  521TCM     h1 2771   1.680   3.216   2.916
  521TCM    cl3 2772   1.499   3.317   2.796
  522TCM     c1 2773   2.705   4.138   1.793
  522TCM    cl1 2774   2.642   3.971   1.795
  522TCM    cl2 2775   2.595   4.243   1.888
  522TCM     h1 2776   2.805   4.140   1.838
  522TCM    cl3 2777   2.713   4.197   1.624
  523TCM     c1 2778   0.139   1.459   2.851
  523TCM    cl1 2779   0.144   1.570   2.711
  523TCM    cl2 2780   0.191   1.295   2.798
  523TCM     h1 2781   0.205   1.495   2.930
  523TCM    cl3 2782  -0.029   1.450   2.913
  524TCM     c1 2783   4.392   3.205   2.755
  524TCM    cl1 2784   4.507   3.094   2.836
  524TCM    cl2 2785   4.334   3.327   2.873
  524TCM     h1 2786   4.442   3.256   2.671
  524TCM    cl3 2787   4.253   3.110   2.694
  525TCM     c1 2788   2.625   4.573   2.510
  525TCM    cl1 2789   2.689   4.461   2.635
  525TCM    cl2 2790   2.616   4.739   2.578
  525TCM     h1 2791   2.692   4.572   2.424
  525TCM    cl3 2792   2.461   4.521   2.459
  526TCM     c1 2793   2.978   3.085   2.299
  526TCM    cl1 2794   2.863   3.040   2.168
  526TCM    cl2 2795   3.145   3.081   2.235
  526TCM     h1 2796   2.955   3.186   2.335
  526TCM    cl3 2797   2.964   2.968   2.434
  527TCM     c1 2798   1.800   3.173   4.181
  527TCM    cl1 2799   1.849   3.258   4.031
  527TCM    cl2 2800   1.725   3.291   4.293
  527TCM     h1 2801   1.728   3.095   4.156
  527TCM    cl3 2802   1.945   3.100   4.258
  528TCM     c1 2803   4.937   1.668   0.223
  528TCM    cl1 2804   4.965   1.636   0.048
  528TCM    cl2 2805   4.928   1.512   0.310
  528TCM     h1 2806   5.020   1.728   0.263
  528TCM    cl3 2807   4.783   1.758   0.244
  529TCM     c1 2808   2.046   3.008   1.957
  529TCM    cl1 2809   2.157   3.083   2.076
  529TCM    cl2 2810   2.009   3.125   1.827
  529TCM     h1 2811   2.093   2.919   1.914
  529TCM    cl3 2812   1.894   2.960   2.040
  530TCM     c1 2813   1.987   0.341   4.761
  530TCM    cl1 2814   1.976   0.441   4.612
  530TCM    cl2 2815   1.964   0.169   4.717
  530TCM     h1 2816   2.085   0.355   4.807
  530TCM    cl3 2817   1.858   0.391   4.876
  531TCM     c1 2818   0.352   4.993   3.851
  531TCM    cl1 2819   0.464   4.992   3.992
  531TCM    cl2 2820   0.360   5.154   3.771
  531TCM     h1 2821   0.381   4.915   3.781
  531TCM    cl3 2822   0.184   4.965   3.909
  532TCM     c1 2823   1.581   4.400   1.317
  532TCM    cl1 2824   1.708   4.411   1.191
  532TCM    cl2 2825   1.652   4.442   1.476
  532TCM     h1 2826   1.500   4.470   1.294
  532TCM    cl3 2827   1.516   4.233   1.324
  533TCM     c1 2828   4.780   0.614   3.832
  533TCM    cl1 2829   4.687   0.608   3.985
  533TCM    cl2 2830   4.772   0.454   3.752
  533TCM     h1 2831   4.738   0.690   3.766
  533TCM    cl3 2832   4.951   0.654   3.869
  534TCM     c1 2833   2.302   2.977   0.066
  534TCM    cl1 2834   2.153   2.944  -0.029
  534TCM    cl2 2835   2.261   2.985   0.240
  534TCM     h1 2836   2.374   2.897   0.049
  534TCM    cl3 2837   2.373   3.133   0.014
  535TCM     c1 2838   2.687   4.037   1.135
  535TCM    cl1 2839   2.723   4.175   1.026
  535TCM    cl2 2840   2.571   3.926   1.056
  535TCM     h1 2841   2.780   3.983   1.157
  535TCM    cl3 2842   2.616   4.099   1.287
  536TCM     c1 2843   1.673   0.736   3.900
  536TCM    cl1 2844   1.661   0.561   3.938
  536TCM    cl2 2845   1.676   0.759   3.723
  536TCM     h1 2846   1.587   0.789   3.942
  536TCM    cl3 2847   1.824   0.803   3.971
  537TCM     c1 2848   1.388   0.979   2.694
  537TCM    cl1 2849   1.479   0.940   2.544
  537TCM    cl2 2850   1.316   0.829   2.760
  537TCM     h1 2851   1.455   1.024   2.767
  537TCM    cl3 2852   1.256   1.095   2.654
  538TCM     c1 2853   2.092   2.773   2.906
  538TCM    cl1 2854   2.234   2.736   2.803
  538TCM    cl2 2855   2.145   2.791   3.076
  538TCM     h1 2856   2.046   2.866   2.872
  538TCM    cl3 2857   1.972   2.640   2.895
  539TCM     c1 2858   3.854   4.082   2.956
  539TCM    cl1 2859   3.824   4.139   3.123
  539TCM    cl2 2860   3.818   4.216   2.841
  539TCM     h1 2861   3.959   4.052   2.945
  539TCM    cl3 2862   3.747   3.943   2.919
  540TCM     c1 2863   2.589   0.091   0.233
  540TCM    cl1 2864   2.729   0.048   0.337
  540TCM    cl2 2865   2.579   0.270   0.217
  540TCM     h1 2866   2.602   0.046   0.134
  540TCM    cl3 2867   2.437   0.030   0.307
  541TCM     c1 2868   1.698   3.638   4.020
  541TCM    cl1 2869   1.797   3.647   4.169
  541TCM    cl2 2870   1.572   3.511   4.038
  541TCM     h1 2871   1.649   3.734   4.002
  541TCM    cl3 2872   1.803   3.599   3.880
  542TCM     c1 2873   2.383   2.014   1.268
  542TCM    cl1 2874   2.468   2.162   1.322
  542TCM    cl2 2875   2.366   2.019   1.089
  542TCM     h1 2876   2.442   1.926   1.296
  542TCM    cl3 2877   2.221   2.005   1.344
  543TCM     c1 2878   2.958   4.908   3.620
  543TCM    cl1 2879   3.086   5.025   3.665
  543TCM    cl2 2880   2.811   4.998   3.573
  543TCM     h1 2881   2.992   4.847   3.536
  543TCM    cl3 2882   2.920   4.802   3.760
  544TCM     c1 2883   2.103   1.108   2.013
  544TCM    cl1 2884   2.187   1.079   1.857
  544TCM    cl2 2885   1.967   1.222   1.988
  544TCM     h1 2886   2.065   1.013   2.052
  544TCM    cl3 2887   2.218   1.180   2.131
  545TCM     c1 2888   2.333   2.577   0.167
  545TCM    cl1 2889   2.438   2.656   0.290
  545TCM    cl2 2890   2.382   2.631   0.003
  545TCM     h1 2891   2.343   2.468   0.174
  545TCM    cl3 2892   2.162   2.624   0.197
  546TCM     c1 2893   3.439   2.277   4.064
  546TCM    cl1 2894   3.525   2.345   4.206
  546TCM    cl2 2895   3.557   2.201   3.953
  546TCM     h1 2896   3.366   2.202   4.097
  546TCM    cl3 2897   3.353   2.409   3.978
  547TCM     c1 2898   0.756   0.310   1.850
  547TCM    cl1 2899   0.637   0.239   1.736
  547TCM    cl2 2900   0.674   0.355   2.004
  547TCM     h1 2901   0.835   0.238   1.871
  547TCM    cl3 2902   0.827   0.458   1.777
  548TCM     c1 2903   4.925   2.649   3.502
  548TCM    cl1 2904   4.946   2.811   3.575
  548TCM    cl2 2905   4.801   2.557   3.594
  548TCM     h1 2906   4.892   2.659   3.398
  548TCM    cl3 2907   5.080   2.560   3.509
  549TCM     c1 2908   4.398   4.664   0.676
  549TCM    cl1 2909   4.316   4.776   0.790
  549TCM    cl2 2910   4.493   4.759   0.559
  549TCM     h1 2911   4.464   4.596   0.731
  549TCM    cl3 2912   4.274   4.567   0.590
  550TCM     c1 2913   0.376   3.985   0.901
  550TCM    cl1 2914   0.335   3.851   0.789
  550TCM    cl2 2915   0.240   4.101   0.907
  550TCM     h1 2916   0.394   3.945   1.001
  550TCM    cl3 2917   0.524   4.069   0.843
  551TCM     c1 2918   2.326   2.031   3.585
  551TCM    cl1 2919   2.345   2.179   3.486
  551TCM    cl2 2920   2.462   2.020   3.702
  551TCM     h1 2921   2.232   2.035   3.640
  551TCM    cl3 2922   2.328   1.886   3.479
  552TCM     c1 2923   0.687   3.790   1.139
  552TCM    cl1 2924   0.594   3.710   1.008
  552TCM    cl2 2925   0.602   3.939   1.189
  552TCM     h1 2926   0.696   3.722   1.224
  552TCM    cl3 2927   0.851   3.832   1.078
  553TCM     c1 2928   1.450   3.870   0.368
  553TCM    cl1 2929   1.395   3.925   0.529
  553TCM    cl2 2930   1.412   3.695   0.349
  553TCM     h1 2931   1.399   3.927   0.290
  553TCM    cl3 2932   1.627   3.894   0.353
  554TCM     c1 2933   3.220   1.984   2.494
  554TCM    cl1 2934   3.388   2.030   2.539
  554TCM    cl2 2935   3.222   1.917   2.327
  554TCM     h1 2936   3.183   1.909   2.563
  554TCM    cl3 2937   3.115   2.129   2.499
  555TCM     c1 2938   1.766   2.551   2.197
  555TCM    cl1 2939   1.938   2.505   2.178
  555TCM    cl2 2940   1.753   2.704   2.288
  555TCM     h1 2941   1.721   2.563   2.098
  555TCM    cl3 2942   1.680   2.422   2.287
  556TCM     c1 2943   3.160   4.877   2.036
  556TCM    cl1 2944   3.114   4.994   1.908
  556TCM    cl2 2945   3.017   4.777   2.076
  556TCM     h1 2946   3.240   4.812   1.999
  556TCM    cl3 2947   3.216   4.966   2.181
  557TCM     c1 2948   0.807   2.463   4.322
  557TCM    cl1 2949   0.703   2.579   4.411
  557TCM    cl2 2950   0.766   2.468   4.147
  557TCM     h1 2951   0.912   2.490   4.335
  557TCM    cl3 2952   0.778   2.298   4.386
  558TCM     c1 2953   4.771   3.517   4.891
  558TCM    cl1 2954   4.837   3.385   4.993
  558TCM    cl2 2955   4.872   3.533   4.743
  558TCM     h1 2956   4.668   3.494   4.862
  558TCM    cl3 2957   4.775   3.671   4.982
  559TCM     c1 2958   4.980   2.048   3.849
  559TCM    cl1 2959   5.130   1.998   3.765
  559TCM    cl2 2960   4.844   1.943   3.795
  559TCM     h1 2961   4.994   2.037   3.957
  559TCM    cl3 2962   4.942   2.219   3.809
  560TCM     c1 2963   4.137   2.104   2.786
  560TCM    cl1 2964   4.039   2.241   2.725
  560TCM    cl2 2965   4.255   2.054   2.660
  560TCM     h1 2966   4.190   2.135   2.876
  560TCM    cl3 2967   4.028   1.967   2.825
  561TCM     c1 2968   1.366   2.677   4.900
  561TCM    cl1 2969   1.482   2.786   4.982
  561TCM    cl2 2970   1.278   2.768   4.773
  561TCM     h1 2971   1.420   2.594   4.854
  561TCM    cl3 2972   1.248   2.615   5.020
  562TCM     c1 2973   3.561   2.016   2.858
  562TCM    cl1 2974   3.397   2.082   2.893
  562TCM    cl2 2975   3.586   1.865   2.952
  562TCM     h1 2976   3.569   1.994   2.752
  562TCM    cl3 2977   3.684   2.137   2.905
  563TCM     c1 2978   2.705   4.733   0.667
  563TCM    cl1 2979   2.568   4.833   0.610
  563TCM    cl2 2980   2.781   4.649   0.527
  563TCM     h1 2981   2.779   4.796   0.717
  563TCM    cl3 2982   2.644   4.611   0.784
  564TCM     c1 2983   1.826   3.885   0.715
  564TCM    cl1 2984   1.977   3.877   0.620
  564TCM    cl2 2985   1.726   3.741   0.679
  564TCM     h1 2986   1.850   3.888   0.822
  564TCM    cl3 2987   1.737   4.034   0.669
  565TCM     c1 2988   0.115   2.937   4.900
  565TCM    cl1 2989   0.073   3.108   4.931
  565TCM    cl2 2990  -0.026   2.851   4.831
  565TCM     h1 2991   0.199   2.931   4.830
  565TCM    cl3 2992   0.162   2.859   5.055
  566TCM     c1 2993   2.869   4.759   2.910
  566TCM    cl1 2994   2.860   4.926   2.845
  566TCM    cl2 2995   2.965   4.656   2.798
  566TCM     h1 2996   2.918   4.760   3.007
  566TCM    cl3 2997   2.704   4.692   2.928
  567TCM     c1 2998   4.717   3.598   3.414
  567TCM    cl1 2999   4.624   3.482   3.514
  567TCM    cl2 3000   4.607   3.731   3.361
  567TCM     h1 3001   4.799   3.640   3.473
  567TCM    cl3 3002   4.782   3.515   3.269
  568TCM     c1 3003   1.642   0.755   2.954
  568TCM    cl1 3004   1.709   0.841   2.812
  568TCM    cl2 3005   1.610   0.872   3.086
  568TCM     h1 3006   1.549   0.706   2.926
  568TCM    cl3 3007   1.760   0.631   3.010
  569TCM     c1 3008   3.316   2.584   4.376
  569TCM    cl1 3009   3.329   2.701   4.241
  569TCM    cl2 3010   3.190   2.462   4.339
  569TCM     h1 3011   3.413   2.534   4.390
  569TCM    cl3 3012   3.272   2.672   4.527
  570TCM     c1 3013   2.304   3.884   0.501
  570TCM    cl1 3014   2.277   3.963   0.342
  570TCM    cl2 3015   2.473   3.909   0.555
  570TCM     h1 3016   2.236   3.928   0.575
  570TCM    cl3 3017   2.272   3.708   0.487
  571TCM     c1 3018   3.315   1.744   0.129
  571TCM    cl1 3019   3.159   1.825   0.094
  571TCM    cl2 3020   3.331   1.600   0.023
  571TCM     h1 3021   3.397   1.813   0.109
  571TCM    cl3 3022   3.319   1.693   0.301
  572TCM     c1 3023   2.461   1.528   3.486
  572TCM    cl1 3024   2.405   1.567   3.652
  572TCM    cl2 3025   2.319   1.507   3.379
  572TCM     h1 3026   2.524   1.609   3.449
  572TCM    cl3 3027   2.555   1.375   3.490
  573TCM     c1 3028   1.080   0.788   2.476
  573TCM    cl1 3029   1.210   0.749   2.358
  573TCM    cl2 3030   0.953   0.661   2.469
  573TCM     h1 3031   1.122   0.792   2.577
  573TCM    cl3 3032   1.008   0.947   2.434
  574TCM     c1 3033   2.617   4.076   0.097
  574TCM    cl1 3034   2.611   4.084   0.276
  574TCM    cl2 3035   2.451   4.054   0.032
  574TCM     h1 3036   2.659   4.168   0.057
  574TCM    cl3 3037   2.719   3.937   0.048
  575TCM     c1 3038   2.324   4.272   1.439
  575TCM    cl1 3039   2.192   4.375   1.504
  575TCM    cl2 3040   2.277   4.213   1.276
  575TCM     h1 3041   2.416   4.331   1.432
  575TCM    cl3 3042   2.353   4.132   1.548
  576TCM     c1 3043   0.907   2.578   4.888
  576TCM    cl1 3044   0.876   2.681   5.031
  576TCM    cl2 3045   0.757   2.563   4.791
  576TCM     h1 3046   0.986   2.623   4.827
  576TCM    cl3 3047   0.958   2.414   4.940
  577TCM     c1 3048   1.612   1.108   1.778
  577TCM    cl1 3049   1.739   1.194   1.685
  577TCM    cl2 3050   1.513   1.228   1.866
  577TCM     h1 3051   1.549   1.051   1.709
  577TCM    cl3 3052   1.690   0.996   1.895
  578TCM     c1 3053   0.400   3.251   3.568
  578TCM    cl1 3054   0.322   3.396   3.495
  578TCM    cl2 3055   0.559   3.224   3.491
  578TCM     h1 3056   0.413   3.267   3.675
  578TCM    cl3 3057   0.296   3.108   3.540
  579TCM     c1 3058   0.017   0.171   3.616
  579TCM    cl1 3059  -0.050   0.279   3.489
  579TCM    cl2 3060   0.111   0.039   3.537
  579TCM     h1 3061   0.082   0.228   3.682
  579TCM    cl3 3062  -0.116   0.097   3.711
  580TCM     c1 3063   4.262   0.006   3.091
  580TCM    cl1 3064   4.300   0.038   3.263
  580TCM    cl2 3065   4.406   0.043   2.990
  580TCM     h1 3066   4.236  -0.100   3.078
  580TCM    cl3 3067   4.125   0.109   3.039
  581TCM     c1 3068   3.270   3.917   1.354
  581TCM    cl1 3069   3.448   3.934   1.369
  581TCM    cl2 3070   3.222   3.756   1.416
  581TCM     h1 3071   3.221   3.996   1.412
  581TCM    cl3 3072   3.224   3.930   1.181
  582TCM     c1 3073   4.682   3.927   3.735
  582TCM    cl1 3074   4.747   4.028   3.867
  582TCM    cl2 3075   4.781   3.779   3.718
  582TCM     h1 3076   4.579   3.900   3.758
  582TCM    cl3 3077   4.687   4.019   3.581
  583TCM     c1 3078   0.893   3.691   0.412
  583TCM    cl1 3079   0.874   3.524   0.348
  583TCM    cl2 3080   0.760   3.793   0.349
  583TCM     h1 3081   0.889   3.688   0.521
  583TCM    cl3 3082   1.049   3.760   0.359
  584TCM     c1 3083   0.295   2.048   0.137
  584TCM    cl1 3084   0.147   1.947   0.124
  584TCM    cl2 3085   0.437   1.945   0.104
  584TCM     h1 3086   0.291   2.130   0.065
  584TCM    cl3 3087   0.306   2.114   0.303
  585TCM     c1 3088   1.060   4.977   2.487
  585TCM    cl1 3089   1.002   5.138   2.541
  585TCM    cl2 3090   1.124   4.989   2.320
  585TCM     h1 3091   1.139   4.942   2.554
  585TCM    cl3 3092   0.923   4.860   2.490
  586TCM     c1 3093   1.038   1.172   3.865
  586TCM    cl1 3094   1.090   1.284   3.995
  586TCM    cl2 3095   0.931   1.258   3.749
  586TCM     h1 3096   1.127   1.134   3.812
  586TCM    cl3 3097   0.949   1.034   3.938
  587TCM     c1 3098   3.764   2.570   3.906
  587TCM    cl1 3099   3.665   2.516   3.767
  587TCM    cl2 3100   3.839   2.428   3.986
  587TCM     h1 3101   3.843   2.638   3.871
  587TCM    cl3 3102   3.659   2.656   4.024
  588TCM     c1 3103   2.003   3.445   0.017
  588TCM    cl1 3104   1.836   3.446  -0.048
  588TCM    cl2 3105   2.034   3.287   0.098
  588TCM     h1 3106   2.074   3.459  -0.064
  588TCM    cl3 3107   2.021   3.577   0.137
  589TCM     c1 3108   1.236   0.277   0.800
  589TCM    cl1 3109   1.203   0.184   0.651
  589TCM    cl2 3110   1.219   0.452   0.766
  589TCM     h1 3111   1.164   0.248   0.878
  589TCM    cl3 3112   1.402   0.241   0.856
  590TCM     c1 3113   0.452   3.645   0.472
  590TCM    cl1 3114   0.487   3.561   0.318
  590TCM    cl2 3115   0.537   3.560   0.607
  590TCM     h1 3116   0.487   3.748   0.467
  590TCM    cl3 3117   0.275   3.643   0.501
  591TCM     c1 3118   3.131   1.317   3.042
  591TCM    cl1 3119   3.200   1.447   2.940
  591TCM    cl2 3120   3.032   1.208   2.939
  591TCM     h1 3121   3.211   1.260   3.089
  591TCM    cl3 3122   3.027   1.392   3.169
  592TCM     c1 3123   2.711   4.593   0.162
  592TCM    cl1 3124   2.734   4.600  -0.016
  592TCM    cl2 3125   2.645   4.432   0.207
  592TCM     h1 3126   2.806   4.609   0.213
  592TCM    cl3 3127   2.595   4.720   0.211
  593TCM     c1 3128   3.443   3.336   3.138
  593TCM    cl1 3129   3.618   3.304   3.162
  593TCM    cl2 3130   3.422   3.485   3.040
  593TCM     h1 3131   3.397   3.252   3.087
  593TCM    cl3 3132   3.365   3.360   3.298
  594TCM     c1 3133   2.897   3.858   0.778
  594TCM    cl1 3134   2.942   3.887   0.949
  594TCM    cl2 3135   2.768   3.973   0.731
  594TCM     h1 3136   2.985   3.874   0.715
  594TCM    cl3 3137   2.838   3.690   0.759
  595TCM     c1 3138   4.538   4.172   0.924
  595TCM    cl1 3139   4.514   4.335   0.854
  595TCM    cl2 3140   4.701   4.162   1.000
  595TCM     h1 3141   4.462   4.152   1.000
  595TCM    cl3 3142   4.527   4.049   0.793
  596TCM     c1 3143   4.515   2.649   4.981
  596TCM    cl1 3144   4.479   2.764   5.114
  596TCM    cl2 3145   4.684   2.673   4.927
  596TCM     h1 3146   4.502   2.547   5.016
  596TCM    cl3 3147   4.405   2.680   4.843
  597TCM     c1 3148   2.851   0.991   2.049
  597TCM    cl1 3149   2.792   0.869   2.165
  597TCM    cl2 3150   2.777   0.959   1.888
  597TCM     h1 3151   2.823   1.091   2.083
  597TCM    cl3 3152   3.030   0.980   2.036
  598TCM     c1 3153   3.310   4.207   2.975
  598TCM    cl1 3154   3.380   4.277   2.825
  598TCM    cl2 3155   3.221   4.334   3.065
  598TCM     h1 3156   3.241   4.126   2.949
  598TCM    cl3 3157   3.443   4.142   3.077
  599TCM     c1 3158   3.622   3.346   3.731
  599TCM    cl1 3159   3.787   3.307   3.791
  599TCM    cl2 3160   3.510   3.213   3.777
  599TCM     h1 3161   3.588   3.440   3.774
  599TCM    cl3 3162   3.626   3.360   3.552
  600TCM     c1 3163   4.135   0.267   4.758
  600TCM    cl1 3164   4.257   0.358   4.663
  600TCM    cl2 3165   4.103   0.109   4.681
  600TCM     h1 3166   4.172   0.252   4.860
  600TCM    cl3 3167   3.982   0.362   4.764
  601TCM     c1 3168   3.048   3.079   3.551
  601TCM    cl1 3169   3.179   3.041   3.668
  601TCM    cl2 3170   3.056   2.962   3.415
  601TCM     h1 3171   2.951   3.071   3.601
  601TCM    cl3 3172   3.072   3.245   3.489
  602TCM     c1 3173   0.488   2.134   1.731
  602TCM    cl1 3174   0.541   2.166   1.563
  602TCM    cl2 3175   0.409   1.973   1.738
  602TCM     h1 3176   0.575   2.135   1.798
  602TCM    cl3 3177   0.371   2.260   1.781
  603TCM     c1 3178   0.192   4.026   2.978
  603TCM    cl1 3179   0.211   4.203   2.999
  603TCM    cl2 3180   0.248   3.944   3.128
  603TCM     h1 3181   0.087   4.002   2.960
  603TCM    cl3 3182   0.291   3.972   2.838
  604TCM     c1 3183   2.226   3.288   1.575
  604TCM    cl1 3184   2.284   3.382   1.435
  604TCM    cl2 3185   2.343   3.305   1.710
  604TCM     h1 3186   2.128   3.326   1.607
  604TCM    cl3 3187   2.212   3.115   1.529
  605TCM     c1 3188   0.279   1.373   2.439
  605TCM    cl1 3189   0.269   1.505   2.317
  605TCM    cl2 3190   0.439   1.377   2.519
  605TCM     h1 3191   0.200   1.386   2.513
  605TCM    cl3 3192   0.258   1.214   2.359
  606TCM     c1 3193   3.967   2.919   3.676
  606TCM    cl1 3194   3.810   2.925   3.762
  606TCM    cl2 3195   4.050   2.766   3.719
  606TCM     h1 3196   3.950   2.922   3.568
  606TCM    cl3 3197   4.069   3.058   3.726
  607TCM     c1 3198   1.883   3.067   3.149
  607TCM    cl1 3199   1.947   3.097   2.984
  607TCM    cl2 3200   1.780   2.920   3.145
  607TCM     h1 3201   1.966   3.052   3.219
  607TCM    cl3 3202   1.784   3.207   3.200
  608TCM     c1 3203   2.574   2.987   2.401
  608TCM    cl1 3204   2.599   2.891   2.550
  608TCM    cl2 3205   2.636   3.154   2.426
  608TCM     h1 3206   2.626   2.940   2.317
  608TCM    cl3 3207   2.398   2.995   2.367
  609TCM     c1 3208   1.904   2.675   4.940
  609TCM    cl1 3209   1.791   2.551   5.005
  609TCM    cl2 3210   1.815   2.790   4.834
  609TCM     h1 3211   1.949   2.731   5.023
  609TCM    cl3 3212   2.032   2.594   4.844
  610TCM     c1 3213   4.719   0.583   2.701
  610TCM    cl1 3214   4.738   0.405   2.684
  610TCM    cl2 3215   4.705   0.657   2.539
  610TCM     h1 3216   4.629   0.604   2.759
  610TCM    cl3 3217   4.862   0.651   2.786
  611TCM     c1 3218   4.976   2.058   1.109
  611TCM    cl1 3219   4.890   2.207   1.058
  611TCM    cl2 3220   4.919   2.007   1.272
  611TCM     h1 3221   4.956   1.978   1.037
  611TCM    cl3 3222   5.152   2.090   1.115
  612TCM     c1 3223   3.059   3.896   0.147
  612TCM    cl1 3224   3.037   3.720   0.120
  612TCM    cl2 3225   3.082   3.978  -0.011
  612TCM     h1 3226   2.971   3.937   0.197
  612TCM    cl3 3227   3.204   3.923   0.250
  613TCM     c1 3228   2.827   3.920   3.530
  613TCM    cl1 3229   2.831   4.022   3.678
  613TCM    cl2 3230   2.978   3.942   3.436
  613TCM     h1 3231   2.816   3.815   3.558
  613TCM    cl3 3232   2.688   3.970   3.429
  614TCM     c1 3233   2.220   4.354   1.926
  614TCM    cl1 3234   2.139   4.223   1.833
  614TCM    cl2 3235   2.178   4.337   2.100
  614TCM     h1 3236   2.328   4.347   1.913
  614TCM    cl3 3237   2.162   4.514   1.867
  615TCM     c1 3238   1.568   1.759   0.197
  615TCM    cl1 3239   1.727   1.842   0.198
  615TCM    cl2 3240   1.471   1.815   0.056
  615TCM     h1 3241   1.582   1.651   0.191
  615TCM    cl3 3242   1.480   1.800   0.348
  616TCM     c1 3243   0.428   2.601   4.165
  616TCM    cl1 3244   0.432   2.754   4.071
  616TCM    cl2 3245   0.405   2.462   4.054
  616TCM     h1 3246   0.523   2.590   4.218
  616TCM    cl3 3247   0.294   2.606   4.284
  617TCM     c1 3248   0.492   1.403   4.417
  617TCM    cl1 3249   0.456   1.575   4.381
  617TCM    cl2 3250   0.670   1.382   4.429
  617TCM     h1 3251   0.445   1.375   4.512
  617TCM    cl3 3252   0.428   1.299   4.286
  618TCM     c1 3253   0.100   2.697   0.558
  618TCM    cl1 3254   0.210   2.611   0.671
  618TCM    cl2 3255   0.187   2.727   0.404
  618TCM     h1 3256   0.012   2.635   0.539
  618TCM    cl3 3257   0.051   2.854   0.630
  619TCM     c1 3258   2.152   3.772   4.599
  619TCM    cl1 3259   2.108   3.641   4.715
  619TCM    cl2 3260   2.110   3.930   4.673
  619TCM     h1 3261   2.259   3.768   4.578
  619TCM    cl3 3262   2.060   3.751   4.447
  620TCM     c1 3263   2.966   3.090   3.029
  620TCM    cl1 3264   2.865   3.222   2.960
  620TCM    cl2 3265   3.111   3.161   3.107
  620TCM     h1 3266   2.907   3.036   3.104
  620TCM    cl3 3267   3.016   2.978   2.899
  621TCM     c1 3268   2.937   4.249   0.413
  621TCM    cl1 3269   3.007   4.107   0.498
  621TCM    cl2 3270   2.942   4.221   0.236
  621TCM     h1 3271   2.833   4.263   0.445
  621TCM    cl3 3272   3.032   4.396   0.453
  622TCM     c1 3273   3.404   4.328   0.257
  622TCM    cl1 3274   3.299   4.283   0.119
  622TCM    cl2 3275   3.366   4.223   0.397
  622TCM     h1 3276   3.509   4.316   0.229
  622TCM    cl3 3277   3.374   4.500   0.302
  623TCM     c1 3278   2.336   3.566   0.827
  623TCM    cl1 3279   2.498   3.612   0.891
  623TCM    cl2 3280   2.217   3.565   0.961
  623TCM     h1 3281   2.305   3.638   0.751
  623TCM    cl3 3282   2.346   3.402   0.754
  624TCM     c1 3283   3.948   3.473   3.415
  624TCM    cl1 3284   4.091   3.533   3.325
  624TCM    cl2 3285   3.928   3.571   3.564
  624TCM     h1 3286   3.859   3.482   3.353
  624TCM    cl3 3287   3.974   3.301   3.458
  625TCM     c1 3288   0.297   4.608   4.138
  625TCM    cl1 3289   0.118   4.607   4.121
  625TCM    cl2 3290   0.344   4.744   4.246
  625TCM     h1 3291   0.331   4.514   4.181
  625TCM    cl3 3292   0.371   4.631   3.976
  626TCM     c1 3293   3.913   0.178   3.336
  626TCM    cl1 3294   4.022   0.117   3.464
  626TCM    cl2 3295   3.800   0.298   3.408
  626TCM     h1 3296   3.972   0.226   3.258
  626TCM    cl3 3297   3.819   0.042   3.267
  627TCM     c1 3298   2.423   2.570   3.224
  627TCM    cl1 3299   2.490   2.649   3.078
  627TCM    cl2 3300   2.479   2.657   3.370
  627TCM     h1 3301   2.313   2.572   3.220
  627TCM    cl3 3302   2.479   2.400   3.231
  628TCM     c1 3303   4.903   4.283   2.771
  628TCM    cl1 3304   4.933   4.432   2.867
  628TCM    cl2 3305   4.867   4.147   2.883
  628TCM     h1 3306   4.818   4.299   2.705
  628TCM    cl3 3307   5.048   4.244   2.673
  629TCM     c1 3308   2.445   0.732   2.022
  629TCM    cl1 3309   2.280   0.688   1.967
  629TCM    cl2 3310   2.481   0.649   2.177
  629TCM     h1 3311   2.518   0.703   1.946
  629TCM    cl3 3312   2.452   0.910   2.046
  630TCM     c1 3313   0.296   2.354   2.975
  630TCM    cl1 3314   0.180   2.425   2.859
  630TCM    cl2 3315   0.374   2.210   2.902
  630TCM     h1 3316   0.372   2.428   3.001
  630TCM    cl3 3317   0.209   2.304   3.123
  631TCM     c1 3318   0.884   3.962   0.720
  631TCM    cl1 3319   0.848   4.074   0.584
  631TCM    cl2 3320   1.051   3.898   0.701
  631TCM     h1 3321   0.876   4.015   0.815
  631TCM    cl3 3322   0.768   3.826   0.716
  632TCM     c1 3323   2.517   2.981   0.506
  632TCM    cl1 3324   2.448   3.146   0.517
  632TCM    cl2 3325   2.430   2.870   0.617
  632TCM     h1 3326   2.507   2.944   0.404
  632TCM    cl3 3327   2.691   2.988   0.551
  633TCM     c1 3328   0.554   0.135   0.761
  633TCM    cl1 3329   0.545  -0.044   0.748
  633TCM    cl2 3330   0.491   0.185   0.922
  633TCM     h1 3331   0.658   0.168   0.750
  633TCM    cl3 3332   0.454   0.210   0.632
  634TCM     c1 3333   0.085   1.988   2.977
  634TCM    cl1 3334  -0.035   2.047   3.095
  634TCM    cl2 3335   0.047   2.053   2.814
  634TCM     h1 3336   0.185   2.020   3.006
  634TCM    cl3 3337   0.078   1.809   2.972
  635TCM     c1 3338   2.448   0.592   3.271
  635TCM    cl1 3339   2.354   0.482   3.166
  635TCM    cl2 3340   2.607   0.516   3.308
  635TCM     h1 3341   2.464   0.687   3.220
  635TCM    cl3 3342   2.358   0.619   3.424
  636TCM     c1 3343   0.227   0.777   2.080
  636TCM    cl1 3344   0.300   0.941   2.068
  636TCM    cl2 3345   0.320   0.664   1.977
  636TCM     h1 3346   0.230   0.743   2.184
  636TCM    cl3 3347   0.057   0.782   2.023
  637TCM     c1 3348   4.081   0.217   4.264
  637TCM    cl1 3349   3.988   0.315   4.381
  637TCM    cl2 3350   4.042   0.272   4.097
  637TCM     h1 3351   4.188   0.228   4.282
  637TCM    cl3 3352   4.035   0.044   4.282
  638TCM     c1 3353   0.249   0.799   4.795
  638TCM    cl1 3354   0.413   0.756   4.735
  638TCM    cl2 3355   0.264   0.906   4.938
  638TCM     h1 3356   0.194   0.851   4.716
  638TCM    cl3 3357   0.162   0.649   4.840
  639TCM     c1 3358   2.718   0.564   1.443
  639TCM    cl1 3359   2.846   0.684   1.482
  639TCM    cl2 3360   2.615   0.540   1.588
  639TCM     h1 3361   2.658   0.601   1.360
  639TCM    cl3 3362   2.795   0.408   1.397
  640TCM     c1 3363   2.135   1.085   3.642
  640TCM    cl1 3364   2.112   1.019   3.808
  640TCM    cl2 3365   2.164   0.950   3.527
  640TCM     h1 3366   2.045   1.140   3.612
  640TCM    cl3 3367   2.276   1.195   3.640
   5.00000   5.00000   5.00000
