Giant Rising Ordinary Mutants for A Clerical Setup
 3367
    1PMP     C1    1   1.397   3.137   1.492
    1PMP     O2    2   1.349   3.049   1.593
    1PMP     C3    3   1.383   2.917   1.586
    1PMP     C4    4   1.444   2.851   1.694
    1PMP     C5    5   1.479   2.715   1.691
    1PMP     C6    6   1.574   2.659   1.791
    1PMP     C7    7   1.712   2.688   1.787
    1PMP     C8    8   1.805   2.635   1.877
    1PMP     C9    9   1.761   2.544   1.974
    1PMP    C10   10   1.866   2.481   2.059
    1PMP    O11   11   1.983   2.515   2.059
    1PMP    C12   12   1.625   2.514   1.982
    1PMP    C13   13   1.532   2.571   1.891
    1PMP    C14   14   1.425   2.640   1.587
    1PMP    C15   15   1.353   2.700   1.481
    1PMP    C16   16   1.280   2.622   1.376
    1PMP    C17   17   1.278   2.482   1.372
    1PMP    C18   18   1.188   2.414   1.288
    1PMP    C19   19   1.100   2.484   1.204
    1PMP    C20   20   0.983   2.420   1.131
    1PMP    C21   21   0.910   2.309   1.209
    1PMP    N22   22   0.885   2.516   1.075
    1PMP    C23   23   1.121   2.621   1.190
    1PMP    C24   24   1.202   2.688   1.280
    1PMP    C25   25   1.343   2.840   1.479
    1PMP    H26   26   1.499   3.171   1.514
    1PMP    H27   27   1.395   3.097   1.390
    1PMP    H28   28   1.337   3.229   1.495
    1PMP    H29   29   1.467   2.907   1.782
    1PMP    H30   30   1.755   2.750   1.709
    1PMP    H31   31   1.910   2.661   1.869
    1PMP    H32   32   1.589   2.444   2.057
    1PMP    H33   33   1.427   2.544   1.900
    1PMP    H34   34   1.438   2.532   1.592
    1PMP    H35   35   1.341   2.423   1.436
    1PMP    H36   36   1.185   2.306   1.293
    1PMP    H37   37   1.028   2.373   1.043
    1PMP    H38   38   0.964   2.274   1.298
    1PMP    H39   39   0.809   2.339   1.241
    1PMP    H40   40   0.896   2.223   1.143
    1PMP    H41   41   0.865   2.501   0.977
    1PMP    H42   42   1.065   2.681   1.119
    1PMP    H43   43   1.193   2.795   1.275
    1PMP    H44   44   1.294   2.894   1.400
    2PMP    C45   45   0.982   3.258   1.749
    2PMP    O46   46   0.977   3.157   1.848
    2PMP    C47   47   0.938   3.031   1.810
    2PMP    C48   48   0.909   2.990   1.679
    2PMP    C49   49   0.866   2.859   1.652
    2PMP    C50   50   0.846   2.803   1.516
    2PMP    C51   51   0.803   2.878   1.406
    2PMP    C52   52   0.790   2.818   1.279
    2PMP    C53   53   0.818   2.681   1.259
    2PMP    C54   54   0.811   2.623   1.122
    2PMP    O55   55   0.738   2.681   1.040
    2PMP    C56   56   0.855   2.606   1.370
    2PMP    C57   57   0.873   2.667   1.494
    2PMP    C58   58   0.847   2.774   1.762
    2PMP    C59   59   0.881   2.809   1.893
    2PMP    C60   60   0.865   2.708   2.000
    2PMP    C61   61   0.744   2.639   2.017
    2PMP    C62   62   0.726   2.549   2.122
    2PMP    C63   63   0.828   2.526   2.215
    2PMP    C64   64   0.792   2.455   2.345
    2PMP    C65   65   0.904   2.366   2.403
    2PMP    N66   66   0.736   2.554   2.439
    2PMP    C67   67   0.953   2.587   2.193
    2PMP    C68   68   0.970   2.677   2.087
    2PMP    C69   69   0.927   2.939   1.914
    2PMP    H70   70   0.885   3.271   1.700
    2PMP    H71   71   1.005   3.353   1.799
    2PMP    H72   72   1.061   3.237   1.677
    2PMP    H73   73   0.923   3.059   1.597
    2PMP    H74   74   0.778   2.983   1.417
    2PMP    H75   75   0.760   2.879   1.196
    2PMP    H76   76   0.877   2.500   1.365
    2PMP    H77   77   0.911   2.604   1.574
    2PMP    H78   78   0.808   2.673   1.745
    2PMP    H79   79   0.660   2.659   1.950
    2PMP    H80   80   0.629   2.502   2.135
    2PMP    H81   81   0.709   2.387   2.323
    2PMP    H82   82   0.939   2.294   2.328
    2PMP    H83   83   0.989   2.424   2.436
    2PMP    H84   84   0.867   2.309   2.489
    2PMP    H85   85   0.664   2.608   2.394
    2PMP    H86   86   1.035   2.572   2.262
    2PMP    H87   87   1.067   2.727   2.075
    2PMP    H88   88   0.955   2.972   2.014
    3PMP    C89   89   1.009   3.495   2.310
    3PMP    O90   90   1.105   3.445   2.218
    3PMP    C91   91   1.125   3.311   2.217
    3PMP    C92   92   1.050   3.215   2.284
    3PMP    C93   93   1.079   3.078   2.273
    3PMP    C94   94   0.995   2.982   2.346
    3PMP    C95   95   1.029   2.941   2.476
    3PMP    C96   96   0.959   2.835   2.539
    3PMP    C97   97   0.854   2.769   2.473
    3PMP    C98   98   0.822   2.630   2.518
    3PMP    O99   99   0.877   2.582   2.616
    3PMP   C100  100   0.806   2.826   2.355
    3PMP   C101  101   0.876   2.931   2.293
    3PMP   C102  102   1.190   3.038   2.190
    3PMP   C103  103   1.268   3.133   2.118
    3PMP   C104  104   1.380   3.107   2.020
    3PMP   C105  105   1.499   3.039   2.047
    3PMP   C106  106   1.606   3.034   1.951
    3PMP   C107  107   1.602   3.101   1.826
    3PMP   C108  108   1.715   3.088   1.722
    3PMP   C109  109   1.703   2.996   1.597
    3PMP   N110  110   1.765   3.220   1.685
    3PMP   C111  111   1.485   3.175   1.805
    3PMP   C112  112   1.375   3.170   1.895
    3PMP   C113  113   1.232   3.269   2.136
    3PMP   H114  114   1.036   3.467   2.412
    3PMP   H115  115   1.010   3.605   2.304
    3PMP   H116  116   0.908   3.461   2.285
    3PMP   H117  117   0.965   3.244   2.346
    3PMP   H118  118   1.113   2.985   2.528
    3PMP   H119  119   0.993   2.800   2.636
    3PMP   H120  120   0.722   2.784   2.302
    3PMP   H121  121   0.838   2.968   2.198
    3PMP   H122  122   1.212   2.932   2.179
    3PMP   H123  123   1.514   2.990   2.143
    3PMP   H124  124   1.695   2.976   1.975
    3PMP   H125  125   1.798   3.043   1.777
    3PMP   H126  126   1.677   2.895   1.620
    3PMP   H127  127   1.632   3.029   1.522
    3PMP   H128  128   1.800   2.991   1.547
    3PMP   H129  129   1.806   3.274   1.760
    3PMP   H130  130   1.472   3.233   1.715
    3PMP   H131  131   1.282   3.220   1.864
    3PMP   H132  132   1.289   3.345   2.084
    4PMP   C133  133   2.339   3.957   1.310
    4PMP   O134  134   2.215   4.014   1.268
    4PMP   C135  135   2.101   3.946   1.301
    4PMP   C136  136   2.094   3.827   1.374
    4PMP   C137  137   1.970   3.768   1.400
    4PMP   C138  138   1.953   3.639   1.469
    4PMP   C139  139   2.015   3.523   1.418
    4PMP   C140  140   1.965   3.399   1.454
    4PMP   C141  141   1.858   3.391   1.544
    4PMP   C142  142   1.787   3.263   1.556
    4PMP   O143  143   1.754   3.210   1.451
    4PMP   C144  144   1.806   3.504   1.607
    4PMP   C145  145   1.855   3.628   1.568
    4PMP   C146  146   1.854   3.829   1.351
    4PMP   C147  147   1.857   3.948   1.279
    4PMP   C148  148   1.731   4.011   1.240
    4PMP   C149  149   1.645   3.951   1.147
    4PMP   C150  150   1.527   4.014   1.107
    4PMP   C151  151   1.492   4.139   1.163
    4PMP   C152  152   1.380   4.221   1.099
    4PMP   C153  153   1.285   4.287   1.200
    4PMP   N154  154   1.442   4.313   1.004
    4PMP   C155  155   1.573   4.194   1.262
    4PMP   C156  156   1.693   4.131   1.298
    4PMP   C157  157   1.982   4.004   1.254
    4PMP   H158  158   2.354   3.859   1.266
    4PMP   H159  159   2.418   4.023   1.274
    4PMP   H160  160   2.345   3.954   1.419
    4PMP   H161  161   2.183   3.778   1.413
    4PMP   H162  162   2.091   3.530   1.341
    4PMP   H163  163   2.003   3.309   1.406
    4PMP   H164  164   1.720   3.496   1.674
    4PMP   H165  165   1.807   3.717   1.608
    4PMP   H166  166   1.757   3.781   1.369
    4PMP   H167  167   1.670   3.854   1.102
    4PMP   H168  168   1.465   3.969   1.029
    4PMP   H169  169   1.318   4.155   1.038
    4PMP   H170  170   1.237   4.211   1.262
    4PMP   H171  171   1.335   4.357   1.268
    4PMP   H172  172   1.206   4.342   1.147
    4PMP   H173  173   1.505   4.266   0.941
    4PMP   H174  174   1.550   4.290   1.306
    4PMP   H175  175   1.756   4.179   1.373
    4PMP   H176  176   1.989   4.097   1.196
    5CAP   C177  177   1.910   2.291   2.187
    5CAP   O178  178   1.813   2.375   2.124
    5CAP   H179  179   1.949   2.220   2.114
    5CAP   H180  180   1.858   2.234   2.267
    5CAP   H181  181   1.990   2.348   2.234
    6CAP   C182  182   1.870   4.449   1.028
    6CAP   C183  183   1.734   4.516   1.056
    6CAP   C184  184   1.727   4.546   1.206
    6CAP   C185  185   1.722   4.644   0.974
    6CAP   O186  186   1.634   4.420   1.010
    6CAP   C187  187   1.506   4.427   1.050
    6CAP   O188  188   1.456   4.512   1.120
    6CAP   H189  189   1.954   4.513   1.055
    6CAP   H190  190   1.878   4.355   1.084
    6CAP   H191  191   1.879   4.422   0.922
    6CAP   H192  192   1.727   4.454   1.266
    6CAP   H193  193   1.638   4.602   1.235
    6CAP   H194  194   1.812   4.607   1.239
    6CAP   H195  195   1.730   4.620   0.866
    6CAP   H196  196   1.625   4.691   0.988
    6CAP   H197  197   1.801   4.715   1.000
    1TCM     c1  198   4.336   0.335   2.675
    1TCM    cl1  199   4.461   0.360   2.550
    1TCM    cl2  200   4.240   0.484   2.693
    1TCM     h1  201   4.270   0.252   2.645
    1TCM    cl3  202   4.414   0.296   2.830
    1TCM     c1  203   1.693   2.480   4.345
    1TCM    cl1  204   1.602   2.327   4.354
    1TCM    cl2  205   1.626   2.595   4.462
    1TCM     h1  206   1.799   2.460   4.369
    1TCM    cl3  207   1.680   2.547   4.181
    1TCM     c1  208   2.048   2.404   1.410
    1TCM    cl1  209   2.017   2.335   1.571
    1TCM    cl2  210   2.039   2.274   1.288
    1TCM     h1  211   1.972   2.481   1.387
    1TCM    cl3  212   2.210   2.477   1.406
    1TCM     c1  213   2.648   0.610   3.808
    1TCM    cl1  214   2.692   0.500   3.675
    1TCM    cl2  215   2.681   0.531   3.964
    1TCM     h1  216   2.709   0.703   3.800
    1TCM    cl3  217   2.476   0.651   3.797
    1TCM     c1  218   2.169   1.758   2.865
    1TCM    cl1  219   2.049   1.864   2.787
    1TCM    cl2  220   2.123   1.733   3.035
    1TCM     h1  221   2.172   1.661   2.813
    1TCM    cl3  222   2.329   1.835   2.858
    1TCM     c1  223   5.035   1.289   0.560
    1TCM    cl1  224   5.172   1.233   0.461
    1TCM    cl2  225   5.082   1.289   0.731
    1TCM     h1  226   5.006   1.392   0.529
    1TCM    cl3  227   4.897   1.179   0.537
    1TCM     c1  228   2.898   0.794   2.575
    1TCM    cl1  229   2.768   0.910   2.541
    1TCM    cl2  230   2.828   0.632   2.596
    1TCM     h1  231   2.969   0.793   2.490
    1TCM    cl3  232   2.982   0.841   2.724
    1TCM     c1  233   3.774   4.024   4.738
    1TCM    cl1  234   3.710   3.940   4.595
    1TCM    cl2  235   3.650   4.133   4.803
    1TCM     h1  236   3.802   3.950   4.815
    1TCM    cl3  237   3.917   4.119   4.692
    1TCM     c1  238   0.769   4.148   3.479
    1TCM    cl1  239   0.813   3.983   3.429
    1TCM    cl2  240   0.831   4.264   3.359
    1TCM     h1  241   0.659   4.157   3.486
    1TCM    cl3  242   0.841   4.183   3.638
    1TCM     c1  243   3.899   1.343   2.589
    1TCM    cl1  244   3.880   1.339   2.766
    1TCM    cl2  245   4.048   1.257   2.544
    1TCM     h1  246   3.812   1.294   2.541
    1TCM    cl3  247   3.911   1.512   2.535
    1TCM     c1  248   4.914   3.092   4.463
    1TCM    cl1  249   4.739   3.074   4.484
    1TCM    cl2  250   4.984   2.936   4.413
    1TCM     h1  251   4.934   3.168   4.385
    1TCM    cl3  252   4.988   3.144   4.616
    1TCM     c1  253   0.516   2.838   1.448
    1TCM    cl1  254   0.508   3.014   1.470
    1TCM    cl2  255   0.352   2.774   1.420
    1TCM     h1  256   0.580   2.814   1.361
    1TCM    cl3  257   0.584   2.763   1.594
    1TCM     c1  258   1.416   1.827   2.639
    1TCM    cl1  259   1.309   1.962   2.593
    1TCM    cl2  260   1.465   1.738   2.493
    1TCM     h1  261   1.506   1.867   2.690
    1TCM    cl3  262   1.329   1.717   2.749
    1TCM     c1  263   4.279   4.436   0.724
    1TCM    cl1  264   4.448   4.428   0.779
    1TCM    cl2  265   4.245   4.299   0.617
    1TCM     h1  266   4.212   4.433   0.812
    1TCM    cl3  267   4.254   4.588   0.635
    1TCM     c1  268   2.570   5.231   3.837
    1TCM    cl1  269   2.652   5.079   3.877
    1TCM    cl2  270   2.578   5.341   3.977
    1TCM     h1  271   2.621   5.279   3.750
    1TCM    cl3  272   2.400   5.199   3.797
    1TCM     c1  273   2.877   1.888   3.064
    1TCM    cl1  274   3.032   1.814   3.017
    1TCM    cl2  275   2.787   1.774   3.168
    1TCM     h1  276   2.896   1.982   3.120
    1TCM    cl3  277   2.781   1.923   2.919
    1TCM     c1  278   0.683   3.113   5.017
    1TCM    cl1  279   0.814   3.198   4.932
    1TCM    cl2  280   0.694   2.939   4.984
    1TCM     h1  281   0.693   3.131   5.127
    1TCM    cl3  282   0.526   3.175   4.962
    1TCM     c1  283   4.596   3.536   2.149
    1TCM    cl1  284   4.539   3.648   2.023
    1TCM    cl2  285   4.457   3.455   2.224
    1TCM     h1  286   4.663   3.460   2.103
    1TCM    cl3  287   4.685   3.627   2.273
    1TCM     c1  288   5.245   3.666   4.906
    1TCM    cl1  289   5.095   3.746   4.854
    1TCM    cl2  290   5.340   3.777   5.007
    1TCM     h1  291   5.219   3.575   4.966
    1TCM    cl3  292   5.340   3.618   4.764
    1TCM     c1  293   2.176   1.158   3.524
    1TCM    cl1  294   2.300   1.284   3.546
    1TCM    cl2  295   2.201   1.077   3.367
    1TCM     h1  296   2.184   1.084   3.605
    1TCM    cl3  297   2.015   1.233   3.527
    1TCM     c1  298   1.318   2.098   2.786
    1TCM    cl1  299   1.333   1.925   2.825
    1TCM    cl2  300   1.182   2.122   2.674
    1TCM     h1  301   1.301   2.155   2.878
    1TCM    cl3  302   1.469   2.153   2.708
    1TCM     c1  303   3.141   4.698   4.826
    1TCM    cl1  304   3.161   4.703   4.650
    1TCM    cl2  305   3.153   4.529   4.882
    1TCM     h1  306   3.220   4.758   4.875
    1TCM    cl3  307   2.982   4.763   4.870
    1TCM     c1  308   2.704   2.467   2.026
    1TCM    cl1  309   2.622   2.437   1.871
    1TCM    cl2  310   2.659   2.629   2.086
    1TCM     h1  311   2.673   2.391   2.100
    1TCM    cl3  312   2.880   2.460   2.003
    1TCM     c1  313   2.730   2.026   5.067
    1TCM    cl1  314   2.832   1.933   5.178
    1TCM    cl2  315   2.827   2.077   4.926
    1TCM     h1  316   2.645   1.963   5.032
    1TCM    cl3  317   2.667   2.170   5.150
    1TCM     c1  318   4.925   0.262   1.257
    1TCM    cl1  319   4.775   0.168   1.241
    1TCM    cl2  320   4.910   0.376   1.393
    1TCM     h1  321   5.010   0.193   1.276
    1TCM    cl3  322   4.955   0.353   1.107
    1TCM     c1  323   3.035   0.851   1.262
    1TCM    cl1  324   3.103   0.688   1.243
    1TCM    cl2  325   2.861   0.846   1.227
    1TCM     h1  326   3.051   0.886   1.366
    1TCM    cl3  327   3.115   0.962   1.148
    1TCM     c1  328   3.961   3.278   1.871
    1TCM    cl1  329   3.954   3.107   1.824
    1TCM    cl2  330   3.968   3.290   2.049
    1TCM     h1  331   4.052   3.325   1.828
    1TCM    cl3  332   3.816   3.363   1.812
    1TCM     c1  333   1.026   0.849   3.697
    1TCM    cl1  334   0.900   0.900   3.582
    1TCM    cl2  335   0.984   0.909   3.860
    1TCM     h1  336   1.031   0.738   3.699
    1TCM    cl3  337   1.183   0.916   3.648
    1TCM     c1  338   0.702   5.166   4.128
    1TCM    cl1  339   0.598   5.300   4.182
    1TCM    cl2  340   0.858   5.173   4.213
    1TCM     h1  341   0.652   5.069   4.149
    1TCM    cl3  342   0.730   5.180   3.953
    1TCM     c1  343   2.806   3.637   3.434
    1TCM    cl1  344   2.953   3.604   3.529
    1TCM    cl2  345   2.850   3.667   3.265
    1TCM     h1  346   2.738   3.549   3.440
    1TCM    cl3  347   2.724   3.780   3.500
    1TCM     c1  348   0.145   0.922   2.645
    1TCM    cl1  349  -0.000   0.961   2.740
    1TCM    cl2  350   0.098   0.835   2.497
    1TCM     h1  351   0.198   1.016   2.618
    1TCM    cl3  352   0.253   0.820   2.742
    1TCM     c1  353   4.979   1.983   2.122
    1TCM    cl1  354   5.090   2.020   2.255
    1TCM    cl2  355   4.973   2.121   2.010
    1TCM     h1  356   5.015   1.893   2.067
    1TCM    cl3  357   4.816   1.952   2.187
    1TCM     c1  358   1.301   3.709   2.315
    1TCM    cl1  359   1.453   3.618   2.316
    1TCM    cl2  360   1.220   3.689   2.157
    1TCM     h1  361   1.234   3.672   2.395
    1TCM    cl3  362   1.335   3.882   2.342
    1TCM     c1  363   3.905   1.416   2.032
    1TCM    cl1  364   3.791   1.281   2.010
    1TCM    cl2  365   3.896   1.474   2.200
    1TCM     h1  366   4.008   1.381   2.010
    1TCM    cl3  367   3.861   1.548   1.922
    1TCM     c1  368   0.681   2.196   2.121
    1TCM    cl1  369   0.643   2.035   2.054
    1TCM    cl2  370   0.534   2.296   2.120
    1TCM     h1  371   0.718   2.185   2.225
    1TCM    cl3  372   0.806   2.273   2.021
    1TCM     c1  373   2.168   3.840   1.784
    1TCM    cl1  374   2.338   3.792   1.799
    1TCM    cl2  375   2.119   3.835   1.613
    1TCM     h1  376   2.105   3.770   1.842
    1TCM    cl3  377   2.147   4.005   1.847
    1TCM     c1  378   1.018   4.550   1.138
    1TCM    cl1  379   0.882   4.637   1.063
    1TCM    cl2  380   0.988   4.375   1.130
    1TCM     h1  381   1.111   4.574   1.084
    1TCM    cl3  382   1.034   4.600   1.308
    1TCM     c1  383   0.239   1.267   4.841
    1TCM    cl1  384   0.070   1.316   4.818
    1TCM    cl2  385   0.323   1.389   4.939
    1TCM     h1  386   0.242   1.169   4.893
    1TCM    cl3  387   0.319   1.252   4.683
    1TCM     c1  388   1.321   3.897   4.779
    1TCM    cl1  389   1.459   4.009   4.787
    1TCM    cl2  390   1.343   3.768   4.900
    1TCM     h1  391   1.227   3.952   4.800
    1TCM    cl3  392   1.313   3.825   4.617
    1TCM     c1  393   0.310   0.744   4.846
    1TCM    cl1  394   0.397   0.700   4.994
    1TCM    cl2  395   0.372   0.647   4.710
    1TCM     h1  396   0.202   0.724   4.859
    1TCM    cl3  397   0.335   0.917   4.811
    1TCM     c1  398   1.064   4.310   2.237
    1TCM    cl1  399   0.946   4.273   2.366
    1TCM    cl2  400   0.984   4.402   2.108
    1TCM     h1  401   1.147   4.370   2.280
    1TCM    cl3  402   1.128   4.157   2.171
    1TCM     c1  403   3.688   4.131   0.173
    1TCM    cl1  404   3.766   4.013   0.065
    1TCM    cl2  405   3.748   4.108   0.339
    1TCM     h1  406   3.712   4.234   0.139
    1TCM    cl3  407   3.512   4.107   0.170
    1TCM     c1  408   1.397   1.528   1.196
    1TCM    cl1  409   1.346   1.358   1.179
    1TCM    cl2  410   1.277   1.634   1.119
    1TCM     h1  411   1.406   1.553   1.304
    1TCM    cl3  412   1.555   1.550   1.117
    1TCM     c1  413   3.467   0.652   2.307
    1TCM    cl1  414   3.295   0.609   2.306
    1TCM    cl2  415   3.557   0.534   2.405
    1TCM     h1  416   3.506   0.650   2.203
    1TCM    cl3  417   3.488   0.814   2.375
    1TCM     c1  418   0.136   0.611   1.988
    1TCM    cl1  419   0.030   0.634   2.130
    1TCM    cl2  420   0.283   0.709   2.008
    1TCM     h1  421   0.163   0.504   1.980
    1TCM    cl3  422   0.050   0.662   1.842
    1TCM     c1  423   3.854   2.612   1.103
    1TCM    cl1  424   3.922   2.475   1.193
    1TCM    cl2  425   3.984   2.693   1.012
    1TCM     h1  426   3.777   2.576   1.033
    1TCM    cl3  427   3.781   2.728   1.217
    1TCM     c1  428   4.170   0.090   0.796
    1TCM    cl1  429   4.054   0.000   0.696
    1TCM    cl2  430   4.197   0.251   0.726
    1TCM     h1  431   4.130   0.100   0.899
    1TCM    cl3  432   4.325   0.001   0.802
    1TCM     c1  433   4.950   1.742   3.394
    1TCM    cl1  434   4.824   1.765   3.271
    1TCM    cl2  435   4.880   1.661   3.537
    1TCM     h1  436   5.031   1.678   3.352
    1TCM    cl3  437   5.017   1.899   3.442
    1TCM     c1  438   1.985   3.592   2.407
    1TCM    cl1  439   2.062   3.546   2.253
    1TCM    cl2  440   1.886   3.737   2.382
    1TCM     h1  441   1.920   3.509   2.441
    1TCM    cl3  442   2.110   3.625   2.529
    1TCM     c1  443   0.571   0.261   4.868
    1TCM    cl1  444   0.457   0.290   5.002
    1TCM    cl2  445   0.561   0.090   4.818
    1TCM     h1  446   0.545   0.326   4.782
    1TCM    cl3  447   0.737   0.297   4.922
    1TCM     c1  448   4.528   0.695   4.568
    1TCM    cl1  449   4.532   0.856   4.492
    1TCM    cl2  450   4.489   0.712   4.740
    1TCM     h1  451   4.450   0.633   4.518
    1TCM    cl3  452   4.686   0.617   4.550
    1TCM     c1  453   3.844   4.616   1.569
    1TCM    cl1  454   3.739   4.743   1.637
    1TCM    cl2  455   3.878   4.653   1.398
    1TCM     h1  456   3.939   4.613   1.626
    1TCM    cl3  457   3.762   4.459   1.580
    1TCM     c1  458   4.491   4.568   4.891
    1TCM    cl1  459   4.326   4.525   4.944
    1TCM    cl2  460   4.604   4.441   4.943
    1TCM     h1  461   4.493   4.576   4.781
    1TCM    cl3  462   4.538   4.723   4.964
    1TCM     c1  463   3.969   4.323   1.759
    1TCM    cl1  464   3.865   4.219   1.659
    1TCM    cl2  465   4.051   4.224   1.882
    1TCM     h1  466   4.045   4.372   1.695
    1TCM    cl3  467   3.869   4.447   1.839
    1TCM     c1  468   3.854   4.069   3.374
    1TCM    cl1  469   3.736   3.937   3.359
    1TCM    cl2  470   3.923   4.069   3.538
    1TCM     h1  471   3.935   4.056   3.299
    1TCM    cl3  472   3.772   4.225   3.345
    1TCM     c1  473   0.367   0.897   3.405
    1TCM    cl1  474   0.275   1.047   3.381
    1TCM    cl2  475   0.409   0.879   3.577
    1TCM     h1  476   0.306   0.810   3.373
    1TCM    cl3  477   0.516   0.903   3.309
    1TCM     c1  478   3.050   2.654   2.850
    1TCM    cl1  479   3.092   2.668   3.022
    1TCM    cl2  480   2.983   2.809   2.793
    1TCM     h1  481   3.141   2.630   2.792
    1TCM    cl3  482   2.929   2.526   2.829
    1TCM     c1  483   3.696   2.453   2.417
    1TCM    cl1  484   3.631   2.463   2.252
    1TCM    cl2  485   3.613   2.322   2.506
    1TCM     h1  486   3.805   2.431   2.413
    1TCM    cl3  487   3.670   2.607   2.501
    1TCM     c1  488   5.009   0.663   2.434
    1TCM    cl1  489   5.114   0.620   2.571
    1TCM    cl2  490   5.102   0.655   2.283
    1TCM     h1  491   4.924   0.592   2.428
    1TCM    cl3  492   4.947   0.828   2.456
    1TCM     c1  493   0.353   0.174   3.015
    1TCM    cl1  494   0.465   0.057   2.942
    1TCM    cl2  495   0.186   0.119   2.992
    1TCM     h1  496   0.375   0.184   3.123
    1TCM    cl3  497   0.374   0.333   2.936
    1TCM     c1  498   5.210   3.673   1.370
    1TCM    cl1  499   5.069   3.685   1.262
    1TCM    cl2  500   5.156   3.623   1.532
    1TCM     h1  501   5.281   3.598   1.330
    1TCM    cl3  502   5.290   3.831   1.380
    1TCM     c1  503   1.556   3.299   0.955
    1TCM    cl1  504   1.517   3.472   0.971
    1TCM    cl2  505   1.676   3.277   0.825
    1TCM     h1  506   1.598   3.261   1.050
    1TCM    cl3  507   1.409   3.209   0.915
    1TCM     c1  508   2.738   4.418   4.196
    1TCM    cl1  509   2.574   4.487   4.204
    1TCM    cl2  510   2.830   4.500   4.067
    1TCM     h1  511   2.789   4.434   4.293
    1TCM    cl3  512   2.728   4.244   4.161
    1TCM     c1  513   4.632   1.693   0.408
    1TCM    cl1  514   4.488   1.640   0.318
    1TCM    cl2  515   4.601   1.853   0.479
    1TCM     h1  516   4.654   1.620   0.488
    1TCM    cl3  517   4.771   1.703   0.297
    1TCM     c1  518   2.931   4.770   4.475
    1TCM    cl1  519   2.992   4.603   4.491
    1TCM    cl2  520   2.829   4.782   4.330
    1TCM     h1  521   2.871   4.796   4.565
    1TCM    cl3  522   3.068   4.882   4.461
    1TCM     c1  523   3.858   4.163   2.054
    1TCM    cl1  524   3.788   4.254   1.919
    1TCM    cl2  525   3.731   4.126   2.173
    1TCM     h1  526   3.901   4.068   2.016
    1TCM    cl3  527   3.986   4.260   2.131
    1TCM     c1  528   0.931   0.233   3.410
    1TCM    cl1  529   0.783   0.235   3.508
    1TCM    cl2  530   0.891   0.272   3.241
    1TCM     h1  531   1.002   0.308   3.449
    1TCM    cl3  532   1.005   0.072   3.417
    1TCM     c1  533   0.966   1.366   2.637
    1TCM    cl1  534   0.907   1.460   2.498
    1TCM    cl2  535   0.828   1.321   2.741
    1TCM     h1  536   1.016   1.274   2.601
    1TCM    cl3  537   1.081   1.464   2.730
    1TCM     c1  538   1.170   0.788   2.300
    1TCM    cl1  539   1.087   0.693   2.175
    1TCM    cl2  540   1.250   0.928   2.225
    1TCM     h1  541   1.097   0.823   2.375
    1TCM    cl3  542   1.292   0.686   2.380
    1TCM     c1  543   2.885   1.134   3.972
    1TCM    cl1  544   2.730   1.126   4.058
    1TCM    cl2  545   2.866   1.229   3.823
    1TCM     h1  546   2.961   1.182   4.036
    1TCM    cl3  547   2.938   0.969   3.931
    1TCM     c1  548   4.622   5.148   1.273
    1TCM    cl1  549   4.749   5.227   1.177
    1TCM    cl2  550   4.636   5.197   1.443
    1TCM     h1  551   4.522   5.178   1.234
    1TCM    cl3  552   4.640   4.971   1.260
    1TCM     c1  553   0.537   4.428   0.335
    1TCM    cl1  554   0.394   4.518   0.388
    1TCM    cl2  555   0.539   4.418   0.157
    1TCM     h1  556   0.629   4.481   0.370
    1TCM    cl3  557   0.533   4.264   0.403
    1TCM     c1  558   2.501   3.508   2.209
    1TCM    cl1  559   2.656   3.499   2.123
    1TCM    cl2  560   2.527   3.472   2.382
    1TCM     h1  561   2.458   3.609   2.199
    1TCM    cl3  562   2.388   3.388   2.140
    1TCM     c1  563   0.361   3.169   1.124
    1TCM    cl1  564   0.531   3.188   1.078
    1TCM    cl2  565   0.332   3.251   1.280
    1TCM     h1  566   0.296   3.214   1.046
    1TCM    cl3  567   0.322   2.996   1.141
    1TCM     c1  568   3.388   3.631   1.049
    1TCM    cl1  569   3.288   3.577   1.185
    1TCM    cl2  570   3.344   3.798   1.006
    1TCM     h1  571   3.495   3.628   1.077
    1TCM    cl3  572   3.360   3.525   0.909
    1TCM     c1  573   3.168   3.036   4.988
    1TCM    cl1  574   3.297   3.033   4.865
    1TCM    cl2  575   3.240   3.049   5.150
    1TCM     h1  576   3.102   3.122   4.969
    1TCM    cl3  577   3.074   2.885   4.977
    1TCM     c1  578   1.163   1.138   1.963
    1TCM    cl1  579   1.307   1.139   1.859
    1TCM    cl2  580   1.209   1.180   2.129
    1TCM     h1  581   1.090   1.212   1.925
    1TCM    cl3  582   1.090   0.976   1.961
    1TCM     c1  583   1.966   2.668   4.756
    1TCM    cl1  584   1.873   2.625   4.611
    1TCM    cl2  585   2.092   2.546   4.784
    1TCM     h1  586   2.014   2.767   4.741
    1TCM    cl3  587   1.858   2.675   4.897
    1TCM     c1  588   2.244   4.130   4.183
    1TCM    cl1  589   2.228   4.037   4.032
    1TCM    cl2  590   2.366   4.052   4.286
    1TCM     h1  591   2.276   4.233   4.160
    1TCM    cl3  592   2.088   4.133   4.267
    1TCM     c1  593   0.769   0.351   0.148
    1TCM    cl1  594   0.894   0.452   0.073
    1TCM    cl2  595   0.794   0.345   0.324
    1TCM     h1  596   0.669   0.394   0.126
    1TCM    cl3  597   0.778   0.186   0.082
    1TCM     c1  598   1.109   0.655   2.970
    1TCM    cl1  599   1.102   0.827   2.928
    1TCM    cl2  600   0.956   0.606   3.046
    1TCM     h1  601   1.125   0.595   2.878
    1TCM    cl3  602   1.243   0.627   3.083
    1TCM     c1  603   4.491   3.210   3.276
    1TCM    cl1  604   4.445   3.161   3.112
    1TCM    cl2  605   4.629   3.322   3.269
    1TCM     h1  606   4.405   3.261   3.325
    1TCM    cl3  607   4.537   3.066   3.371
    1TCM     c1  608   3.212   4.778   5.187
    1TCM    cl1  609   3.207   4.868   5.340
    1TCM    cl2  610   3.242   4.891   5.053
    1TCM     h1  611   3.293   4.703   5.190
    1TCM    cl3  612   3.056   4.696   5.161
    1TCM     c1  613   1.867   0.125   3.631
    1TCM    cl1  614   1.864   0.134   3.454
    1TCM    cl2  615   1.839   0.288   3.698
    1TCM     h1  616   1.787   0.057   3.666
    1TCM    cl3  617   2.025   0.065   3.686
    1TCM     c1  618   0.979   0.818   4.098
    1TCM    cl1  619   1.004   0.725   4.247
    1TCM    cl2  620   0.829   0.913   4.112
    1TCM     h1  621   1.064   0.887   4.082
    1TCM    cl3  622   0.966   0.707   3.959
    1TCM     c1  623   2.059   5.149   2.410
    1TCM    cl1  624   1.940   5.226   2.517
    1TCM    cl2  625   2.033   5.203   2.243
    1TCM     h1  626   2.161   5.176   2.442
    1TCM    cl3  627   2.040   4.972   2.418
    1TCM     c1  628   1.233   1.290   2.413
    1TCM    cl1  629   1.104   1.177   2.367
    1TCM    cl2  630   1.161   1.441   2.475
    1TCM     h1  631   1.296   1.244   2.492
    1TCM    cl3  632   1.333   1.327   2.271
    1TCM     c1  633   1.603   1.621   0.124
    1TCM    cl1  634   1.520   1.778   0.107
    1TCM    cl2  635   1.778   1.644   0.099
    1TCM     h1  636   1.585   1.581   0.225
    1TCM    cl3  637   1.540   1.508   0.002
    1TCM     c1  638   4.225   3.116   2.468
    1TCM    cl1  639   4.394   3.171   2.460
    1TCM    cl2  640   4.148   3.179   2.615
    1TCM     h1  641   4.170   3.153   2.379
    1TCM    cl3  642   4.221   2.938   2.471
    1TCM     c1  643   2.941   4.880   1.408
    1TCM    cl1  644   2.877   5.035   1.348
    1TCM    cl2  645   2.819   4.753   1.387
    1TCM     h1  646   3.032   4.854   1.351
    1TCM    cl3  647   2.982   4.895   1.581
    1TCM     c1  648   4.327   2.471   3.328
    1TCM    cl1  649   4.424   2.531   3.464
    1TCM    cl2  650   4.163   2.432   3.384
    1TCM     h1  651   4.322   2.548   3.249
    1TCM    cl3  652   4.404   2.324   3.262
    1TCM     c1  653   4.276   0.787   3.723
    1TCM    cl1  654   4.342   0.734   3.879
    1TCM    cl2  655   4.297   0.658   3.602
    1TCM     h1  656   4.168   0.810   3.734
    1TCM    cl3  657   4.361   0.933   3.668
    1TCM     c1  658   4.267   0.996   3.312
    1TCM    cl1  659   4.134   0.982   3.194
    1TCM    cl2  660   4.219   0.919   3.464
    1TCM     h1  661   4.357   0.946   3.272
    1TCM    cl3  662   4.302   1.168   3.341
    1TCM     c1  663   2.070   0.286   3.321
    1TCM    cl1  664   1.942   0.381   3.243
    1TCM    cl2  665   2.227   0.329   3.249
    1TCM     h1  666   2.072   0.309   3.430
    1TCM    cl3  667   2.040   0.113   3.298
    1TCM     c1  668   0.507   4.496   3.661
    1TCM    cl1  669   0.571   4.640   3.743
    1TCM    cl2  670   0.412   4.399   3.776
    1TCM     h1  671   0.443   4.527   3.576
    1TCM    cl3  672   0.642   4.398   3.599
    1TCM     c1  673   0.292   1.934   4.820
    1TCM    cl1  674   0.348   1.842   4.961
    1TCM    cl2  675   0.306   1.834   4.674
    1TCM     h1  676   0.186   1.964   4.835
    1TCM    cl3  677   0.391   2.080   4.801
    1TCM     c1  678   1.117   5.110   5.242
    1TCM    cl1  679   1.247   5.195   5.327
    1TCM    cl2  680   1.156   5.097   5.069
    1TCM     h1  681   1.105   5.008   5.285
    1TCM    cl3  682   0.965   5.200   5.261
    1TCM     c1  683   0.602   2.233   1.073
    1TCM    cl1  684   0.718   2.184   0.947
    1TCM    cl2  685   0.450   2.143   1.052
    1TCM     h1  686   0.644   2.211   1.173
    1TCM    cl3  687   0.570   2.407   1.059
    1TCM     c1  688   4.802   1.727   2.329
    1TCM    cl1  689   4.960   1.809   2.320
    1TCM    cl2  690   4.827   1.554   2.361
    1TCM     h1  691   4.742   1.771   2.411
    1TCM    cl3  692   4.716   1.747   2.175
    1TCM     c1  693   2.935   1.336   2.602
    1TCM    cl1  694   2.785   1.364   2.693
    1TCM    cl2  695   2.932   1.430   2.451
    1TCM     h1  696   3.022   1.367   2.664
    1TCM    cl3  697   2.949   1.163   2.564
    1TCM     c1  698   3.210   0.571   2.662
    1TCM    cl1  699   3.059   0.600   2.751
    1TCM    cl2  700   3.312   0.716   2.669
    1TCM     h1  701   3.263   0.485   2.707
    1TCM    cl3  702   3.171   0.534   2.492
    1TCM     c1  703   2.369   4.661   1.102
    1TCM    cl1  704   2.463   4.767   1.209
    1TCM    cl2  705   2.454   4.643   0.947
    1TCM     h1  706   2.359   4.561   1.150
    1TCM    cl3  707   2.208   4.731   1.074
    1TCM     c1  708   0.576   3.421   4.112
    1TCM    cl1  709   0.612   3.595   4.111
    1TCM    cl2  710   0.594   3.356   3.947
    1TCM     h1  711   0.646   3.369   4.180
    1TCM    cl3  712   0.409   3.396   4.167
    1TCM     c1  713   2.459   0.135   1.691
    1TCM    cl1  714   2.363   0.265   1.765
    1TCM    cl2  715   2.474  -0.001   1.805
    1TCM     h1  716   2.409   0.100   1.598
    1TCM    cl3  717   2.621   0.196   1.651
    1TCM     c1  718   2.674   4.932   3.612
    1TCM    cl1  719   2.527   4.934   3.511
    1TCM    cl2  720   2.631   4.884   3.777
    1TCM     h1  721   2.747   4.860   3.570
    1TCM    cl3  722   2.746   5.095   3.615
    1TCM     c1  723   3.661   3.677   4.830
    1TCM    cl1  724   3.593   3.841   4.829
    1TCM    cl2  725   3.814   3.676   4.739
    1TCM     h1  726   3.680   3.645   4.934
    1TCM    cl3  727   3.546   3.565   4.753
    1TCM     c1  728   1.714   0.250   4.769
    1TCM    cl1  729   1.559   0.215   4.849
    1TCM    cl2  730   1.693   0.240   4.592
    1TCM     h1  731   1.747   0.353   4.796
    1TCM    cl3  732   1.836   0.133   4.821
    1TCM     c1  733   3.456   3.773   1.895
    1TCM    cl1  734   3.406   3.628   1.985
    1TCM    cl2  735   3.607   3.836   1.966
    1TCM     h1  736   3.474   3.747   1.789
    1TCM    cl3  737   3.329   3.897   1.906
    1TCM     c1  738   0.234   2.773   2.138
    1TCM    cl1  739   0.301   2.917   2.219
    1TCM    cl2  740   0.266   2.783   1.963
    1TCM     h1  741   0.282   2.682   2.179
    1TCM    cl3  742   0.058   2.766   2.165
    1TCM     c1  743   1.852   0.924   3.536
    1TCM    cl1  744   1.873   1.004   3.378
    1TCM    cl2  745   1.822   0.751   3.511
    1TCM     h1  746   1.944   0.938   3.596
    1TCM    cl3  747   1.714   0.997   3.621
    1TCM     c1  748   1.459   4.573   3.681
    1TCM    cl1  749   1.316   4.678   3.696
    1TCM    cl2  750   1.493   4.543   3.509
    1TCM     h1  751   1.546   4.622   3.728
    1TCM    cl3  752   1.427   4.418   3.763
    1TCM     c1  753   1.299   3.252   3.569
    1TCM    cl1  754   1.328   3.385   3.683
    1TCM    cl2  755   1.391   3.280   3.419
    1TCM     h1  756   1.331   3.156   3.615
    1TCM    cl3  757   1.126   3.244   3.530
    1TCM     c1  758   4.864   2.335   2.486
    1TCM    cl1  759   4.723   2.381   2.389
    1TCM    cl2  760   4.815   2.310   2.655
    1TCM     h1  761   4.907   2.240   2.446
    1TCM    cl3  762   4.987   2.463   2.478
    1TCM     c1  763   2.483   1.451   1.792
    1TCM    cl1  764   2.359   1.473   1.917
    1TCM    cl2  765   2.534   1.610   1.731
    1TCM     h1  766   2.570   1.398   1.836
    1TCM    cl3  767   2.416   1.355   1.658
    1TCM     c1  768   1.359   0.147   3.737
    1TCM    cl1  769   1.183   0.172   3.738
    1TCM    cl2  770   1.411   0.100   3.574
    1TCM     h1  771   1.410   0.241   3.766
    1TCM    cl3  772   1.401   0.019   3.853
    1TCM     c1  773   4.300   3.802   2.733
    1TCM    cl1  774   4.466   3.739   2.741
    1TCM    cl2  775   4.188   3.683   2.804
    1TCM     h1  776   4.294   3.897   2.790
    1TCM    cl3  777   4.256   3.831   2.563
    1TCM     c1  778   4.424   1.298   4.029
    1TCM    cl1  779   4.457   1.154   3.931
    1TCM    cl2  780   4.475   1.267   4.197
    1TCM     h1  781   4.481   1.384   3.989
    1TCM    cl3  782   4.251   1.334   4.026
    1TCM     c1  783   3.742   2.055   2.676
    1TCM    cl1  784   3.674   2.120   2.827
    1TCM    cl2  785   3.881   2.155   2.627
    1TCM     h1  786   3.775   1.951   2.693
    1TCM    cl3  787   3.618   2.059   2.549
    1TCM     c1  788   4.960   4.009   3.377
    1TCM    cl1  789   5.067   3.894   3.462
    1TCM    cl2  790   4.975   3.984   3.201
    1TCM     h1  791   4.855   3.992   3.408
    1TCM    cl3  792   5.008   4.175   3.417
    1TCM     c1  793   0.469   1.826   0.646
    1TCM    cl1  794   0.479   1.740   0.801
    1TCM    cl2  795   0.347   1.954   0.656
    1TCM     h1  796   0.568   1.871   0.622
    1TCM    cl3  797   0.424   1.711   0.518
    1TCM     c1  798   3.710   1.695   3.651
    1TCM    cl1  799   3.863   1.760   3.713
    1TCM    cl2  800   3.702   1.717   3.475
    1TCM     h1  801   3.703   1.587   3.675
    1TCM    cl3  802   3.574   1.781   3.728
    1TCM     c1  803   1.455   2.409   2.973
    1TCM    cl1  804   1.385   2.376   2.813
    1TCM    cl2  805   1.434   2.267   3.078
    1TCM     h1  806   1.563   2.431   2.962
    1TCM    cl3  807   1.373   2.549   3.046
    1TCM     c1  808   0.303   3.047   0.164
    1TCM    cl1  809   0.310   3.225   0.157
    1TCM    cl2  810   0.384   2.991   0.312
    1TCM     h1  811   0.197   3.014   0.166
    1TCM    cl3  812   0.385   2.979   0.022
    1TCM     c1  813   0.828   4.669   5.025
    1TCM    cl1  814   0.701   4.619   5.138
    1TCM    cl2  815   0.757   4.773   4.899
    1TCM     h1  816   0.906   4.726   5.080
    1TCM    cl3  817   0.900   4.526   4.949
    1TCM     c1  818   4.706   4.854   0.142
    1TCM    cl1  819   4.851   4.830   0.042
    1TCM    cl2  820   4.754   4.874   0.312
    1TCM     h1  821   4.653   4.945   0.108
    1TCM    cl3  822   4.600   4.713   0.126
    1TCM     c1  823   0.970   1.646   0.253
    1TCM    cl1  824   1.110   1.597   0.351
    1TCM    cl2  825   1.025   1.746   0.117
    1TCM     h1  826   0.918   1.556   0.214
    1TCM    cl3  827   0.857   1.740   0.354
    1TCM     c1  828   2.437   0.378   3.525
    1TCM    cl1  829   2.397   0.518   3.627
    1TCM    cl2  830   2.467   0.432   3.358
    1TCM     h1  831   2.528   0.328   3.564
    1TCM    cl3  832   2.302   0.262   3.526
    1TCM     c1  833   0.527   1.538   3.322
    1TCM    cl1  834   0.537   1.538   3.499
    1TCM    cl2  835   0.677   1.470   3.254
    1TCM     h1  836   0.441   1.477   3.289
    1TCM    cl3  837   0.506   1.705   3.263
    1TCM     c1  838   0.340   4.409   4.977
    1TCM    cl1  839   0.313   4.266   4.875
    1TCM    cl2  840   0.373   4.358   5.144
    1TCM     h1  841   0.427   4.467   4.938
    1TCM    cl3  842   0.195   4.512   4.974
    1TCM     c1  843   4.294   1.434   2.198
    1TCM    cl1  844   4.460   1.490   2.231
    1TCM    cl2  845   4.184   1.500   2.321
    1TCM     h1  846   4.263   1.469   2.098
    1TCM    cl3  847   4.290   1.256   2.204
    1TCM     c1  848   1.485   0.669   1.810
    1TCM    cl1  849   1.450   0.542   1.929
    1TCM    cl2  850   1.419   0.622   1.652
    1TCM     h1  851   1.438   0.765   1.843
    1TCM    cl3  852   1.661   0.692   1.797
    1TCM     c1  853   2.016   1.891   3.559
    1TCM    cl1  854   2.003   2.004   3.422
    1TCM    cl2  855   1.959   1.970   3.707
    1TCM     h1  856   1.954   1.801   3.539
    1TCM    cl3  857   2.186   1.842   3.580
    1TCM     c1  858   2.646   3.612   3.829
    1TCM    cl1  859   2.760   3.695   3.937
    1TCM    cl2  860   2.577   3.471   3.914
    1TCM     h1  861   2.564   3.681   3.801
    1TCM    cl3  862   2.731   3.557   3.683
    1TCM     c1  863   0.857   1.375   3.741
    1TCM    cl1  864   0.822   1.319   3.576
    1TCM    cl2  865   0.706   1.422   3.822
    1TCM     h1  866   0.905   1.292   3.799
    1TCM    cl3  867   0.967   1.514   3.735
    1TCM     c1  868   0.793   4.414   1.931
    1TCM    cl1  869   0.663   4.401   1.812
    1TCM    cl2  870   0.727   4.386   2.094
    1TCM     h1  871   0.871   4.338   1.910
    1TCM    cl3  872   0.865   4.577   1.923
    1TCM     c1  873   3.714   4.174   2.603
    1TCM    cl1  874   3.868   4.190   2.516
    1TCM    cl2  875   3.669   4.002   2.613
    1TCM     h1  876   3.725   4.215   2.706
    1TCM    cl3  877   3.587   4.264   2.517
    1TCM     c1  878   0.681   2.570   3.590
    1TCM    cl1  879   0.681   2.590   3.413
    1TCM    cl2  880   0.789   2.435   3.634
    1TCM     h1  881   0.717   2.663   3.638
    1TCM    cl3  882   0.516   2.534   3.646
    1TCM     c1  883   1.798   3.918   1.780
    1TCM    cl1  884   1.783   3.955   1.606
    1TCM    cl2  885   1.636   3.916   1.854
    1TCM     h1  886   1.846   3.819   1.792
    1TCM    cl3  887   1.898   4.043   1.858
    1TCM     c1  888   1.647   1.518   2.620
    1TCM    cl1  889   1.543   1.640   2.696
    1TCM    cl2  890   1.579   1.356   2.648
    1TCM     h1  891   1.653   1.537   2.511
    1TCM    cl3  892   1.810   1.527   2.690
    1TCM     c1  893   3.953   0.136   4.035
    1TCM    cl1  894   4.036   0.041   3.910
    1TCM    cl2  895   4.047   0.131   4.186
    1TCM     h1  896   3.943   0.241   4.001
    1TCM    cl3  897   3.791   0.068   4.063
    1TCM     c1  898   0.162   4.542   4.579
    1TCM    cl1  899   0.310   4.620   4.519
    1TCM    cl2  900   0.047   4.667   4.632
    1TCM     h1  901   0.116   4.482   4.498
    1TCM    cl3  902   0.201   4.436   4.716
    1TCM     c1  903   1.159   1.987   0.675
    1TCM    cl1  904   1.217   1.854   0.573
    1TCM    cl2  905   1.212   1.961   0.843
    1TCM     h1  906   1.200   2.083   0.638
    1TCM    cl3  907   0.981   1.993   0.670
    1TCM     c1  908   2.721   2.852   0.299
    1TCM    cl1  909   2.664   2.941   0.156
    1TCM    cl2  910   2.690   2.679   0.278
    1TCM     h1  911   2.830   2.869   0.311
    1TCM    cl3  912   2.636   2.911   0.443
    1TCM     c1  913   3.615   1.427   3.448
    1TCM    cl1  914   3.490   1.382   3.329
    1TCM    cl2  915   3.763   1.477   3.363
    1TCM     h1  916   3.577   1.510   3.511
    1TCM    cl3  917   3.650   1.286   3.551
    1TCM     c1  918   3.522   0.283   1.971
    1TCM    cl1  919   3.576   0.426   2.063
    1TCM    cl2  920   3.533   0.318   1.797
    1TCM     h1  921   3.587   0.197   1.995
    1TCM    cl3  922   3.354   0.245   2.013
    1TCM     c1  923   4.125   2.685   1.509
    1TCM    cl1  924   4.083   2.770   1.660
    1TCM    cl2  925   4.106   2.510   1.533
    1TCM     h1  926   4.057   2.719   1.428
    1TCM    cl3  927   4.293   2.721   1.466
    1TCM     c1  928   3.013   4.243   2.682
    1TCM    cl1  929   2.861   4.152   2.668
    1TCM    cl2  930   3.078   4.224   2.847
    1TCM     h1  931   3.086   4.205   2.609
    1TCM    cl3  932   2.981   4.415   2.651
    1TCM     c1  933   4.436   1.113   2.778
    1TCM    cl1  934   4.526   1.006   2.887
    1TCM    cl2  935   4.435   1.043   2.614
    1TCM     h1  936   4.332   1.124   2.814
    1TCM    cl3  937   4.514   1.273   2.773
    1TCM     c1  938   1.098   2.089   4.965
    1TCM    cl1  939   1.072   2.260   5.006
    1TCM    cl2  940   1.118   1.994   5.115
    1TCM     h1  941   1.010   2.051   4.909
    1TCM    cl3  942   1.244   2.073   4.865
    1TCM     c1  943   2.376   4.577   4.604
    1TCM    cl1  944   2.540   4.585   4.671
    1TCM    cl2  945   2.317   4.409   4.610
    1TCM     h1  946   2.308   4.641   4.665
    1TCM    cl3  947   2.377   4.634   4.436
    1TCM     c1  948   2.306   5.079   5.105
    1TCM    cl1  949   2.277   5.174   5.252
    1TCM    cl2  950   2.475   5.099   5.054
    1TCM     h1  951   2.286   4.972   5.126
    1TCM    cl3  952   2.198   5.135   4.975
    1TCM     c1  953   2.034   1.287   3.018
    1TCM    cl1  954   2.078   1.306   3.190
    1TCM    cl2  955   1.972   1.122   2.991
    1TCM     h1  956   1.956   1.361   2.992
    1TCM    cl3  957   2.178   1.314   2.917
    1TCM     c1  958   1.945   2.211   5.153
    1TCM    cl1  959   1.868   2.355   5.224
    1TCM    cl2  960   2.024   2.255   5.000
    1TCM     h1  961   2.020   2.170   5.224
    1TCM    cl3  962   1.821   2.087   5.121
    1TCM     c1  963   2.286   1.816   1.704
    1TCM    cl1  964   2.374   1.727   1.831
    1TCM    cl2  965   2.329   1.749   1.545
    1TCM     h1  966   2.177   1.806   1.720
    1TCM    cl3  967   2.331   1.988   1.710
    1TCM     c1  968   2.667   2.711   0.845
    1TCM    cl1  969   2.729   2.552   0.897
    1TCM    cl2  970   2.758   2.766   0.703
    1TCM     h1  971   2.559   2.701   0.819
    1TCM    cl3  972   2.686   2.828   0.977
    1TCM     c1  973   3.072   1.880   2.015
    1TCM    cl1  974   2.978   2.016   1.949
    1TCM    cl2  975   3.127   1.776   1.881
    1TCM     h1  976   3.160   1.919   2.069
    1TCM    cl3  977   2.970   1.785   2.125
    1TCM     c1  978   4.632   4.633   2.716
    1TCM    cl1  979   4.629   4.589   2.889
    1TCM    cl2  980   4.750   4.763   2.690
    1TCM     h1  981   4.662   4.544   2.656
    1TCM    cl3  982   4.471   4.688   2.666
    1TCM     c1  983   3.215   0.417   4.909
    1TCM    cl1  984   3.356   0.479   4.997
    1TCM    cl2  985   3.139   0.550   4.817
    1TCM     h1  986   3.247   0.337   4.839
    1TCM    cl3  987   3.097   0.351   5.025
    1TCM     c1  988   3.964   3.998   4.137
    1TCM    cl1  989   3.952   3.820   4.131
    1TCM    cl2  990   4.043   4.047   4.288
    1TCM     h1  991   4.023   4.034   4.050
    1TCM    cl3  992   3.800   4.068   4.131
    1TCM     c1  993   1.975   1.394   2.603
    1TCM    cl1  994   1.884   1.308   2.730
    1TCM    cl2  995   2.054   1.537   2.674
    1TCM     h1  996   2.052   1.326   2.561
    1TCM    cl3  997   1.863   1.446   2.475
    1TCM     c1  998   2.675   0.496   0.140
    1TCM    cl1  999   2.830   0.408   0.146
    1TCM    cl2 1000   2.639   0.564   0.301
    1TCM     h1 1001   2.681   0.578   0.066
    1TCM    cl3 1002   2.545   0.383   0.094
    1TCM     c1 1003   2.453   2.909   2.033
    1TCM    cl1 1004   2.489   3.057   2.125
    1TCM    cl2 1005   2.451   2.947   1.859
    1TCM     h1 1006   2.531   2.833   2.053
    1TCM    cl3 1007   2.294   2.846   2.082
    1TCM     c1 1008   1.115   4.966   1.643
    1TCM    cl1 1009   1.095   5.142   1.642
    1TCM    cl2 1010   1.287   4.925   1.655
    1TCM     h1 1011   1.060   4.923   1.730
    1TCM    cl3 1012   1.049   4.898   1.492
    1TCM     c1 1013   4.248   2.316   4.402
    1TCM    cl1 1014   4.122   2.435   4.443
    1TCM    cl2 1015   4.180   2.152   4.415
    1TCM     h1 1016   4.282   2.334   4.298
    1TCM    cl3 1017   4.385   2.333   4.514
    1TCM     c1 1018   1.929   5.129   5.147
    1TCM    cl1 1019   1.848   5.006   5.048
    1TCM    cl2 1020   1.856   5.133   5.309
    1TCM     h1 1021   2.037   5.105   5.155
    1TCM    cl3 1022   1.910   5.288   5.070
    1TCM     c1 1023   3.461   3.792   0.644
    1TCM    cl1 1024   3.349   3.693   0.548
    1TCM    cl2 1025   3.527   3.694   0.777
    1TCM     h1 1026   3.544   3.827   0.579
    1TCM    cl3 1027   3.374   3.932   0.710
    1TCM     c1 1028   4.665   0.982   1.078
    1TCM    cl1 1029   4.701   1.033   1.244
    1TCM    cl2 1030   4.571   1.109   0.996
    1TCM     h1 1031   4.760   0.965   1.023
    1TCM    cl3 1032   4.570   0.832   1.081
    1TCM     c1 1033   4.133   1.839   1.946
    1TCM    cl1 1034   4.183   1.900   1.786
    1TCM    cl2 1035   4.041   1.965   2.031
    1TCM     h1 1036   4.070   1.749   1.932
    1TCM    cl3 1037   4.277   1.796   2.041
    1TCM     c1 1038   4.132   1.741   0.167
    1TCM    cl1 1039   4.193   1.578   0.201
    1TCM    cl2 1040   3.957   1.734   0.138
    1TCM     h1 1041   4.152   1.807   0.254
    1TCM    cl3 1042   4.213   1.806   0.023
    1TCM     c1 1043   3.988   3.240   4.817
    1TCM    cl1 1044   3.937   3.396   4.748
    1TCM    cl2 1045   4.150   3.258   4.888
    1TCM     h1 1046   3.917   3.209   4.895
    1TCM    cl3 1047   3.993   3.117   4.689
    1TCM     c1 1048   1.219   0.550   3.847
    1TCM    cl1 1049   1.220   0.565   4.024
    1TCM    cl2 1050   1.275   0.703   3.774
    1TCM     h1 1051   1.287   0.468   3.816
    1TCM    cl3 1052   1.054   0.515   3.792
    1TCM     c1 1053   3.582   0.359   1.439
    1TCM    cl1 1054   3.407   0.340   1.459
    1TCM    cl2 1055   3.622   0.368   1.266
    1TCM     h1 1056   3.615   0.453   1.489
    1TCM    cl3 1057   3.666   0.221   1.512
    1TCM     c1 1058   1.288   0.318   4.100
    1TCM    cl1 1059   1.423   0.431   4.075
    1TCM    cl2 1060   1.183   0.378   4.230
    1TCM     h1 1061   1.229   0.310   4.006
    1TCM    cl3 1062   1.352   0.158   4.144
    1TCM     c1 1063   3.131   5.263   3.615
    1TCM    cl1 1064   3.224   5.288   3.466
    1TCM    cl2 1065   2.970   5.336   3.598
    1TCM     h1 1066   3.120   5.154   3.635
    1TCM    cl3 1067   3.216   5.340   3.751
    1TCM     c1 1068   2.286   1.133   4.310
    1TCM    cl1 1069   2.278   1.038   4.160
    1TCM    cl2 1070   2.426   1.243   4.302
    1TCM     h1 1071   2.193   1.193   4.321
    1TCM    cl3 1072   2.304   1.024   4.449
    1TCM     c1 1073   3.295   0.740   0.367
    1TCM    cl1 1074   3.459   0.805   0.386
    1TCM    cl2 1075   3.294   0.567   0.409
    1TCM     h1 1076   3.225   0.795   0.433
    1TCM    cl3 1077   3.243   0.759   0.198
    1TCM     c1 1078   1.717   2.122   2.751
    1TCM    cl1 1079   1.610   2.137   2.893
    1TCM    cl2 1080   1.869   2.044   2.800
    1TCM     h1 1081   1.666   2.061   2.674
    1TCM    cl3 1082   1.752   2.284   2.686
    1TCM     c1 1083   5.002   4.021   4.679
    1TCM    cl1 1084   5.073   3.890   4.581
    1TCM    cl2 1085   4.912   4.131   4.573
    1TCM     h1 1086   4.933   3.977   4.754
    1TCM    cl3 1087   5.132   4.110   4.761
    1TCM     c1 1088   0.902   0.937   2.732
    1TCM    cl1 1089   0.862   1.106   2.773
    1TCM    cl2 1090   0.847   0.901   2.566
    1TCM     h1 1091   1.012   0.924   2.737
    1TCM    cl3 1092   0.822   0.827   2.846
    1TCM     c1 1093   4.736   0.997   3.654
    1TCM    cl1 1094   4.784   0.857   3.752
    1TCM    cl2 1095   4.792   0.974   3.486
    1TCM     h1 1096   4.626   1.007   3.655
    1TCM    cl3 1097   4.810   1.144   3.721
    1TCM     c1 1098   5.104   4.814   0.648
    1TCM    cl1 1099   5.234   4.895   0.739
    1TCM    cl2 1100   5.162   4.775   0.484
    1TCM     h1 1101   5.076   4.720   0.701
    1TCM    cl3 1102   4.963   4.922   0.637
    1TCM     c1 1103   0.713   3.391   0.372
    1TCM    cl1 1104   0.792   3.478   0.506
    1TCM    cl2 1105   0.544   3.356   0.416
    1TCM     h1 1106   0.715   3.454   0.281
    1TCM    cl3 1107   0.799   3.238   0.342
    1TCM     c1 1108   1.216   2.469   4.734
    1TCM    cl1 1109   1.203   2.331   4.845
    1TCM    cl2 1110   1.362   2.451   4.634
    1TCM     h1 1111   1.127   2.473   4.669
    1TCM    cl3 1112   1.227   2.620   4.828
    1TCM     c1 1113   0.715   3.247   0.715
    1TCM    cl1 1114   0.682   3.125   0.840
    1TCM    cl2 1115   0.684   3.177   0.554
    1TCM     h1 1116   0.649   3.335   0.730
    1TCM    cl3 1117   0.885   3.297   0.725
    1TCM     c1 1118   4.246   1.631   2.606
    1TCM    cl1 1119   4.318   1.747   2.492
    1TCM    cl2 1120   4.241   1.703   2.769
    1TCM     h1 1121   4.143   1.605   2.574
    1TCM    cl3 1122   4.346   1.483   2.610
    1TCM     c1 1123   2.138   0.583   4.333
    1TCM    cl1 1124   2.180   0.474   4.199
    1TCM    cl2 1125   2.137   0.751   4.274
    1TCM     h1 1126   2.037   0.557   4.371
    1TCM    cl3 1127   2.257   0.566   4.463
    1TCM     c1 1128   0.443   0.157   2.660
    1TCM    cl1 1129   0.524   0.001   2.633
    1TCM    cl2 1130   0.527   0.244   2.791
    1TCM     h1 1131   0.447   0.217   2.567
    1TCM    cl3 1132   0.274   0.129   2.707
    1TCM     c1 1133   1.876   4.550   4.438
    1TCM    cl1 1134   1.910   4.413   4.331
    1TCM    cl2 1135   1.952   4.523   4.596
    1TCM     h1 1136   1.916   4.643   4.393
    1TCM    cl3 1137   1.700   4.566   4.459
    1TCM     c1 1138   4.292   4.632   1.531
    1TCM    cl1 1139   4.210   4.708   1.392
    1TCM    cl2 1140   4.423   4.527   1.472
    1TCM     h1 1141   4.335   4.712   1.596
    1TCM    cl3 1142   4.175   4.536   1.624
    1TCM     c1 1143   1.137   2.613   0.565
    1TCM    cl1 1144   1.308   2.637   0.609
    1TCM    cl2 1145   1.124   2.474   0.455
    1TCM     h1 1146   1.078   2.594   0.657
    1TCM    cl3 1147   1.076   2.759   0.484
    1TCM     c1 1148   1.311   0.959   4.265
    1TCM    cl1 1149   1.220   1.084   4.352
    1TCM    cl2 1150   1.329   1.007   4.094
    1TCM     h1 1151   1.412   0.949   4.311
    1TCM    cl3 1152   1.225   0.804   4.274
    1TCM     c1 1153   1.958   1.617   0.848
    1TCM    cl1 1154   1.875   1.553   0.705
    1TCM    cl2 1155   1.888   1.544   0.995
    1TCM     h1 1156   2.066   1.592   0.842
    1TCM    cl3 1157   1.938   1.794   0.854
    1TCM     c1 1158   1.243   4.553   1.417
    1TCM    cl1 1159   1.137   4.417   1.372
    1TCM    cl2 1160   1.257   4.665   1.279
    1TCM     h1 1161   1.199   4.607   1.503
    1TCM    cl3 1162   1.404   4.491   1.460
    1TCM     c1 1163   5.111   2.790   2.640
    1TCM    cl1 1164   5.035   2.674   2.752
    1TCM    cl2 1165   5.052   2.759   2.475
    1TCM     h1 1166   5.084   2.893   2.670
    1TCM    cl3 1167   5.287   2.770   2.645
    1TCM     c1 1168   0.861   2.455   0.241
    1TCM    cl1 1169   0.824   2.405   0.075
    1TCM    cl2 1170   0.709   2.474   0.332
    1TCM     h1 1171   0.924   2.378   0.290
    1TCM    cl3 1172   0.948   2.610   0.238
    1TCM     c1 1173   3.683   4.703   3.437
    1TCM    cl1 1174   3.771   4.806   3.322
    1TCM    cl2 1175   3.797   4.590   3.514
    1TCM     h1 1176   3.636   4.766   3.515
    1TCM    cl3 1177   3.558   4.611   3.351
    1TCM     c1 1178   2.167   1.024   2.408
    1TCM    cl1 1179   2.343   1.033   2.384
    1TCM    cl2 1180   2.097   1.186   2.395
    1TCM     h1 1181   2.122   0.958   2.331
    1TCM    cl3 1182   2.134   0.958   2.570
    1TCM     c1 1183   0.716   4.620   4.519
    1TCM    cl1 1184   0.620   4.606   4.668
    1TCM    cl2 1185   0.607   4.636   4.379
    1TCM     h1 1186   0.781   4.710   4.525
    1TCM    cl3 1187   0.817   4.475   4.499
    1TCM     c1 1188   2.051   4.833   3.931
    1TCM    cl1 1189   2.095   4.951   4.057
    1TCM    cl2 1190   2.179   4.826   3.808
    1TCM     h1 1191   2.039   4.732   3.977
    1TCM    cl3 1192   1.898   4.882   3.855
    1TCM     c1 1193   1.190   0.281   1.294
    1TCM    cl1 1194   1.177   0.106   1.267
    1TCM    cl2 1195   1.132   0.320   1.457
    1TCM     h1 1196   1.296   0.313   1.284
    1TCM    cl3 1197   1.090   0.367   1.174
    1TCM     c1 1198   2.465   3.134   1.106
    1TCM    cl1 1199   2.443   3.129   1.282
    1TCM    cl2 1200   2.628   3.075   1.065
    1TCM     h1 1201   2.389   3.069   1.057
    1TCM    cl3 1202   2.446   3.301   1.048
    1TCM     c1 1203   1.024   3.620   1.112
    1TCM    cl1 1204   1.067   3.738   0.986
    1TCM    cl2 1205   0.925   3.490   1.040
    1TCM     h1 1206   1.116   3.577   1.155
    1TCM    cl3 1207   0.930   3.701   1.239
    1TCM     c1 1208   3.760   2.389   2.045
    1TCM    cl1 1209   3.837   2.538   2.104
    1TCM    cl2 1210   3.794   2.256   2.158
    1TCM     h1 1211   3.650   2.404   2.039
    1TCM    cl3 1212   3.824   2.348   1.885
    1TCM     c1 1213   2.782   2.487   1.275
    1TCM    cl1 1214   2.728   2.457   1.108
    1TCM    cl2 1215   2.911   2.610   1.275
    1TCM     h1 1216   2.697   2.522   1.336
    1TCM    cl3 1217   2.845   2.335   1.344
    1TCM     c1 1218   2.752   3.505   4.298
    1TCM    cl1 1219   2.725   3.626   4.170
    1TCM    cl2 1220   2.904   3.419   4.266
    1TCM     h1 1221   2.758   3.556   4.396
    1TCM    cl3 1222   2.617   3.390   4.299
    1TCM     c1 1223   1.190   2.798   4.172
    1TCM    cl1 1224   1.192   2.809   4.350
    1TCM    cl2 1225   1.021   2.794   4.115
    1TCM     h1 1226   1.242   2.886   4.129
    1TCM    cl3 1227   1.273   2.649   4.121
    1TCM     c1 1228   1.515   2.929   3.467
    1TCM    cl1 1229   1.538   2.780   3.561
    1TCM    cl2 1230   1.465   2.887   3.301
    1TCM     h1 1231   1.437   2.991   3.515
    1TCM    cl3 1232   1.668   3.020   3.461
    1TCM     c1 1233   3.797   4.795   3.861
    1TCM    cl1 1234   3.740   4.700   3.722
    1TCM    cl2 1235   3.790   4.695   4.008
    1TCM     h1 1236   3.901   4.827   3.843
    1TCM    cl3 1237   3.693   4.938   3.882
    1TCM     c1 1238   0.160   3.224   0.521
    1TCM    cl1 1239   0.238   3.236   0.680
    1TCM    cl2 1240   0.152   3.054   0.472
    1TCM     h1 1241   0.057   3.266   0.526
    1TCM    cl3 1242   0.255   3.316   0.401
    1TCM     c1 1243   1.461   2.285   5.094
    1TCM    cl1 1244   1.489   2.117   5.146
    1TCM    cl2 1245   1.550   2.396   5.201
    1TCM     h1 1246   1.497   2.298   4.989
    1TCM    cl3 1247   1.288   2.322   5.102
    1TCM     c1 1248   0.254   1.947   3.023
    1TCM    cl1 1249   0.284   1.779   2.972
    1TCM    cl2 1250   0.386   2.051   2.964
    1TCM     h1 1251   0.158   1.982   2.981
    1TCM    cl3 1252   0.248   1.954   3.201
    1TCM     c1 1253   3.695   0.230   4.946
    1TCM    cl1 1254   3.635   0.321   4.805
    1TCM    cl2 1255   3.564   0.128   5.010
    1TCM     h1 1256   3.780   0.167   4.916
    1TCM    cl3 1257   3.748   0.344   5.072
    1TCM     c1 1258   2.061   2.519   1.709
    1TCM    cl1 1259   2.201   2.449   1.625
    1TCM    cl2 1260   1.926   2.536   1.595
    1TCM     h1 1261   2.031   2.452   1.793
    1TCM    cl3 1262   2.105   2.678   1.774
    1TCM     c1 1263   4.175   0.698   4.244
    1TCM    cl1 1264   4.212   0.571   4.126
    1TCM    cl2 1265   3.999   0.709   4.266
    1TCM     h1 1266   4.223   0.674   4.341
    1TCM    cl3 1267   4.237   0.854   4.185
    1TCM     c1 1268   0.329   3.835   1.613
    1TCM    cl1 1269   0.362   3.956   1.487
    1TCM    cl2 1270   0.170   3.869   1.687
    1TCM     h1 1271   0.328   3.734   1.568
    1TCM    cl3 1272   0.455   3.843   1.738
    1TCM     c1 1273   0.257   1.620   0.922
    1TCM    cl1 1274   0.116   1.535   0.990
    1TCM    cl2 1275   0.351   1.694   1.054
    1TCM     h1 1276   0.320   1.548   0.867
    1TCM    cl3 1277   0.201   1.747   0.810
    1TCM     c1 1278   3.728   2.547   2.850
    1TCM    cl1 1279   3.645   2.699   2.891
    1TCM    cl2 1280   3.608   2.425   2.804
    1TCM     h1 1281   3.797   2.565   2.765
    1TCM    cl3 1282   3.821   2.490   2.990
    1TCM     c1 1283   0.291   4.833   2.865
    1TCM    cl1 1284   0.372   4.677   2.835
    1TCM    cl2 1285   0.141   4.805   2.957
    1TCM     h1 1286   0.358   4.900   2.922
    1TCM    cl3 1287   0.250   4.909   2.709
    1TCM     c1 1288   0.132   4.655   2.492
    1TCM    cl1 1289   0.067   4.687   2.655
    1TCM    cl2 1290   0.208   4.802   2.429
    1TCM     h1 1291   0.208   4.574   2.498
    1TCM    cl3 1292   0.000   4.605   2.384
    1TCM     c1 1293   0.451   2.508   2.457
    1TCM    cl1 1294   0.276   2.485   2.479
    1TCM    cl2 1295   0.486   2.536   2.285
    1TCM     h1 1296   0.485   2.595   2.516
    1TCM    cl3 1297   0.537   2.362   2.511
    1TCM     c1 1298   0.643   4.030   2.892
    1TCM    cl1 1299   0.476   3.996   2.943
    1TCM    cl2 1300   0.708   3.891   2.804
    1TCM     h1 1301   0.644   4.120   2.826
    1TCM    cl3 1302   0.744   4.062   3.036
    1TCM     c1 1303   2.388   0.720   4.080
    1TCM    cl1 1304   2.370   0.695   4.255
    1TCM    cl2 1305   2.228   0.738   4.005
    1TCM     h1 1306   2.449   0.811   4.061
    1TCM    cl3 1307   2.470   0.579   4.009
    1TCM     c1 1308   1.994   1.669   2.443
    1TCM    cl1 1309   2.075   1.775   2.326
    1TCM    cl2 1310   1.823   1.650   2.397
    1TCM     h1 1311   2.043   1.570   2.444
    1TCM    cl3 1312   2.003   1.742   2.605
    1TCM     c1 1313   0.751   3.214   2.464
    1TCM    cl1 1314   0.832   3.294   2.600
    1TCM    cl2 1315   0.744   3.326   2.326
    1TCM     h1 1316   0.808   3.123   2.435
    1TCM    cl3 1317   0.586   3.169   2.512
    1TCM     c1 1318   4.765   3.760   3.071
    1TCM    cl1 1319   4.718   3.858   2.930
    1TCM    cl2 1320   4.812   3.597   3.017
    1TCM     h1 1321   4.850   3.808   3.123
    1TCM    cl3 1322   4.627   3.747   3.183
    1TCM     c1 1323   4.305   1.067   4.576
    1TCM    cl1 1324   4.394   1.103   4.726
    1TCM    cl2 1325   4.415   1.084   4.436
    1TCM     h1 1326   4.266   0.963   4.580
    1TCM    cl3 1327   4.170   1.181   4.559
    1TCM     c1 1328   0.142   3.113   4.634
    1TCM    cl1 1329   0.310   3.065   4.602
    1TCM    cl2 1330   0.129   3.177   4.799
    1TCM     h1 1331   0.112   3.192   4.562
    1TCM    cl3 1332   0.036   2.972   4.616
    1TCM     c1 1333   1.020   1.985   0.255
    1TCM    cl1 1334   0.863   2.002   0.336
    1TCM    cl2 1335   1.117   2.132   0.284
    1TCM     h1 1336   1.074   1.897   0.296
    1TCM    cl3 1337   0.996   1.964   0.080
    1TCM     c1 1338   2.009   2.057   1.737
    1TCM    cl1 1339   2.016   2.217   1.813
    1TCM    cl2 1340   1.888   2.058   1.607
    1TCM     h1 1341   2.109   2.032   1.694
    1TCM    cl3 1342   1.965   1.935   1.858
    1TCM     c1 1343   2.581   4.472   3.880
    1TCM    cl1 1344   2.419   4.541   3.908
    1TCM    cl2 1345   2.680   4.588   3.789
    1TCM     h1 1346   2.629   4.450   3.978
    1TCM    cl3 1347   2.565   4.322   3.787
    1TCM     c1 1348   3.293   0.531   1.674
    1TCM    cl1 1349   3.232   0.395   1.771
    1TCM    cl2 1350   3.223   0.522   1.511
    1TCM     h1 1351   3.263   0.626   1.722
    1TCM    cl3 1352   3.470   0.522   1.664
    1TCM     c1 1353   2.480   4.817   4.873
    1TCM    cl1 1354   2.352   4.693   4.876
    1TCM    cl2 1355   2.533   4.843   4.705
    1TCM     h1 1356   2.441   4.912   4.914
    1TCM    cl3 1357   2.618   4.762   4.971
    1TCM     c1 1358   2.659   1.883   3.414
    1TCM    cl1 1359   2.730   1.822   3.565
    1TCM    cl2 1360   2.611   1.745   3.312
    1TCM     h1 1361   2.569   1.944   3.438
    1TCM    cl3 1362   2.778   1.983   3.328
    1TCM     c1 1363   0.839   1.810   4.961
    1TCM    cl1 1364   0.855   1.724   5.116
    1TCM    cl2 1365   0.992   1.801   4.872
    1TCM     h1 1366   0.758   1.763   4.901
    1TCM    cl3 1367   0.798   1.980   4.992
    1TCM     c1 1368   3.147   1.170   3.111
    1TCM    cl1 1369   3.197   1.037   3.218
    1TCM    cl2 1370   3.279   1.207   2.997
    1TCM     h1 1371   3.056   1.140   3.054
    1TCM    cl3 1372   3.111   1.314   3.208
    1TCM     c1 1373   3.708   0.765   1.664
    1TCM    cl1 1374   3.803   0.769   1.514
    1TCM    cl2 1375   3.626   0.921   1.687
    1TCM     h1 1376   3.632   0.684   1.657
    1TCM    cl3 1377   3.816   0.733   1.802
    1TCM     c1 1378   0.549   0.462   0.578
    1TCM    cl1 1379   0.650   0.596   0.636
    1TCM    cl2 1380   0.387   0.475   0.650
    1TCM     h1 1381   0.540   0.467   0.468
    1TCM    cl3 1382   0.622   0.307   0.625
    1TCM     c1 1383   0.842   3.830   3.733
    1TCM    cl1 1384   0.890   3.975   3.825
    1TCM    cl2 1385   0.830   3.691   3.844
    1TCM     h1 1386   0.744   3.848   3.685
    1TCM    cl3 1387   0.965   3.796   3.609
    1TCM     c1 1388   5.168   4.209   4.465
    1TCM    cl1 1389   5.279   4.260   4.594
    1TCM    cl2 1390   5.247   4.228   4.307
    1TCM     h1 1391   5.140   4.102   4.480
    1TCM    cl3 1392   5.021   4.309   4.470
    1TCM     c1 1393   3.749   1.789   0.939
    1TCM    cl1 1394   3.657   1.934   0.894
    1TCM    cl2 1395   3.780   1.790   1.114
    1TCM     h1 1396   3.691   1.699   0.913
    1TCM    cl3 1397   3.904   1.788   0.851
    1TCM     c1 1398   3.408   4.546   3.827
    1TCM    cl1 1399   3.341   4.391   3.885
    1TCM    cl2 1400   3.426   4.539   3.650
    1TCM     h1 1401   3.339   4.628   3.854
    1TCM    cl3 1402   3.566   4.574   3.902
    1TCM     c1 1403   1.682   4.734   3.219
    1TCM    cl1 1404   1.713   4.561   3.196
    1TCM    cl2 1405   1.808   4.829   3.137
    1TCM     h1 1406   1.583   4.760   3.176
    1TCM    cl3 1407   1.683   4.772   3.393
    1TCM     c1 1408   2.586   0.504   2.623
    1TCM    cl1 1409   2.646   0.607   2.755
    1TCM    cl2 1410   2.449   0.585   2.542
    1TCM     h1 1411   2.667   0.487   2.549
    1TCM    cl3 1412   2.532   0.349   2.689
    1TCM     c1 1413   3.327   2.126   4.221
    1TCM    cl1 1414   3.348   2.015   4.358
    1TCM    cl2 1415   3.461   2.243   4.219
    1TCM     h1 1416   3.327   2.068   4.126
    1TCM    cl3 1417   3.173   2.213   4.237
    1TCM     c1 1418   2.964   2.446   0.635
    1TCM    cl1 1419   2.879   2.574   0.545
    1TCM    cl2 1420   3.137   2.484   0.643
    1TCM     h1 1421   2.922   2.440   0.738
    1TCM    cl3 1422   2.940   2.290   0.553
    1TCM     c1 1423   1.603   0.448   5.022
    1TCM    cl1 1424   1.600   0.525   4.861
    1TCM    cl2 1425   1.437   0.420   5.077
    1TCM     h1 1426   1.657   0.351   5.015
    1TCM    cl3 1427   1.687   0.554   5.137
    1TCM     c1 1428   0.761   1.678   1.658
    1TCM    cl1 1429   0.644   1.712   1.787
    1TCM    cl2 1430   0.821   1.511   1.675
    1TCM     h1 1431   0.712   1.689   1.559
    1TCM    cl3 1432   0.897   1.792   1.670
    1TCM     c1 1433   5.007   3.163   0.364
    1TCM    cl1 1434   4.962   3.007   0.292
    1TCM    cl2 1435   4.880   3.214   0.477
    1TCM     h1 1436   5.103   3.153   0.418
    1TCM    cl3 1437   5.024   3.285   0.235
    1TCM     c1 1438   0.675   1.727   3.996
    1TCM    cl1 1439   0.722   1.592   4.101
    1TCM    cl2 1440   0.654   1.874   4.093
    1TCM     h1 1441   0.754   1.744   3.920
    1TCM    cl3 1442   0.522   1.688   3.914
    1TCM     c1 1443   0.961   0.805   0.465
    1TCM    cl1 1444   0.805   0.770   0.389
    1TCM    cl2 1445   1.046   0.652   0.500
    1TCM     h1 1446   1.023   0.867   0.397
    1TCM    cl3 1447   0.934   0.893   0.618
    1TCM     c1 1448   3.505   4.947   4.929
    1TCM    cl1 1449   3.473   4.985   5.100
    1TCM    cl2 1450   3.493   4.771   4.905
    1TCM     h1 1451   3.430   4.998   4.866
    1TCM    cl3 1452   3.668   5.002   4.885
    1TCM     c1 1453   3.134   3.872   3.649
    1TCM    cl1 1454   2.974   3.808   3.693
    1TCM    cl2 1455   3.151   3.874   3.472
    1TCM     h1 1456   3.144   3.976   3.688
    1TCM    cl3 1457   3.260   3.770   3.720
    1TCM     c1 1458   2.818   4.333   3.324
    1TCM    cl1 1459   2.772   4.451   3.199
    1TCM    cl2 1460   2.794   4.405   3.485
    1TCM     h1 1461   2.756   4.242   3.314
    1TCM    cl3 1462   2.990   4.289   3.304
    1TCM     c1 1463   3.497   1.335   2.706
    1TCM    cl1 1464   3.351   1.432   2.677
    1TCM    cl2 1465   3.492   1.270   2.872
    1TCM     h1 1466   3.501   1.252   2.634
    1TCM    cl3 1467   3.641   1.438   2.687
    1TCM     c1 1468   4.568   2.110   5.140
    1TCM    cl1 1469   4.692   2.102   5.267
    1TCM    cl2 1470   4.469   1.963   5.144
    1TCM     h1 1471   4.504   2.199   5.156
    1TCM    cl3 1472   4.647   2.123   4.981
    1TCM     c1 1473   3.173   2.183   0.800
    1TCM    cl1 1474   3.269   2.250   0.666
    1TCM    cl2 1475   3.209   2.273   0.949
    1TCM     h1 1476   3.065   2.193   0.776
    1TCM    cl3 1477   3.213   2.012   0.823
    1TCM     c1 1478   4.608   4.821   1.569
    1TCM    cl1 1479   4.677   4.657   1.559
    1TCM    cl2 1480   4.496   4.828   1.707
    1TCM     h1 1481   4.690   4.894   1.584
    1TCM    cl3 1482   4.521   4.858   1.419
    1TCM     c1 1483   4.626   0.718   3.263
    1TCM    cl1 1484   4.650   0.546   3.301
    1TCM    cl2 1485   4.573   0.734   3.094
    1TCM     h1 1486   4.549   0.761   3.330
    1TCM    cl3 1487   4.780   0.805   3.285
    1TCM     c1 1488   3.554   2.213   0.451
    1TCM    cl1 1489   3.671   2.346   0.440
    1TCM    cl2 1490   3.636   2.068   0.515
    1TCM     h1 1491   3.472   2.241   0.519
    1TCM    cl3 1492   3.489   2.178   0.290
    1TCM     c1 1493   1.770   0.143   2.735
    1TCM    cl1 1494   1.669   0.210   2.865
    1TCM    cl2 1495   1.919   0.239   2.721
    1TCM     h1 1496   1.796   0.038   2.759
    1TCM    cl3 1497   1.681   0.149   2.581
    1TCM     c1 1498   1.217   4.690   5.046
    1TCM    cl1 1499   1.392   4.709   5.071
    1TCM    cl2 1500   1.138   4.657   5.202
    1TCM     h1 1501   1.175   4.784   5.003
    1TCM    cl3 1502   1.187   4.555   4.935
    1TCM     c1 1503   5.127   0.296   4.513
    1TCM    cl1 1504   5.182   0.215   4.364
    1TCM    cl2 1505   5.161   0.192   4.653
    1TCM     h1 1506   5.181   0.393   4.524
    1TCM    cl3 1507   4.952   0.327   4.503
    1TCM     c1 1508   4.377   4.858   0.249
    1TCM    cl1 1509   4.211   4.880   0.311
    1TCM    cl2 1510   4.489   4.841   0.386
    1TCM     h1 1511   4.380   4.767   0.186
    1TCM    cl3 1512   4.423   4.999   0.152
    1TCM     c1 1513   0.576   2.530   3.924
    1TCM    cl1 1514   0.670   2.675   3.885
    1TCM    cl2 1515   0.570   2.508   4.100
    1TCM     h1 1516   0.472   2.541   3.884
    1TCM    cl3 1517   0.652   2.388   3.849
    1TCM     c1 1518   4.069   1.351   1.715
    1TCM    cl1 1519   4.164   1.385   1.568
    1TCM    cl2 1520   4.090   1.485   1.831
    1TCM     h1 1521   3.962   1.341   1.689
    1TCM    cl3 1522   4.126   1.199   1.789
    1TCM     c1 1523   1.432   4.920   0.405
    1TCM    cl1 1524   1.561   5.041   0.384
    1TCM    cl2 1525   1.420   4.876   0.577
    1TCM     h1 1526   1.336   4.962   0.371
    1TCM    cl3 1527   1.471   4.775   0.310
    1TCM     c1 1528   3.325   1.127   4.022
    1TCM    cl1 1529   3.302   1.142   3.846
    1TCM    cl2 1530   3.451   1.006   4.055
    1TCM     h1 1531   3.355   1.224   4.064
    1TCM    cl3 1532   3.172   1.075   4.097
    1TCM     c1 1533   4.653   3.549   3.719
    1TCM    cl1 1534   4.761   3.483   3.594
    1TCM    cl2 1535   4.551   3.419   3.785
    1TCM     h1 1536   4.714   3.594   3.800
    1TCM    cl3 1537   4.550   3.675   3.647
    1TCM     c1 1538   1.396   0.830   0.621
    1TCM    cl1 1539   1.276   0.925   0.711
    1TCM    cl2 1540   1.475   0.715   0.731
    1TCM     h1 1541   1.345   0.775   0.539
    1TCM    cl3 1542   1.518   0.939   0.552
    1TCM     c1 1543   0.860   2.000   0.901
    1TCM    cl1 1544   0.934   2.032   1.060
    1TCM    cl2 1545   0.867   2.148   0.802
    1TCM     h1 1546   0.914   1.919   0.850
    1TCM    cl3 1547   0.690   1.953   0.924
    1TCM     c1 1548   3.484   3.095   2.414
    1TCM    cl1 1549   3.648   3.078   2.346
    1TCM    cl2 1550   3.476   3.244   2.510
    1TCM     h1 1551   3.410   3.100   2.332
    1TCM    cl3 1552   3.448   2.955   2.518
    1TCM     c1 1553   3.251   3.558   2.836
    1TCM    cl1 1554   3.128   3.686   2.827
    1TCM    cl2 1555   3.172   3.400   2.853
    1TCM     h1 1556   3.312   3.559   2.743
    1TCM    cl3 1557   3.357   3.588   2.976
    1TCM     c1 1558   1.307   1.198   0.315
    1TCM    cl1 1559   1.298   1.052   0.415
    1TCM    cl2 1560   1.176   1.196   0.195
    1TCM     h1 1561   1.297   1.288   0.380
    1TCM    cl3 1562   1.464   1.203   0.232
    1TCM     c1 1563   3.052   0.246   0.877
    1TCM    cl1 1564   3.124   0.293   1.033
    1TCM    cl2 1565   2.926   0.124   0.903
    1TCM     h1 1566   3.008   0.336   0.828
    1TCM    cl3 1567   3.179   0.179   0.771
    1TCM     c1 1568   1.899   3.342   0.990
    1TCM    cl1 1569   1.800   3.471   0.916
    1TCM    cl2 1570   1.882   3.349   1.167
    1TCM     h1 1571   1.864   3.243   0.954
    1TCM    cl3 1572   2.069   3.365   0.945
    1TCM     c1 1573   2.929   3.797   2.006
    1TCM    cl1 1574   3.063   3.912   2.024
    1TCM    cl2 1575   2.862   3.760   2.166
    1TCM     h1 1576   2.851   3.842   1.942
    1TCM    cl3 1577   2.989   3.647   1.931
    1TCM     c1 1578   4.558   0.507   4.116
    1TCM    cl1 1579   4.689   0.391   4.146
    1TCM    cl2 1580   4.612   0.670   4.161
    1TCM     h1 1581   4.532   0.506   4.008
    1TCM    cl3 1582   4.415   0.463   4.212
    1TCM     c1 1583   4.665   3.018   4.764
    1TCM    cl1 1584   4.816   2.974   4.680
    1TCM    cl2 1585   4.660   2.936   4.922
    1TCM     h1 1586   4.661   3.128   4.778
    1TCM    cl3 1587   4.526   2.967   4.666
    1TCM     c1 1588   1.117   4.670   2.413
    1TCM    cl1 1589   1.029   4.757   2.285
    1TCM    cl2 1590   1.166   4.786   2.539
    1TCM     h1 1591   1.050   4.593   2.457
    1TCM    cl3 1592   1.261   4.592   2.345
    1TCM     c1 1593   5.133   0.238   0.373
    1TCM    cl1 1594   4.960   0.204   0.347
    1TCM    cl2 1595   5.206   0.291   0.219
    1TCM     h1 1596   5.144   0.319   0.448
    1TCM    cl3 1597   5.214   0.091   0.430
    1TCM     c1 1598   4.576   0.469   3.657
    1TCM    cl1 1599   4.590   0.367   3.511
    1TCM    cl2 1600   4.613   0.637   3.614
    1TCM     h1 1601   4.473   0.462   3.697
    1TCM    cl3 1602   4.692   0.412   3.779
    1TCM     c1 1603   3.609   5.099   4.455
    1TCM    cl1 1604   3.566   5.222   4.575
    1TCM    cl2 1605   3.785   5.079   4.451
    1TCM     h1 1606   3.561   5.002   4.482
    1TCM    cl3 1607   3.551   5.150   4.295
    1TCM     c1 1608   1.708   1.679   2.002
    1TCM    cl1 1609   1.808   1.617   2.135
    1TCM    cl2 1610   1.783   1.637   1.846
    1TCM     h1 1611   1.607   1.635   2.007
    1TCM    cl3 1612   1.696   1.856   2.015
    1TCM     c1 1613   5.270   0.241   1.512
    1TCM    cl1 1614   5.110   0.260   1.587
    1TCM    cl2 1615   5.256   0.266   1.337
    1TCM     h1 1616   5.340   0.316   1.555
    1TCM    cl3 1617   5.332   0.078   1.544
    1TCM     c1 1618   3.317   1.767   2.806
    1TCM    cl1 1619   3.202   1.753   2.671
    1TCM    cl2 1620   3.238   1.849   2.943
    1TCM     h1 1621   3.349   1.666   2.838
    1TCM    cl3 1622   3.458   1.861   2.754
    1TCM     c1 1623   3.622   0.408   0.550
    1TCM    cl1 1624   3.713   0.558   0.524
    1TCM    cl2 1625   3.676   0.285   0.434
    1TCM     h1 1626   3.641   0.371   0.654
    1TCM    cl3 1627   3.449   0.439   0.529
    1TCM     c1 1628   0.601   1.277   1.828
    1TCM    cl1 1629   0.536   1.295   1.664
    1TCM    cl2 1630   0.577   1.109   1.883
    1TCM     h1 1631   0.709   1.300   1.828
    1TCM    cl3 1632   0.516   1.388   1.938
    1TCM     c1 1633   2.803   3.837   1.327
    1TCM    cl1 1634   2.781   3.732   1.186
    1TCM    cl2 1635   2.725   3.763   1.469
    1TCM     h1 1636   2.911   3.851   1.347
    1TCM    cl3 1637   2.729   3.996   1.295
    1TCM     c1 1638   2.415   2.573   4.425
    1TCM    cl1 1639   2.516   2.515   4.291
    1TCM    cl2 1640   2.455   2.483   4.573
    1TCM     h1 1641   2.433   2.681   4.441
    1TCM    cl3 1642   2.243   2.547   4.385
    1TCM     c1 1643   0.544   2.353   0.809
    1TCM    cl1 1644   0.709   2.383   0.867
    1TCM    cl2 1645   0.546   2.332   0.633
    1TCM     h1 1646   0.504   2.261   0.857
    1TCM    cl3 1647   0.440   2.491   0.851
    1TCM     c1 1648   2.615   0.463   1.628
    1TCM    cl1 1649   2.744   0.367   1.551
    1TCM    cl2 1650   2.616   0.433   1.804
    1TCM     h1 1651   2.633   0.571   1.609
    1TCM    cl3 1652   2.458   0.416   1.561
    1TCM     c1 1653   2.480   3.641   0.169
    1TCM    cl1 1654   2.398   3.595   0.017
    1TCM    cl2 1655   2.414   3.544   0.303
    1TCM     h1 1656   2.589   3.622   0.159
    1TCM    cl3 1657   2.452   3.813   0.201
    1TCM     c1 1658   0.151   3.441   4.970
    1TCM    cl1 1659   0.256   3.307   5.018
    1TCM    cl2 1660   0.143   3.450   4.792
    1TCM     h1 1661   0.049   3.424   5.010
    1TCM    cl3 1662   0.216   3.594   5.034
    1TCM     c1 1663   3.933   1.951   1.695
    1TCM    cl1 1664   3.793   1.872   1.770
    1TCM    cl2 1665   4.015   2.053   1.815
    1TCM     h1 1666   4.004   1.874   1.658
    1TCM    cl3 1667   3.879   2.051   1.559
    1TCM     c1 1668   2.243   2.817   2.765
    1TCM    cl1 1669   2.154   2.970   2.755
    1TCM    cl2 1670   2.277   2.758   2.600
    1TCM     h1 1671   2.338   2.832   2.819
    1TCM    cl3 1672   2.144   2.697   2.851
    1TCM     c1 1673   4.432   2.777   0.700
    1TCM    cl1 1674   4.583   2.828   0.622
    1TCM    cl2 1675   4.413   2.866   0.854
    1TCM     h1 1676   4.346   2.800   0.634
    1TCM    cl3 1677   4.437   2.603   0.733
    1TCM     c1 1678   5.123   4.285   1.798
    1TCM    cl1 1679   4.990   4.167   1.793
    1TCM    cl2 1680   5.129   4.374   1.644
    1TCM     h1 1681   5.106   4.357   1.881
    1TCM    cl3 1682   5.277   4.201   1.823
    1TCM     c1 1683   3.268   1.765   3.806
    1TCM    cl1 1684   3.222   1.593   3.806
    1TCM    cl2 1685   3.422   1.785   3.892
    1TCM     h1 1686   3.279   1.800   3.701
    1TCM    cl3 1687   3.142   1.860   3.887
    1TCM     c1 1688   0.893   3.830   2.404
    1TCM    cl1 1689   0.901   3.804   2.228
    1TCM    cl2 1690   0.922   3.675   2.487
    1TCM     h1 1691   0.971   3.903   2.434
    1TCM    cl3 1692   0.733   3.892   2.448
    1TCM     c1 1693   3.033   4.174   2.314
    1TCM    cl1 1694   3.008   4.108   2.151
    1TCM    cl2 1695   3.119   4.055   2.414
    1TCM     h1 1696   3.093   4.267   2.308
    1TCM    cl3 1697   2.875   4.210   2.388
    1TCM     c1 1698   1.202   2.758   2.377
    1TCM    cl1 1699   1.061   2.795   2.275
    1TCM    cl2 1700   1.147   2.685   2.530
    1TCM     h1 1701   1.268   2.687   2.324
    1TCM    cl3 1702   1.291   2.908   2.411
    1TCM     c1 1703   4.598   0.155   5.160
    1TCM    cl1 1704   4.693   0.273   5.066
    1TCM    cl2 1705   4.517   0.238   5.294
    1TCM     h1 1706   4.523   0.108   5.094
    1TCM    cl3 1707   4.707   0.030   5.225
    1TCM     c1 1708   4.153   4.922   2.379
    1TCM    cl1 1709   3.999   4.906   2.465
    1TCM    cl2 1710   4.122   4.972   2.211
    1TCM     h1 1711   4.216   4.998   2.429
    1TCM    cl3 1712   4.238   4.766   2.380
    1TCM     c1 1713   1.429   5.025   3.126
    1TCM    cl1 1714   1.304   5.144   3.168
    1TCM    cl2 1715   1.569   5.045   3.235
    1TCM     h1 1716   1.388   4.923   3.137
    1TCM    cl3 1717   1.482   5.050   2.958
    1TCM     c1 1718   3.396   5.017   3.751
    1TCM    cl1 1719   3.411   5.193   3.775
    1TCM    cl2 1720   3.466   4.932   3.890
    1TCM     h1 1721   3.288   4.990   3.741
    1TCM    cl3 1722   3.482   4.970   3.603
    1TCM     c1 1723   3.633   2.204   4.862
    1TCM    cl1 1724   3.796   2.168   4.801
    1TCM    cl2 1725   3.645   2.265   5.029
    1TCM     h1 1726   3.586   2.280   4.798
    1TCM    cl3 1727   3.535   2.056   4.860
    1TCM     c1 1728   4.862   4.220   2.579
    1TCM    cl1 1729   4.806   4.389   2.568
    1TCM    cl2 1730   4.782   4.123   2.452
    1TCM     h1 1731   4.972   4.216   2.564
    1TCM    cl3 1732   4.821   4.154   2.738
    1TCM     c1 1733   5.015   3.143   2.469
    1TCM    cl1 1734   5.185   3.093   2.462
    1TCM    cl2 1735   4.986   3.234   2.619
    1TCM     h1 1736   4.991   3.208   2.382
    1TCM    cl3 1737   4.910   2.999   2.467
    1TCM     c1 1738   1.505   2.260   0.809
    1TCM    cl1 1739   1.432   2.116   0.883
    1TCM    cl2 1740   1.432   2.288   0.649
    1TCM     h1 1741   1.487   2.348   0.874
    1TCM    cl3 1742   1.680   2.235   0.791
    1TCM     c1 1743   1.105   1.979   4.052
    1TCM    cl1 1744   1.203   1.834   4.088
    1TCM    cl2 1745   1.208   2.102   3.976
    1TCM     h1 1746   1.023   1.952   3.983
    1TCM    cl3 1747   1.037   2.043   4.203
    1TCM     c1 1748   4.129   3.590   1.306
    1TCM    cl1 1749   4.079   3.757   1.339
    1TCM    cl2 1750   4.022   3.518   1.184
    1TCM     h1 1751   4.234   3.589   1.268
    1TCM    cl3 1752   4.121   3.494   1.456
    1TCM     c1 1753   0.262   5.173   2.133
    1TCM    cl1 1754   0.313   5.017   2.064
    1TCM    cl2 1755   0.310   5.180   2.305
    1TCM     h1 1756   0.311   5.256   2.078
    1TCM    cl3 1757   0.085   5.189   2.121
    1TCM     c1 1758   1.728   2.148   1.796
    1TCM    cl1 1759   1.740   2.219   1.634
    1TCM    cl2 1760   1.760   1.973   1.787
    1TCM     h1 1761   1.802   2.195   1.863
    1TCM    cl3 1762   1.564   2.174   1.861
    1TCM     c1 1763   0.859   2.385   4.142
    1TCM    cl1 1764   0.885   2.539   4.057
    1TCM    cl2 1765   1.006   2.286   4.129
    1TCM     h1 1766   0.836   2.404   4.248
    1TCM    cl3 1767   0.723   2.298   4.067
    1TCM     c1 1768   1.107   0.888   5.165
    1TCM    cl1 1769   0.933   0.921   5.142
    1TCM    cl2 1770   1.146   0.896   5.338
    1TCM     h1 1771   1.131   0.788   5.126
    1TCM    cl3 1772   1.202   1.011   5.077
    1TCM     c1 1773   3.698   2.962   1.033
    1TCM    cl1 1774   3.550   2.982   1.130
    1TCM    cl2 1775   3.699   3.082   0.902
    1TCM     h1 1776   3.787   2.977   1.097
    1TCM    cl3 1777   3.701   2.798   0.964
    1TCM     c1 1778   3.682   5.011   3.029
    1TCM    cl1 1779   3.664   5.185   3.062
    1TCM    cl2 1780   3.762   4.990   2.871
    1TCM     h1 1781   3.744   4.964   3.108
    1TCM    cl3 1782   3.522   4.934   3.024
    1TCM     c1 1783   4.621   3.196   5.179
    1TCM    cl1 1784   4.510   3.299   5.085
    1TCM    cl2 1785   4.552   3.165   5.339
    1TCM     h1 1786   4.635   3.099   5.125
    1TCM    cl3 1787   4.777   3.278   5.196
    1TCM     c1 1788   4.464   2.820   2.970
    1TCM    cl1 1789   4.369   2.866   2.826
    1TCM    cl2 1790   4.354   2.758   3.095
    1TCM     h1 1791   4.537   2.741   2.942
    1TCM    cl3 1792   4.550   2.962   3.032
    1TCM     c1 1793   2.320   4.449   3.616
    1TCM    cl1 1794   2.459   4.343   3.582
    1TCM    cl2 1795   2.378   4.602   3.685
    1TCM     h1 1796   2.264   4.468   3.523
    1TCM    cl3 1797   2.213   4.368   3.734
    1TCM     c1 1798   3.572   2.262   0.949
    1TCM    cl1 1799   3.521   2.330   1.105
    1TCM    cl2 1800   3.515   2.366   0.817
    1TCM     h1 1801   3.683   2.256   0.946
    1TCM    cl3 1802   3.504   2.099   0.930
    1TCM     c1 1803   2.401   2.071   2.655
    1TCM    cl1 1804   2.510   2.167   2.759
    1TCM    cl2 1805   2.457   2.080   2.487
    1TCM     h1 1806   2.402   1.965   2.689
    1TCM    cl3 1807   2.236   2.136   2.667
    1TCM     c1 1808   2.939   2.914   3.472
    1TCM    cl1 1809   2.839   3.055   3.433
    1TCM    cl2 1810   2.846   2.765   3.445
    1TCM     h1 1811   3.029   2.913   3.407
    1TCM    cl3 1812   2.990   2.921   3.642
    1TCM     c1 1813   5.017   1.906   1.687
    1TCM    cl1 1814   4.889   1.936   1.567
    1TCM    cl2 1815   4.982   1.755   1.774
    1TCM     h1 1816   5.115   1.897   1.635
    1TCM    cl3 1817   5.023   2.041   1.803
    1TCM     c1 1818   1.653   1.365   3.585
    1TCM    cl1 1819   1.543   1.264   3.681
    1TCM    cl2 1820   1.816   1.359   3.657
    1TCM     h1 1821   1.657   1.327   3.481
    1TCM    cl3 1822   1.595   1.533   3.585
    1TCM     c1 1823   3.431   4.200   2.246
    1TCM    cl1 1824   3.407   4.132   2.408
    1TCM    cl2 1825   3.306   4.322   2.213
    1TCM     h1 1826   3.531   4.247   2.240
    1TCM    cl3 1827   3.420   4.070   2.125
    1TCM     c1 1828   2.055   3.573   0.479
    1TCM    cl1 1829   2.203   3.576   0.380
    1TCM    cl2 1830   2.023   3.736   0.543
    1TCM     h1 1831   1.969   3.540   0.417
    1TCM    cl3 1832   2.078   3.459   0.614
    1TCM     c1 1833   4.604   2.139   3.266
    1TCM    cl1 1834   4.753   2.154   3.169
    1TCM    cl2 1835   4.463   2.137   3.158
    1TCM     h1 1836   4.607   2.045   3.324
    1TCM    cl3 1837   4.592   2.277   3.377
    1TCM     c1 1838   2.519   3.909   1.570
    1TCM    cl1 1839   2.653   3.842   1.666
    1TCM    cl2 1840   2.536   3.857   1.401
    1TCM     h1 1841   2.423   3.872   1.610
    1TCM    cl3 1842   2.524   4.087   1.578
    1TCM     c1 1843   1.050   4.901   4.753
    1TCM    cl1 1844   1.212   4.967   4.785
    1TCM    cl2 1845   0.941   4.946   4.886
    1TCM     h1 1846   1.011   4.943   4.658
    1TCM    cl3 1847   1.059   4.724   4.740
    1TCM     c1 1848   3.626   3.220   3.699
    1TCM    cl1 1849   3.538   3.094   3.788
    1TCM    cl2 1850   3.555   3.238   3.537
    1TCM     h1 1851   3.619   3.316   3.754
    1TCM    cl3 1852   3.797   3.172   3.684
    1TCM     c1 1853   3.758   3.879   1.241
    1TCM    cl1 1854   3.868   3.834   1.108
    1TCM    cl2 1855   3.854   3.931   1.381
    1TCM     h1 1856   3.693   3.962   1.208
    1TCM    cl3 1857   3.659   3.738   1.285
    1TCM     c1 1858   2.511   1.285   3.874
    1TCM    cl1 1859   2.370   1.288   3.982
    1TCM    cl2 1860   2.461   1.332   3.710
    1TCM     h1 1861   2.588   1.355   3.911
    1TCM    cl3 1862   2.578   1.120   3.870
    1TCM     c1 1863   2.188   3.616   4.833
    1TCM    cl1 1864   2.070   3.506   4.908
    1TCM    cl2 1865   2.347   3.592   4.909
    1TCM     h1 1866   2.196   3.594   4.725
    1TCM    cl3 1867   2.136   3.784   4.857
    1TCM     c1 1868   4.327   3.838   3.207
    1TCM    cl1 1869   4.445   3.964   3.163
    1TCM    cl2 1870   4.221   3.899   3.337
    1TCM     h1 1871   4.265   3.813   3.118
    1TCM    cl3 1872   4.412   3.693   3.263
    1TCM     c1 1873   2.481   5.226   4.723
    1TCM    cl1 1874   2.656   5.225   4.755
    1TCM    cl2 1875   2.451   5.276   4.555
    1TCM     h1 1876   2.440   5.124   4.739
    1TCM    cl3 1877   2.401   5.339   4.834
    1TCM     c1 1878   3.074   1.578   5.020
    1TCM    cl1 1879   3.068   1.450   4.897
    1TCM    cl2 1880   2.933   1.684   5.003
    1TCM     h1 1881   3.075   1.532   5.121
    1TCM    cl3 1882   3.223   1.674   4.998
    1TCM     c1 1883   0.646   0.648   4.129
    1TCM    cl1 1884   0.555   0.566   4.257
    1TCM    cl2 1885   0.593   0.587   3.970
    1TCM     h1 1886   0.627   0.757   4.134
    1TCM    cl3 1887   0.820   0.616   4.149
    1TCM     c1 1888   3.530   0.954   2.022
    1TCM    cl1 1889   3.668   0.919   1.915
    1TCM    cl2 1890   3.580   0.935   2.191
    1TCM     h1 1891   3.496   1.058   2.005
    1TCM    cl3 1892   3.397   0.841   1.986
    1TCM     c1 1893   2.832   0.086   2.588
    1TCM    cl1 1894   3.005   0.123   2.579
    1TCM    cl2 1895   2.779   0.013   2.434
    1TCM     h1 1896   2.814   0.014   2.670
    1TCM    cl3 1897   2.740   0.235   2.617
    1TCM     c1 1898   2.692   4.552   2.489
    1TCM    cl1 1899   2.756   4.522   2.653
    1TCM    cl2 1900   2.639   4.398   2.417
    1TCM     h1 1901   2.606   4.622   2.495
    1TCM    cl3 1902   2.820   4.623   2.388
    1TCM     c1 1903   0.865   0.921   2.169
    1TCM    cl1 1904   0.907   1.094   2.181
    1TCM    cl2 1905   0.869   0.871   1.998
    1TCM     h1 1906   0.939   0.861   2.226
    1TCM    cl3 1907   0.702   0.895   2.235
    1TCM     c1 1908   2.374   4.400   3.126
    1TCM    cl1 1909   2.199   4.378   3.149
    1TCM    cl2 1910   2.403   4.485   2.973
    1TCM     h1 1911   2.415   4.459   3.210
    1TCM    cl3 1912   2.453   4.241   3.122
    1TCM     c1 1913   4.247   1.859   4.757
    1TCM    cl1 1914   4.366   1.792   4.644
    1TCM    cl2 1915   4.083   1.805   4.710
    1TCM     h1 1916   4.269   1.824   4.860
    1TCM    cl3 1917   4.254   2.037   4.752
    1TCM     c1 1918   0.293   0.505   0.299
    1TCM    cl1 1919   0.315   0.653   0.396
    1TCM    cl2 1920   0.452   0.436   0.260
    1TCM     h1 1921   0.233   0.431   0.356
    1TCM    cl3 1922   0.208   0.545   0.148
    1TCM     c1 1923   3.908   3.856   5.188
    1TCM    cl1 1924   3.973   3.765   5.049
    1TCM    cl2 1925   3.956   3.777   5.339
    1TCM     h1 1926   3.948   3.960   5.186
    1TCM    cl3 1927   3.730   3.861   5.177
    1TCM     c1 1928   1.993   2.408   2.832
    1TCM    cl1 1929   1.970   2.241   2.778
    1TCM    cl2 1930   1.904   2.518   2.724
    1TCM     h1 1931   1.954   2.419   2.936
    1TCM    cl3 1932   2.166   2.449   2.829
    1TCM     c1 1933   2.122   4.133   1.647
    1TCM    cl1 1934   2.115   4.212   1.488
    1TCM    cl2 1935   2.150   4.255   1.773
    1TCM     h1 1936   2.026   4.081   1.667
    1TCM    cl3 1937   2.255   4.014   1.649
    1TCM     c1 1938   4.090   3.629   1.890
    1TCM    cl1 1939   4.249   3.581   1.827
    1TCM    cl2 1940   4.107   3.780   1.982
    1TCM     h1 1941   4.020   3.645   1.805
    1TCM    cl3 1942   4.027   3.501   1.997
    1TCM     c1 1943   2.573   4.595   0.589
    1TCM    cl1 1944   2.508   4.560   0.750
    1TCM    cl2 1945   2.750   4.581   0.591
    1TCM     h1 1946   2.532   4.523   0.515
    1TCM    cl3 1947   2.528   4.760   0.541
    1TCM     c1 1948   2.784   2.375   4.755
    1TCM    cl1 1949   2.817   2.230   4.658
    1TCM    cl2 1950   2.790   2.519   4.650
    1TCM     h1 1951   2.683   2.366   4.800
    1TCM    cl3 1952   2.906   2.389   4.884
    1TCM     c1 1953   1.583   3.263   2.889
    1TCM    cl1 1954   1.674   3.236   3.039
    1TCM    cl2 1955   1.680   3.360   2.776
    1TCM     h1 1956   1.559   3.165   2.842
    1TCM    cl3 1957   1.432   3.349   2.926
    1TCM     c1 1958   0.677   4.227   4.942
    1TCM    cl1 1959   0.749   4.256   5.102
    1TCM    cl2 1960   0.759   4.090   4.864
    1TCM     h1 1961   0.569   4.205   4.953
    1TCM    cl3 1962   0.697   4.373   4.842
    1TCM     c1 1963   0.212   2.465   1.774
    1TCM    cl1 1964   0.095   2.531   1.890
    1TCM    cl2 1965   0.243   2.585   1.646
    1TCM     h1 1966   0.307   2.441   1.826
    1TCM    cl3 1967   0.146   2.316   1.701
    1TCM     c1 1968   4.489   0.943   4.181
    1TCM    cl1 1969   4.353   1.058   4.183
    1TCM    cl2 1970   4.439   0.790   4.256
    1TCM     h1 1971   4.520   0.925   4.076
    1TCM    cl3 1972   4.626   1.011   4.272
    1TCM     c1 1973   3.994   1.129   0.472
    1TCM    cl1 1974   3.986   0.979   0.375
    1TCM    cl2 1975   4.014   1.087   0.644
    1TCM     h1 1976   4.080   1.190   0.438
    1TCM    cl3 1977   3.843   1.221   0.451
    1TCM     c1 1978   1.951   1.729   3.964
    1TCM    cl1 1979   1.977   1.873   4.065
    1TCM    cl2 1980   2.037   1.748   3.810
    1TCM     h1 1981   1.989   1.640   4.017
    1TCM    cl3 1982   1.777   1.709   3.933
    1TCM     c1 1983   0.286   1.870   2.008
    1TCM    cl1 1984   0.122   1.868   1.940
    1TCM    cl2 1985   0.389   1.977   1.911
    1TCM     h1 1986   0.282   1.908   2.112
    1TCM    cl3 1987   0.353   1.705   2.007
    1TCM     c1 1988   1.643   0.553   3.469
    1TCM    cl1 1989   1.689   0.588   3.301
    1TCM    cl2 1990   1.584   0.702   3.546
    1TCM     h1 1991   1.562   0.477   3.470
    1TCM    cl3 1992   1.784   0.491   3.558
    1TCM     c1 1993   2.296   4.264   1.112
    1TCM    cl1 1994   2.343   4.390   0.996
    1TCM    cl2 1995   2.286   4.108   1.029
    1TCM     h1 1996   2.372   4.258   1.193
    1TCM    cl3 1997   2.138   4.304   1.183
    1TCM     c1 1998   3.477   1.777   4.386
    1TCM    cl1 1999   3.332   1.732   4.480
    1TCM    cl2 2000   3.428   1.825   4.222
    1TCM     h1 2001   3.528   1.862   4.436
    1TCM    cl3 2002   3.587   1.638   4.377
    1TCM     c1 2003   2.231   3.788   4.155
    1TCM    cl1 2004   2.237   3.610   4.149
    1TCM    cl2 2005   2.269   3.843   4.320
    1TCM     h1 2006   2.305   3.829   4.084
    1TCM    cl3 2007   2.068   3.843   4.110
    1TCM     c1 2008   3.180   0.984   4.950
    1TCM    cl1 2009   3.145   0.858   4.830
    1TCM    cl2 2010   3.129   0.928   5.111
    1TCM     h1 2011   3.289   1.006   4.951
    1TCM    cl3 2012   3.091   1.133   4.908
    1TCM     c1 2013   3.143   2.831   2.467
    1TCM    cl1 2014   3.237   2.927   2.583
    1TCM    cl2 2015   3.126   2.922   2.315
    1TCM     h1 2016   3.196   2.735   2.447
    1TCM    cl3 2017   2.982   2.798   2.534
    1TCM     c1 2018   4.711   4.220   0.891
    1TCM    cl1 2019   4.789   4.280   0.743
    1TCM    cl2 2020   4.721   4.343   1.019
    1TCM     h1 2021   4.604   4.197   0.870
    1TCM    cl3 2022   4.793   4.071   0.945
    1TCM     c1 2023   2.131   2.857   4.420
    1TCM    cl1 2024   2.055   3.006   4.361
    1TCM    cl2 2025   2.278   2.898   4.511
    1TCM     h1 2026   2.060   2.803   4.487
    1TCM    cl3 2027   2.173   2.753   4.283
    1TCM     c1 2028   2.591   4.154   4.508
    1TCM    cl1 2029   2.649   4.309   4.443
    1TCM    cl2 2030   2.618   4.149   4.683
    1TCM     h1 2031   2.482   4.144   4.487
    1TCM    cl3 2032   2.679   4.020   4.430
    1TCM     c1 2033   4.426   5.189   2.677
    1TCM    cl1 2034   4.574   5.272   2.625
    1TCM    cl2 2035   4.364   5.266   2.825
    1TCM     h1 2036   4.350   5.196   2.597
    1TCM    cl3 2037   4.462   5.018   2.710
    1TCM     c1 2038   1.873   3.702   2.075
    1TCM    cl1 2039   1.866   3.628   1.913
    1TCM    cl2 2040   2.043   3.732   2.119
    1TCM     h1 2041   1.818   3.797   2.075
    1TCM    cl3 2042   1.801   3.591   2.194
    1TCM     c1 2043   3.497   0.774   1.046
    1TCM    cl1 2044   3.489   0.761   1.223
    1TCM    cl2 2045   3.359   0.687   0.974
    1TCM     h1 2046   3.493   0.880   1.016
    1TCM    cl3 2047   3.649   0.701   0.988
    1TCM     c1 2048   0.294   3.750   2.998
    1TCM    cl1 2049   0.135   3.678   2.965
    1TCM    cl2 2050   0.394   3.635   3.090
    1TCM     h1 2051   0.344   3.774   2.902
    1TCM    cl3 2052   0.273   3.899   3.093
    1TCM     c1 2053   2.931   2.706   4.818
    1TCM    cl1 2054   2.971   2.681   4.989
    1TCM    cl2 2055   2.756   2.685   4.794
    1TCM     h1 2056   2.960   2.809   4.788
    1TCM    cl3 2057   3.019   2.589   4.718
    1TCM     c1 2058   2.279   0.657   0.700
    1TCM    cl1 2059   2.299   0.797   0.808
    1TCM    cl2 2060   2.324   0.704   0.534
    1TCM     h1 2061   2.345   0.575   0.734
    1TCM    cl3 2062   2.110   0.603   0.703
    1TCM     c1 2063   2.911   0.313   2.232
    1TCM    cl1 2064   2.991   0.247   2.087
    1TCM    cl2 2065   2.921   0.193   2.363
    1TCM     h1 2066   2.963   0.406   2.263
    1TCM    cl3 2067   2.741   0.347   2.195
    1TCM     c1 2068   1.782   3.541   4.680
    1TCM    cl1 2069   1.776   3.521   4.504
    1TCM    cl2 2070   1.664   3.433   4.757
    1TCM     h1 2071   1.884   3.517   4.716
    1TCM    cl3 2072   1.743   3.710   4.721
    1TCM     c1 2073   0.807   2.842   0.722
    1TCM    cl1 2074   0.955   2.928   0.768
    1TCM    cl2 2075   0.675   2.886   0.834
    1TCM     h1 2076   0.778   2.871   0.618
    1TCM    cl3 2077   0.835   2.667   0.729
    1TCM     c1 2078   2.922   0.201   3.315
    1TCM    cl1 2079   3.074   0.268   3.379
    1TCM    cl2 2080   2.920   0.024   3.339
    1TCM     h1 2081   2.836   0.246   3.368
    1TCM    cl3 2082   2.909   0.236   3.141
    1TCM     c1 2083   2.101   3.017   1.121
    1TCM    cl1 2084   2.229   2.896   1.093
    1TCM    cl2 2085   2.169   3.157   1.207
    1TCM     h1 2086   2.059   3.050   1.023
    1TCM    cl3 2087   1.972   2.945   1.219
    1TCM     c1 2088   3.125   5.169   4.044
    1TCM    cl1 2089   2.986   5.223   4.141
    1TCM    cl2 2090   3.084   5.015   3.965
    1TCM     h1 2091   3.148   5.245   3.966
    1TCM    cl3 2092   3.266   5.147   4.149
    1TCM     c1 2093   0.274   0.413   4.208
    1TCM    cl1 2094   0.402   0.307   4.272
    1TCM    cl2 2095   0.115   0.348   4.253
    1TCM     h1 2096   0.286   0.515   4.252
    1TCM    cl3 2097   0.287   0.422   4.031
    1TCM     c1 2098   2.445   2.656   3.959
    1TCM    cl1 2099   2.570   2.619   4.081
    1TCM    cl2 2100   2.516   2.646   3.797
    1TCM     h1 2101   2.362   2.583   3.968
    1TCM    cl3 2102   2.382   2.820   3.987
    1TCM     c1 2103   0.766   1.327   0.258
    1TCM    cl1 2104   0.677   1.380   0.113
    1TCM    cl2 2105   0.919   1.250   0.209
    1TCM     h1 2106   0.788   1.415   0.322
    1TCM    cl3 2107   0.667   1.210   0.349
    1TCM     c1 2108   4.674   2.993   1.935
    1TCM    cl1 2109   4.647   2.818   1.924
    1TCM    cl2 2110   4.715   3.037   2.102
    1TCM     h1 2111   4.758   3.021   1.868
    1TCM    cl3 2112   4.527   3.080   1.885
    1TCM     c1 2113   3.115   3.235   0.599
    1TCM    cl1 2114   3.008   3.354   0.521
    1TCM    cl2 2115   3.123   3.269   0.773
    1TCM     h1 2116   3.075   3.133   0.582
    1TCM    cl3 2117   3.278   3.247   0.529
    1TCM     c1 2118   2.594   4.878   1.566
    1TCM    cl1 2119   2.440   4.928   1.638
    1TCM    cl2 2120   2.562   4.787   1.416
    1TCM     h1 2121   2.655   4.968   1.542
    1TCM    cl3 2122   2.683   4.775   1.680
    1TCM     c1 2123   2.697   4.036   4.915
    1TCM    cl1 2124   2.637   3.899   4.819
    1TCM    cl2 2125   2.728   3.983   5.082
    1TCM     h1 2126   2.790   4.075   4.870
    1TCM    cl3 2127   2.574   4.166   4.916
    1TCM     c1 2128   3.990   3.979   2.777
    1TCM    cl1 2129   4.008   4.154   2.803
    1TCM    cl2 2130   4.090   3.892   2.895
    1TCM     h1 2131   3.884   3.951   2.790
    1TCM    cl3 2132   4.044   3.938   2.612
    1TCM     c1 2133   2.403   1.509   2.447
    1TCM    cl1 2134   2.501   1.500   2.595
    1TCM    cl2 2135   2.503   1.576   2.315
    1TCM     h1 2136   2.369   1.407   2.419
    1TCM    cl3 2137   2.263   1.614   2.475
    1TCM     c1 2138   4.905   2.379   0.647
    1TCM    cl1 2139   4.861   2.241   0.544
    1TCM    cl2 2140   4.795   2.386   0.786
    1TCM     h1 2141   5.010   2.366   0.683
    1TCM    cl3 2142   4.893   2.530   0.554
    1TCM     c1 2143   4.228   0.556   3.197
    1TCM    cl1 2144   4.193   0.664   3.334
    1TCM    cl2 2145   4.237   0.652   3.047
    1TCM     h1 2146   4.325   0.505   3.214
    1TCM    cl3 2147   4.098   0.435   3.182
    1TCM     c1 2148   4.813   2.341   0.204
    1TCM    cl1 2149   4.855   2.169   0.218
    1TCM    cl2 2150   4.661   2.358   0.114
    1TCM     h1 2151   4.800   2.385   0.306
    1TCM    cl3 2152   4.942   2.428   0.118
    1TCM     c1 2153   3.381   1.247   1.071
    1TCM    cl1 2154   3.204   1.240   1.079
    1TCM    cl2 2155   3.432   1.415   1.039
    1TCM     h1 2156   3.424   1.213   1.168
    1TCM    cl3 2157   3.439   1.142   0.940
    1TCM     c1 2158   2.792   4.540   4.702
    1TCM    cl1 2159   2.727   4.684   4.783
    1TCM    cl2 2160   2.695   4.398   4.747
    1TCM     h1 2161   2.788   4.555   4.592
    1TCM    cl3 2162   2.961   4.516   4.752
    1TCM     c1 2163   1.531   5.272   0.611
    1TCM    cl1 2164   1.703   5.290   0.652
    1TCM    cl2 2165   1.488   5.099   0.612
    1TCM     h1 2166   1.469   5.326   0.686
    1TCM    cl3 2167   1.502   5.339   0.449
    1TCM     c1 2168   1.418   3.325   4.483
    1TCM    cl1 2169   1.423   3.405   4.642
    1TCM    cl2 2170   1.269   3.228   4.470
    1TCM     h1 2171   1.419   3.401   4.403
    1TCM    cl3 2172   1.559   3.218   4.466
    1TCM     c1 2173   1.189   2.277   2.461
    1TCM    cl1 2174   1.075   2.320   2.592
    1TCM    cl2 2175   1.144   2.118   2.394
    1TCM     h1 2176   1.184   2.354   2.381
    1TCM    cl3 2177   1.354   2.270   2.526
    1TCM     c1 2178   1.418   1.359   0.645
    1TCM    cl1 2179   1.273   1.441   0.585
    1TCM    cl2 2180   1.514   1.300   0.507
    1TCM     h1 2181   1.479   1.429   0.705
    1TCM    cl3 2182   1.371   1.221   0.746
    1TCM     c1 2183   0.346   5.182   3.254
    1TCM    cl1 2184   0.438   5.231   3.398
    1TCM    cl2 2185   0.416   5.258   3.110
    1TCM     h1 2186   0.349   5.072   3.244
    1TCM    cl3 2187   0.177   5.234   3.272
    1TCM     c1 2188   2.796   3.967   0.332
    1TCM    cl1 2189   2.851   4.135   0.315
    1TCM    cl2 2190   2.885   3.864   0.218
    1TCM     h1 2191   2.814   3.932   0.436
    1TCM    cl3 2192   2.622   3.957   0.296
    1TCM     c1 2193   5.053   1.849   0.902
    1TCM    cl1 2194   5.131   1.977   0.998
    1TCM    cl2 2195   5.173   1.774   0.794
    1TCM     h1 2196   5.011   1.772   0.970
    1TCM    cl3 2197   4.922   1.920   0.804
    1TCM     c1 2198   3.286   4.755   4.125
    1TCM    cl1 2199   3.221   4.783   3.961
    1TCM    cl2 2200   3.455   4.702   4.113
    1TCM     h1 2201   3.280   4.849   4.183
    1TCM    cl3 2202   3.190   4.629   4.206
    1TCM     c1 2203   0.446   3.269   3.421
    1TCM    cl1 2204   0.335   3.199   3.301
    1TCM    cl2 2205   0.442   3.447   3.409
    1TCM     h1 2206   0.414   3.239   3.523
    1TCM    cl3 2207   0.611   3.211   3.391
    1TCM     c1 2208   2.888   0.561   1.990
    1TCM    cl1 2209   2.951   0.715   2.051
    1TCM    cl2 2210   3.014   0.477   1.898
    1TCM     h1 2211   2.855   0.497   2.075
    1TCM    cl3 2212   2.748   0.592   1.883
    1TCM     c1 2213   4.850   5.002   4.345
    1TCM    cl1 2214   4.848   5.101   4.197
    1TCM    cl2 2215   4.723   4.877   4.334
    1TCM     h1 2216   4.949   4.953   4.356
    1TCM    cl3 2217   4.819   5.105   4.486
    1TCM     c1 2218   4.069   0.999   2.049
    1TCM    cl1 2219   4.004   0.879   2.163
    1TCM    cl2 2220   3.968   1.003   1.903
    1TCM     h1 2221   4.069   1.099   2.097
    1TCM    cl3 2222   4.235   0.955   2.004
    1TCM     c1 2223   2.293   4.758   2.394
    1TCM    cl1 2224   2.298   4.883   2.520
    1TCM    cl2 2225   2.234   4.606   2.463
    1TCM     h1 2226   2.226   4.791   2.312
    1TCM    cl3 2227   2.457   4.733   2.329
    1TCM     c1 2228   2.276   2.627   0.909
    1TCM    cl1 2229   2.165   2.645   1.047
    1TCM    cl2 2230   2.188   2.558   0.771
    1TCM     h1 2231   2.316   2.727   0.881
    1TCM    cl3 2232   2.410   2.519   0.954
    1TCM     c1 2233   2.227   4.757   0.421
    1TCM    cl1 2234   2.311   4.717   0.572
    1TCM    cl2 2235   2.189   4.931   0.419
    1TCM     h1 2236   2.292   4.732   0.334
    1TCM    cl3 2237   2.076   4.664   0.410
    1TCM     c1 2238   3.662   1.216   2.308
    1TCM    cl1 2239   3.813   1.142   2.250
    1TCM    cl2 2240   3.638   1.175   2.479
    1TCM     h1 2241   3.668   1.326   2.297
    1TCM    cl3 2242   3.525   1.154   2.212
    1TCM     c1 2243   3.727   4.087   0.836
    1TCM    cl1 2244   3.625   3.980   0.737
    1TCM    cl2 2245   3.767   4.005   0.989
    1TCM     h1 2246   3.820   4.111   0.781
    1TCM    cl3 2247   3.638   4.237   0.872
    1TCM     c1 2248   1.748   4.291   2.177
    1TCM    cl1 2249   1.878   4.173   2.149
    1TCM    cl2 2250   1.699   4.362   2.022
    1TCM     h1 2251   1.661   4.240   2.224
    1TCM    cl3 2252   1.807   4.419   2.285
    1TCM     c1 2253   4.962   2.766   3.010
    1TCM    cl1 2254   5.131   2.732   2.967
    1TCM    cl2 2255   4.860   2.629   2.960
    1TCM     h1 2256   4.953   2.781   3.119
    1TCM    cl3 2257   4.908   2.913   2.926
    1TCM     c1 2258   1.550   1.170   2.334
    1TCM    cl1 2259   1.434   1.136   2.204
    1TCM    cl2 2260   1.559   1.031   2.444
    1TCM     h1 2261   1.650   1.189   2.290
    1TCM    cl3 2262   1.497   1.314   2.425
    1TCM     c1 2263   0.942   4.351   0.290
    1TCM    cl1 2264   0.983   4.490   0.189
    1TCM    cl2 2265   0.901   4.406   0.454
    1TCM     h1 2266   0.856   4.297   0.247
    1TCM    cl3 2267   1.082   4.241   0.299
    1TCM     c1 2268   3.146   2.676   0.924
    1TCM    cl1 2269   3.032   2.624   0.797
    1TCM    cl2 2270   3.175   2.542   1.036
    1TCM     h1 2271   3.242   2.706   0.877
    1TCM    cl3 2272   3.076   2.814   1.012
    1TCM     c1 2273   0.619   1.974   2.562
    1TCM    cl1 2274   0.732   2.098   2.621
    1TCM    cl2 2275   0.457   2.046   2.542
    1TCM     h1 2276   0.654   1.935   2.464
    1TCM    cl3 2277   0.610   1.841   2.680
    1TCM     c1 2278   2.627   0.788   4.992
    1TCM    cl1 2279   2.681   0.713   4.840
    1TCM    cl2 2280   2.694   0.698   5.130
    1TCM     h1 2281   2.663   0.893   4.996
    1TCM    cl3 2282   2.450   0.786   5.000
    1TCM     c1 2283   0.394   4.303   4.200
    1TCM    cl1 2284   0.474   4.404   4.323
    1TCM    cl2 2285   0.289   4.185   4.280
    1TCM     h1 2286   0.333   4.368   4.134
    1TCM    cl3 2287   0.517   4.218   4.105
    1TCM     c1 2288   5.037   4.040   1.518
    1TCM    cl1 2289   4.935   4.001   1.658
    1TCM    cl2 2290   5.199   4.088   1.574
    1TCM     h1 2291   5.046   3.951   1.452
    1TCM    cl3 2292   4.965   4.174   1.426
    1TCM     c1 2293   2.595   2.332   0.448
    1TCM    cl1 2294   2.579   2.425   0.297
    1TCM    cl2 2295   2.615   2.444   0.585
    1TCM     h1 2296   2.505   2.270   0.464
    1TCM    cl3 2297   2.738   2.227   0.438
    1TCM     c1 2298   3.380   2.460   2.183
    1TCM    cl1 2299   3.490   2.594   2.144
    1TCM    cl2 2300   3.212   2.514   2.164
    1TCM     h1 2301   3.400   2.375   2.115
    1TCM    cl3 2302   3.407   2.409   2.352
    1TCM     c1 2303   4.060   1.223   5.180
    1TCM    cl1 2304   4.100   1.354   5.294
    1TCM    cl2 2305   4.167   1.084   5.209
    1TCM     h1 2306   3.955   1.192   5.195
    1TCM    cl3 2307   4.083   1.282   5.014
    1TCM     c1 2308   1.106   2.029   4.498
    1TCM    cl1 2309   1.152   1.974   4.661
    1TCM    cl2 2310   1.016   1.900   4.415
    1TCM     h1 2311   1.042   2.120   4.507
    1TCM    cl3 2312   1.253   2.069   4.406
    1TCM     c1 2313   0.451   0.332   2.147
    1TCM    cl1 2314   0.512   0.241   2.006
    1TCM    cl2 2315   0.541   0.284   2.292
    1TCM     h1 2316   0.464   0.441   2.129
    1TCM    cl3 2317   0.278   0.296   2.170
    1TCM     c1 2318   3.819   0.432   1.088
    1TCM    cl1 2319   3.932   0.556   1.147
    1TCM    cl2 2320   3.653   0.497   1.088
    1TCM     h1 2321   3.847   0.402   0.985
    1TCM    cl3 2322   3.826   0.290   1.195
    1TCM     c1 2323   3.176   2.262   3.636
    1TCM    cl1 2324   3.300   2.352   3.545
    1TCM    cl2 2325   3.178   2.313   3.806
    1TCM     h1 2326   3.076   2.284   3.592
    1TCM    cl3 2327   3.208   2.088   3.625
    1TCM     c1 2328   3.736   2.889   3.589
    1TCM    cl1 2329   3.863   2.878   3.713
    1TCM    cl2 2330   3.705   2.728   3.521
    1TCM     h1 2331   3.643   2.929   3.635
    1TCM    cl3 2332   3.789   2.999   3.459
    1TCM     c1 2333   3.257   4.440   1.768
    1TCM    cl1 2334   3.256   4.617   1.779
    1TCM    cl2 2335   3.247   4.391   1.597
    1TCM     h1 2336   3.350   4.401   1.813
    1TCM    cl3 2337   3.117   4.374   1.857
    1TCM     c1 2338   0.528   1.308   4.235
    1TCM    cl1 2339   0.437   1.156   4.255
    1TCM    cl2 2340   0.521   1.359   4.065
    1TCM     h1 2341   0.482   1.387   4.299
    1TCM    cl3 2342   0.697   1.283   4.283
    1TCM     c1 2343   0.361   1.883   1.624
    1TCM    cl1 2344   0.530   1.863   1.676
    1TCM    cl2 2345   0.320   1.757   1.505
    1TCM     h1 2346   0.294   1.875   1.712
    1TCM    cl3 2347   0.340   2.044   1.550
    1TCM     c1 2348   0.100   2.919   1.353
    1TCM    cl1 2349   0.201   2.804   1.263
    1TCM    cl2 2350   0.091   3.073   1.263
    1TCM     h1 2351  -0.002   2.877   1.366
    1TCM    cl3 2352   0.173   2.949   1.513
    1TCM     c1 2353   0.944   3.679   0.100
    1TCM    cl1 2354   0.781   3.657   0.168
    1TCM    cl2 2355   0.947   3.826  -0.000
    1TCM     h1 2356   1.018   3.688   0.183
    1TCM    cl3 2357   0.986   3.538  -0.000
    1TCM     c1 2358   3.609   1.302   1.485
    1TCM    cl1 2359   3.432   1.319   1.491
    1TCM    cl2 2360   3.653   1.134   1.522
    1TCM     h1 2361   3.645   1.329   1.384
    1TCM    cl3 2362   3.683   1.410   1.606
    1TCM     c1 2363   3.506   1.721   4.715
    1TCM    cl1 2364   3.357   1.630   4.750
    1TCM    cl2 2365   3.618   1.706   4.853
    1TCM     h1 2366   3.554   1.681   4.624
    1TCM    cl3 2367   3.465   1.893   4.691
    1TCM     c1 2368   0.697   3.997   4.310
    1TCM    cl1 2369   0.571   4.120   4.333
    1TCM    cl2 2370   0.844   4.073   4.244
    1TCM     h1 2371   0.720   3.949   4.407
    1TCM    cl3 2372   0.639   3.873   4.196
    1TCM     c1 2373   3.624   3.217   5.182
    1TCM    cl1 2374   3.587   3.129   5.032
    1TCM    cl2 2375   3.513   3.164   5.310
    1TCM     h1 2376   3.729   3.195   5.212
    1TCM    cl3 2377   3.605   3.391   5.154
    1TCM     c1 2378   1.083   3.001   1.386
    1TCM    cl1 2379   1.140   3.119   1.507
    1TCM    cl2 2380   1.084   2.838   1.457
    1TCM     h1 2381   0.980   3.027   1.355
    1TCM    cl3 2382   1.191   3.006   1.245
    1TCM     c1 2383   4.400   5.072   5.200
    1TCM    cl1 2384   4.280   5.093   5.329
    1TCM    cl2 2385   4.561   5.116   5.261
    1TCM     h1 2386   4.401   4.966   5.166
    1TCM    cl3 2387   4.358   5.177   5.062
    1TCM     c1 2388   4.400   1.120   0.292
    1TCM    cl1 2389   4.261   1.154   0.187
    1TCM    cl2 2390   4.344   1.094   0.459
    1TCM     h1 2391   4.452   1.030   0.256
    1TCM    cl3 2392   4.512   1.259   0.289
    1TCM     c1 2393   3.073   0.828   3.490
    1TCM    cl1 2394   3.014   0.829   3.322
    1TCM    cl2 2395   3.181   0.966   3.516
    1TCM     h1 2396   2.986   0.835   3.559
    1TCM    cl3 2397   3.161   0.677   3.520
    1TCM     c1 2398   4.347   1.433   4.916
    1TCM    cl1 2399   4.493   1.534   4.907
    1TCM    cl2 2400   4.346   1.319   4.779
    1TCM     h1 2401   4.346   1.377   5.011
    1TCM    cl3 2402   4.203   1.537   4.907
    1TCM     c1 2403   4.768   2.153   3.825
    1TCM    cl1 2404   4.673   2.003   3.824
    1TCM    cl2 2405   4.685   2.277   3.729
    1TCM     h1 2406   4.779   2.189   3.930
    1TCM    cl3 2407   4.929   2.122   3.755
    1TCM     c1 2408   0.113   4.967   3.725
    1TCM    cl1 2409   0.029   4.920   3.576
    1TCM    cl2 2410   0.266   4.876   3.738
    1TCM     h1 2411   0.135   5.076   3.722
    1TCM    cl3 2412   0.011   4.931   3.865
    1TCM     c1 2413   3.389   0.740   3.843
    1TCM    cl1 2414   3.214   0.741   3.811
    1TCM    cl2 2415   3.476   0.689   3.696
    1TCM     h1 2416   3.421   0.843   3.871
    1TCM    cl3 2417   3.425   0.628   3.976
    1TCM     c1 2418   3.831   3.718   1.633
    1TCM    cl1 2419   3.957   3.810   1.548
    1TCM    cl2 2420   3.830   3.764   1.805
    1TCM     h1 2421   3.732   3.741   1.589
    1TCM    cl3 2422   3.864   3.545   1.618
    1TCM     c1 2423   0.539   0.175   1.383
    1TCM    cl1 2424   0.636   0.045   1.456
    1TCM    cl2 2425   0.395   0.105   1.305
    1TCM     h1 2426   0.507   0.246   1.462
    1TCM    cl3 2427   0.637   0.261   1.261
    1TCM     c1 2428   2.162   3.966   3.692
    1TCM    cl1 2429   2.293   3.939   3.810
    1TCM    cl2 2430   2.209   3.896   3.535
    1TCM     h1 2431   2.069   3.917   3.728
    1TCM    cl3 2432   2.135   4.140   3.673
    1TCM     c1 2433   4.520   3.947   1.344
    1TCM    cl1 2434   4.548   3.925   1.518
    1TCM    cl2 2435   4.650   4.046   1.274
    1TCM     h1 2436   4.518   3.848   1.294
    1TCM    cl3 2437   4.364   4.029   1.319
    1TCM     c1 2438   3.133   4.331   4.582
    1TCM    cl1 2439   2.965   4.304   4.633
    1TCM    cl2 2440   3.235   4.198   4.640
    1TCM     h1 2441   3.138   4.336   4.471
    1TCM    cl3 2442   3.192   4.484   4.651
    1TCM     c1 2443   2.075   1.869   4.792
    1TCM    cl1 2444   1.937   1.976   4.828
    1TCM    cl2 2445   2.047   1.787   4.637
    1TCM     h1 2446   2.168   1.930   4.785
    1TCM    cl3 2447   2.092   1.748   4.921
    1TCM     c1 2448   1.585   3.562   1.964
    1TCM    cl1 2449   1.610   3.635   1.803
    1TCM    cl2 2450   1.541   3.689   2.080
    1TCM     h1 2451   1.503   3.487   1.958
    1TCM    cl3 2452   1.735   3.482   2.016
    1TCM     c1 2453   1.811   0.119   1.512
    1TCM    cl1 2454   1.899   0.089   1.663
    1TCM    cl2 2455   1.927   0.149   1.380
    1TCM     h1 2456   1.749   0.030   1.487
    1TCM    cl3 2457   1.705   0.261   1.531
    1TCM     c1 2458   4.208   4.352   3.796
    1TCM    cl1 2459   4.095   4.424   3.679
    1TCM    cl2 2460   4.137   4.359   3.959
    1TCM     h1 2461   4.227   4.246   3.769
    1TCM    cl3 2462   4.361   4.443   3.793
    1TCM     c1 2463   0.708   1.027   3.777
    1TCM    cl1 2464   0.631   1.002   3.618
    1TCM    cl2 2465   0.649   0.904   3.891
    1TCM     h1 2466   0.818   1.018   3.767
    1TCM    cl3 2467   0.667   1.189   3.838
    1TCM     c1 2468   1.688   4.460   0.674
    1TCM    cl1 2469   1.828   4.568   0.671
    1TCM    cl2 2470   1.558   4.533   0.771
    1TCM     h1 2471   1.652   4.443   0.570
    1TCM    cl3 2472   1.734   4.304   0.746
    1TCM     c1 2473   3.294   0.441   0.173
    1TCM    cl1 2474   3.143   0.430   0.266
    1TCM    cl2 2475   3.258   0.434  -0.001
    1TCM     h1 2476   3.344   0.538   0.197
    1TCM    cl3 2477   3.401   0.306   0.217
    1TCM     c1 2478   3.795   0.931   3.290
    1TCM    cl1 2479   3.839   0.924   3.118
    1TCM    cl2 2480   3.942   0.951   3.388
    1TCM     h1 2481   3.727   1.017   3.307
    1TCM    cl3 2482   3.712   0.780   3.336
    1TCM     c1 2483   0.153   4.600   4.004
    1TCM    cl1 2484   0.284   4.504   3.932
    1TCM    cl2 2485   0.218   4.702   4.134
    1TCM     h1 2486   0.107   4.664   3.926
    1TCM    cl3 2487   0.029   4.491   4.071
    1TCM     c1 2488   4.437   1.670   5.262
    1TCM    cl1 2489   4.510   1.821   5.321
    1TCM    cl2 2490   4.418   1.678   5.085
    1TCM     h1 2491   4.503   1.584   5.288
    1TCM    cl3 2492   4.278   1.648   5.338
    1TCM     c1 2493   0.545   0.624   2.755
    1TCM    cl1 2494   0.589   0.621   2.583
    1TCM    cl2 2495   0.430   0.493   2.789
    1TCM     h1 2496   0.636   0.610   2.817
    1TCM    cl3 2497   0.469   0.780   2.794
    1TCM     c1 2498   0.417   2.091   2.212
    1TCM    cl1 2499   0.497   1.933   2.203
    1TCM    cl2 2500   0.401   2.158   2.048
    1TCM     h1 2501   0.317   2.079   2.257
    1TCM    cl3 2502   0.514   2.201   2.312
    1TCM     c1 2503   3.659   2.203   1.688
    1TCM    cl1 2504   3.674   2.169   1.514
    1TCM    cl2 2505   3.800   2.137   1.773
    1TCM     h1 2506   3.655   2.313   1.703
    1TCM    cl3 2507   3.511   2.128   1.750
    1TCM     c1 2508   2.633   0.932   4.338
    1TCM    cl1 2509   2.517   0.989   4.216
    1TCM    cl2 2510   2.554   0.811   4.442
    1TCM     h1 2511   2.721   0.886   4.288
    1TCM    cl3 2512   2.687   1.069   4.437
    1TCM     c1 2513   4.635   2.543   4.917
    1TCM    cl1 2514   4.615   2.673   5.036
    1TCM    cl2 2515   4.528   2.407   4.958
    1TCM     h1 2516   4.609   2.581   4.816
    1TCM    cl3 2517   4.804   2.487   4.918
    1TCM     c1 2518   3.820   0.777   2.866
    1TCM    cl1 2519   3.701   0.766   2.735
    1TCM    cl2 2520   3.908   0.931   2.853
    1TCM     h1 2521   3.768   0.773   2.964
    1TCM    cl3 2522   3.935   0.642   2.854
    1TCM     c1 2523   3.309   2.191   3.300
    1TCM    cl1 2524   3.316   2.032   3.221
    1TCM    cl2 2525   3.304   2.319   3.176
    1TCM     h1 2526   3.217   2.197   3.362
    1TCM    cl3 2527   3.452   2.213   3.402
    1TCM     c1 2528   3.824   1.622   1.493
    1TCM    cl1 2529   3.876   1.774   1.416
    1TCM    cl2 2530   3.735   1.659   1.642
    1TCM     h1 2531   3.759   1.566   1.423
    1TCM    cl3 2532   3.967   1.524   1.532
    1TCM     c1 2533   0.424   3.419   1.587
    1TCM    cl1 2534   0.249   3.418   1.618
    1TCM    cl2 2535   0.464   3.291   1.470
    1TCM     h1 2536   0.454   3.517   1.546
    1TCM    cl3 2537   0.512   3.389   1.739
    1TCM     c1 2538   2.511   3.737   4.563
    1TCM    cl1 2539   2.378   3.766   4.677
    1TCM    cl2 2540   2.468   3.802   4.404
    1TCM     h1 2541   2.603   3.788   4.600
    1TCM    cl3 2542   2.542   3.562   4.550
    1TCM     c1 2543   2.113   1.668   1.985
    1TCM    cl1 2544   2.124   1.585   1.828
    1TCM    cl2 2545   1.953   1.746   1.999
    1TCM     h1 2546   2.126   1.595   2.067
    1TCM    cl3 2547   2.240   1.792   1.995
    1TCM     c1 2548   4.580   2.604   0.356
    1TCM    cl1 2549   4.727   2.623   0.258
    1TCM    cl2 2550   4.624   2.592   0.527
    1TCM     h1 2551   4.513   2.691   0.340
    1TCM    cl3 2552   4.494   2.456   0.306
    1TCM     c1 2553   3.121   4.607   3.563
    1TCM    cl1 2554   2.960   4.590   3.488
    1TCM    cl2 2555   3.213   4.457   3.539
    1TCM     h1 2556   3.174   4.692   3.516
    1TCM    cl3 2557   3.102   4.637   3.737
    1TCM     c1 2558   5.009   3.879   5.222
    1TCM    cl1 2559   4.872   3.789   5.293
    1TCM    cl2 2560   4.994   4.051   5.264
    1TCM     h1 2561   5.104   3.839   5.262
    1TCM    cl3 2562   5.006   3.861   5.045
    1TCM     c1 2563   1.193   2.685   3.340
    1TCM    cl1 2564   1.123   2.554   3.437
    1TCM    cl2 2565   1.172   2.648   3.167
    1TCM     h1 2566   1.141   2.780   3.364
    1TCM    cl3 2567   1.366   2.701   3.376
    1TCM     c1 2568   2.536   2.795   1.297
    1TCM    cl1 2569   2.513   2.893   1.151
    1TCM    cl2 2570   2.412   2.667   1.303
    1TCM     h1 2571   2.636   2.748   1.296
    1TCM    cl3 2572   2.520   2.898   1.441
    1TCM     c1 2573   0.131   3.563   3.585
    1TCM    cl1 2574   0.247   3.571   3.451
    1TCM    cl2 2575   0.001   3.449   3.544
    1TCM     h1 2576   0.183   3.529   3.677
    1TCM    cl3 2577   0.062   3.724   3.613
    1TCM     c1 2578   2.474   4.845   3.299
    1TCM    cl1 2579   2.626   4.780   3.364
    1TCM    cl2 2580   2.346   4.831   3.422
    1TCM     h1 2581   2.487   4.951   3.271
    1TCM    cl3 2582   2.427   4.752   3.155
    1TCM     c1 2583   4.998   2.730   4.195
    1TCM    cl1 2584   5.169   2.779   4.202
    1TCM    cl2 2585   4.895   2.874   4.191
    1TCM     h1 2586   4.981   2.669   4.104
    1TCM    cl3 2587   4.959   2.633   4.339
    1TCM     c1 2588   2.577   2.257   3.580
    1TCM    cl1 2589   2.444   2.141   3.600
    1TCM    cl2 2590   2.596   2.297   3.408
    1TCM     h1 2591   2.554   2.350   3.637
    1TCM    cl3 2592   2.728   2.186   3.641
    1TCM     c1 2593   1.966   0.910   3.895
    1TCM    cl1 2594   2.001   0.788   4.019
    1TCM    cl2 2595   1.921   1.064   3.973
    1TCM     h1 2596   2.056   0.925   3.832
    1TCM    cl3 2597   1.831   0.854   3.793
    1TCM     c1 2598   0.933   0.359   0.891
    1TCM    cl1 2599   0.960   0.516   0.971
    1TCM    cl2 2600   0.966   0.375   0.717
    1TCM     h1 2601   1.001   0.283   0.935
    1TCM    cl3 2602   0.764   0.309   0.915
    1TCM     c1 2603   4.150   1.432   3.647
    1TCM    cl1 2604   4.047   1.576   3.663
    1TCM    cl2 2605   4.184   1.365   3.808
    1TCM     h1 2606   4.097   1.356   3.585
    1TCM    cl3 2607   4.303   1.477   3.568
    1TCM     c1 2608   3.222   4.918   3.407
    1TCM    cl1 2609   3.261   4.779   3.303
    1TCM    cl2 2610   3.055   4.904   3.465
    1TCM     h1 2611   3.292   4.921   3.493
    1TCM    cl3 2612   3.239   5.069   3.313
    1TCM     c1 2613   2.232   2.560   3.117
    1TCM    cl1 2614   2.148   2.419   3.050
    1TCM    cl2 2615   2.113   2.684   3.164
    1TCM     h1 2616   2.290   2.530   3.207
    1TCM    cl3 2617   2.342   2.628   2.995
    1TCM     c1 2618   1.542   0.755   5.238
    1TCM    cl1 2619   1.454   0.871   5.339
    1TCM    cl2 2620   1.487   0.770   5.069
    1TCM     h1 2621   1.651   0.776   5.243
    1TCM    cl3 2622   1.510   0.589   5.295
    1TCM     c1 2623   2.207   4.393   4.400
    1TCM    cl1 2624   2.141   4.407   4.236
    1TCM    cl2 2625   2.171   4.542   4.491
    1TCM     h1 2626   2.161   4.306   4.451
    1TCM    cl3 2627   2.383   4.371   4.391
    1TCM     c1 2628   0.783   3.748   5.055
    1TCM    cl1 2629   0.768   3.875   4.932
    1TCM    cl2 2630   0.621   3.691   5.102
    1TCM     h1 2631   0.841   3.663   5.014
    1TCM    cl3 2632   0.866   3.812   5.198
    1TCM     c1 2633   5.091   3.053   1.875
    1TCM    cl1 2634   5.075   3.195   1.770
    1TCM    cl2 2635   5.085   3.103   2.046
    1TCM     h1 2636   5.008   2.982   1.854
    1TCM    cl3 2637   5.247   2.973   1.843
    1TCM     c1 2638   3.304   1.184   3.596
    1TCM    cl1 2639   3.387   1.305   3.697
    1TCM    cl2 2640   3.362   1.196   3.429
    1TCM     h1 2641   3.325   1.082   3.635
    1TCM    cl3 2642   3.128   1.214   3.601
    1TCM     c1 2643   0.083   1.323   1.833
    1TCM    cl1 2644   0.252   1.270   1.854
    1TCM    cl2 2645   0.000   1.320   1.990
    1TCM     h1 2646   0.082   1.427   1.793
    1TCM    cl3 2647   0.000   1.215   1.719
    1TCM     c1 2648   1.559   0.127   1.262
    1TCM    cl1 2649   1.421   0.073   1.162
    1TCM    cl2 2650   1.683   0.001   1.265
    1TCM     h1 2651   1.601   0.220   1.218
    1TCM    cl3 2652   1.503   0.159   1.427
    1TCM     c1 2653   2.757   2.932   3.888
    1TCM    cl1 2654   2.833   2.814   3.997
    1TCM    cl2 2655   2.883   3.030   3.810
    1TCM     h1 2656   2.700   2.878   3.810
    1TCM    cl3 2657   2.647   3.037   3.980
    1TCM     c1 2658   5.125   3.328   1.245
    1TCM    cl1 2659   5.197   3.460   1.149
    1TCM    cl2 2660   5.030   3.396   1.378
    1TCM     h1 2661   5.059   3.267   1.180
    1TCM    cl3 2662   5.255   3.225   1.310
    1TCM     c1 2663   1.887   0.289   0.192
    1TCM    cl1 2664   1.755   0.170   0.202
    1TCM    cl2 2665   2.013   0.229   0.081
    1TCM     h1 2666   1.847   0.385   0.155
    1TCM    cl3 2667   1.958   0.313   0.354
    1TCM     c1 2668   1.133   1.918   3.030
    1TCM    cl1 2669   1.143   1.741   3.011
    1TCM    cl2 2670   1.292   1.982   3.077
    1TCM     h1 2671   1.102   1.963   2.934
    1TCM    cl3 2672   1.014   1.957   3.157
    1TCM     c1 2673   2.690   3.845   2.452
    1TCM    cl1 2674   2.832   3.761   2.386
    1TCM    cl2 2675   2.743   3.985   2.547
    1TCM     h1 2676   2.625   3.878   2.368
    1TCM    cl3 2677   2.599   3.733   2.556
    1TCM     c1 2678   1.532   0.633   2.915
    1TCM    cl1 2679   1.561   0.755   2.790
    1TCM    cl2 2680   1.468   0.711   3.061
    1TCM     h1 2681   1.458   0.559   2.878
    1TCM    cl3 2682   1.684   0.550   2.954
    1TCM     c1 2683   5.136   5.033   2.833
    1TCM    cl1 2684   5.109   4.902   2.715
    1TCM    cl2 2685   5.165   4.963   2.994
    1TCM     h1 2686   5.224   5.093   2.803
    1TCM    cl3 2687   4.992   5.137   2.839
    1TCM     c1 2688   2.626   3.893   3.231
    1TCM    cl1 2689   2.487   3.935   3.333
    1TCM    cl2 2690   2.645   4.015   3.103
    1TCM     h1 2691   2.718   3.890   3.293
    1TCM    cl3 2692   2.600   3.734   3.157
    1TCM     c1 2693   5.023   5.004   0.275
    1TCM    cl1 2694   4.917   5.037   0.136
    1TCM    cl2 2695   5.064   4.831   0.279
    1TCM     h1 2696   5.116   5.064   0.265
    1TCM    cl3 2697   4.940   5.049   0.426
    1TCM     c1 2698   1.540   4.064   5.169
    1TCM    cl1 2699   1.390   4.051   5.075
    1TCM    cl2 2700   1.630   3.911   5.161
    1TCM     h1 2701   1.603   4.146   5.128
    1TCM    cl3 2702   1.500   4.100   5.339
    1TCM     c1 2703   0.480   1.918   3.520
    1TCM    cl1 2704   0.323   1.853   3.467
    1TCM    cl2 2705   0.484   1.926   3.698
    1TCM     h1 2706   0.561   1.852   3.484
    1TCM    cl3 2707   0.502   2.081   3.453
    1TCM     c1 2708   4.637   0.365   4.808
    1TCM    cl1 2709   4.585   0.503   4.907
    1TCM    cl2 2710   4.662   0.418   4.641
    1TCM     h1 2711   4.731   0.324   4.849
    1TCM    cl3 2712   4.511   0.239   4.812
    1TCM     c1 2713   4.344   2.428   2.477
    1TCM    cl1 2714   4.262   2.302   2.573
    1TCM    cl2 2715   4.486   2.487   2.565
    1TCM     h1 2716   4.376   2.385   2.380
    1TCM    cl3 2717   4.232   2.562   2.448
    1TCM     c1 2718   3.474   4.750   1.721
    1TCM    cl1 2719   3.551   4.616   1.634
    1TCM    cl2 2720   3.583   4.891   1.722
    1TCM     h1 2721   3.379   4.777   1.671
    1TCM    cl3 2722   3.440   4.700   1.888
    1TCM     c1 2723   5.204   5.170   0.754
    1TCM    cl1 2724   5.211   5.340   0.701
    1TCM    cl2 2725   5.034   5.122   0.776
    1TCM     h1 2726   5.251   5.106   0.677
    1TCM    cl3 2727   5.290   5.152   0.908
    1TCM     c1 2728   3.973   5.145   0.259
    1TCM    cl1 2729   4.017   5.085   0.421
    1TCM    cl2 2730   4.121   5.184   0.168
    1TCM     h1 2731   3.915   5.067   0.205
    1TCM    cl3 2732   3.873   5.292   0.275
    1TCM     c1 2733   0.706   5.221   2.440
    1TCM    cl1 2734   0.618   5.337   2.542
    1TCM    cl2 2735   0.695   5.271   2.270
    1TCM     h1 2736   0.813   5.219   2.470
    1TCM    cl3 2737   0.635   5.060   2.459
    1TCM     c1 2738   2.874   5.153   4.385
    1TCM    cl1 2739   2.797   5.274   4.280
    1TCM    cl2 2740   2.951   5.028   4.284
    1TCM     h1 2741   2.950   5.201   4.449
    1TCM    cl3 2742   2.750   5.076   4.488
    1TCM     c1 2743   4.410   4.191   1.838
    1TCM    cl1 2744   4.271   4.197   1.727
    1TCM    cl2 2745   4.352   4.206   2.005
    1TCM     h1 2746   4.463   4.095   1.825
    1TCM    cl3 2747   4.520   4.326   1.801
    1TCM     c1 2748   3.273   3.671   4.888
    1TCM    cl1 2749   3.344   3.578   5.023
    1TCM    cl2 2750   3.298   3.582   4.736
    1TCM     h1 2751   3.165   3.684   4.906
    1TCM    cl3 2752   3.353   3.829   4.878
    1TCM     c1 2753   2.767   0.534   4.351
    1TCM    cl1 2754   2.683   0.514   4.506
    1TCM    cl2 2755   2.728   0.396   4.245
    1TCM     h1 2756   2.734   0.628   4.303
    1TCM    cl3 2757   2.943   0.539   4.379
    1TCM     c1 2758   3.344   3.350   1.816
    1TCM    cl1 2759   3.487   3.435   1.752
    1TCM    cl2 2760   3.328   3.385   1.990
    1TCM     h1 2761   3.253   3.385   1.762
    1TCM    cl3 2762   3.363   3.175   1.792
    1TCM     c1 2763   0.181   3.080   3.550
    1TCM    cl1 2764   0.315   2.981   3.485
    1TCM    cl2 2765   0.207   3.109   3.723
    1TCM     h1 2766   0.177   3.177   3.496
    1TCM    cl3 2767   0.028   2.993   3.527
    1TCM     c1 2768   1.510   3.839   3.104
    1TCM    cl1 2769   1.600   3.867   3.254
    1TCM    cl2 2770   1.514   3.985   3.003
    1TCM     h1 2771   1.556   3.754   3.048
    1TCM    cl3 2772   1.341   3.799   3.142
    1TCM     c1 2773   2.845   4.219   1.747
    1TCM    cl1 2774   2.710   4.103   1.756
    1TCM    cl2 2775   2.916   4.240   1.908
    1TCM     h1 2776   2.922   4.181   1.677
    1TCM    cl3 2777   2.785   4.376   1.688
    1TCM     c1 2778   5.133   1.677   2.968
    1TCM    cl1 2779   5.090   1.635   2.801
    1TCM    cl2 2780   5.310   1.663   2.989
    1TCM     h1 2781   5.102   1.781   2.990
    1TCM    cl3 2782   5.052   1.565   3.081
    1TCM     c1 2783   4.437   3.475   3.036
    1TCM    cl1 2784   4.564   3.351   3.046
    1TCM    cl2 2785   4.291   3.417   3.119
    1TCM     h1 2786   4.472   3.569   3.083
    1TCM    cl3 2787   4.399   3.506   2.865
    1TCM     c1 2788   2.730   4.932   2.627
    1TCM    cl1 2789   2.866   4.818   2.623
    1TCM    cl2 2790   2.734   5.023   2.780
    1TCM     h1 2791   2.738   5.003   2.542
    1TCM    cl3 2792   2.577   4.843   2.616
    1TCM     c1 2793   2.992   3.187   2.426
    1TCM    cl1 2794   2.917   3.053   2.337
    1TCM    cl2 2795   3.158   3.211   2.367
    1TCM     h1 2796   2.934   3.280   2.409
    1TCM    cl3 2797   2.995   3.149   2.600
    1TCM     c1 2798   1.916   3.508   4.155
    1TCM    cl1 2799   1.902   3.652   4.053
    1TCM    cl2 2800   1.941   3.557   4.324
    1TCM     h1 2801   1.823   3.448   4.148
    1TCM    cl3 2802   2.055   3.410   4.101
    1TCM     c1 2803   4.989   1.872   0.516
    1TCM    cl1 2804   5.010   1.843   0.342
    1TCM    cl2 2805   4.950   1.719   0.597
    1TCM     h1 2806   5.083   1.913   0.558
    1TCM    cl3 2807   4.857   1.988   0.542
    1TCM     c1 2808   2.126   3.177   2.173
    1TCM    cl1 2809   2.117   3.329   2.264
    1TCM    cl2 2810   2.231   3.200   2.031
    1TCM     h1 2811   2.168   3.097   2.237
    1TCM    cl3 2812   1.963   3.130   2.119
    1TCM     c1 2813   1.992   0.949   4.968
    1TCM    cl1 2814   2.040   1.117   4.934
    1TCM    cl2 2815   2.111   0.837   4.899
    1TCM     h1 2816   1.986   0.934   5.078
    1TCM    cl3 2817   1.832   0.918   4.896
    1TCM     c1 2818   0.296   5.092   3.999
    1TCM    cl1 2819   0.362   5.211   4.113
    1TCM    cl2 2820   0.328   5.145   3.832
    1TCM     h1 2821   0.344   4.993   4.016
    1TCM    cl3 2822   0.120   5.077   4.023
    1TCM     c1 2823   1.659   4.493   1.728
    1TCM    cl1 2824   1.651   4.627   1.612
    1TCM    cl2 2825   1.826   4.476   1.787
    1TCM     h1 2826   1.592   4.513   1.814
    1TCM    cl3 2827   1.610   4.342   1.648
    1TCM     c1 2828   4.940   0.991   4.262
    1TCM    cl1 2829   4.842   0.903   4.382
    1TCM    cl2 2830   4.865   0.974   4.101
    1TCM     h1 2831   4.944   1.098   4.289
    1TCM    cl3 2832   5.104   0.924   4.258
    1TCM     c1 2833   2.342   3.222   0.251
    1TCM    cl1 2834   2.362   3.312   0.099
    1TCM    cl2 2835   2.265   3.327   0.373
    1TCM     h1 2836   2.278   3.133   0.234
    1TCM    cl3 2837   2.501   3.170   0.311
    1TCM     c1 2838   2.674   4.269   1.393
    1TCM    cl1 2839   2.785   4.403   1.429
    1TCM    cl2 2840   2.693   4.220   1.224
    1TCM     h1 2841   2.696   4.184   1.460
    1TCM    cl3 2842   2.506   4.323   1.421
    1TCM     c1 2843   1.678   0.949   4.110
    1TCM    cl1 2844   1.780   0.817   4.171
    1TCM    cl2 2845   1.711   0.975   3.937
    1TCM     h1 2846   1.571   0.923   4.124
    1TCM    cl3 2847   1.715   1.099   4.200
    1TCM     c1 2848   1.585   1.127   2.873
    1TCM    cl1 2849   1.604   1.143   2.697
    1TCM    cl2 2850   1.531   0.962   2.912
    1TCM     h1 2851   1.683   1.146   2.923
    1TCM    cl3 2852   1.464   1.244   2.931
    1TCM     c1 2853   1.990   3.192   3.479
    1TCM    cl1 2854   1.961   3.171   3.305
    1TCM    cl2 2855   2.033   3.362   3.512
    1TCM     h1 2856   1.898   3.166   3.536
    1TCM    cl3 2857   2.123   3.087   3.531
    1TCM     c1 2858   3.860   4.286   3.041
    1TCM    cl1 2859   3.806   4.428   3.133
    1TCM    cl2 2860   3.879   4.329   2.869
    1TCM     h1 2861   3.957   4.251   3.081
    1TCM    cl3 2862   3.740   4.155   3.056
    1TCM     c1 2863   2.702   5.134   0.536
    1TCM    cl1 2864   2.879   5.129   0.516
    1TCM    cl2 2865   2.650   5.303   0.552
    1TCM     h1 2866   2.654   5.088   0.448
    1TCM    cl3 2867   2.657   5.044   0.683
    1TCM     c1 2868   1.650   3.806   4.112
    1TCM    cl1 2869   1.772   3.935   4.104
    1TCM    cl2 2870   1.698   3.687   4.236
    1TCM     h1 2871   1.552   3.849   4.139
    1TCM    cl3 2872   1.639   3.725   3.954
    1TCM     c1 2873   2.375   2.234   1.325
    1TCM    cl1 2874   2.516   2.334   1.368
    1TCM    cl2 2875   2.254   2.335   1.243
    1TCM     h1 2876   2.407   2.153   1.257
    1TCM    cl3 2877   2.305   2.165   1.473
    1TCM     c1 2878   3.139   0.139   3.827
    1TCM    cl1 2879   3.186   0.077   3.987
    1TCM    cl2 2880   3.125   0.316   3.834
    1TCM     h1 2881   3.217   0.111   3.753
    1TCM    cl3 2882   2.983   0.069   3.780
    1TCM     c1 2883   2.052   1.216   2.103
    1TCM    cl1 2884   2.043   1.344   1.980
    1TCM    cl2 2885   1.946   1.259   2.240
    1TCM     h1 2886   2.018   1.120   2.059
    1TCM    cl3 2887   2.220   1.200   2.161
    1TCM     c1 2888   2.329   2.798   0.417
    1TCM    cl1 2889   2.203   2.859   0.528
    1TCM    cl2 2890   2.280   2.830   0.249
    1TCM     h1 2891   2.424   2.850   0.438
    1TCM    cl3 2892   2.349   2.623   0.441
    1TCM     c1 2893   3.606   2.510   4.371
    1TCM    cl1 2894   3.691   2.661   4.411
    1TCM    cl2 2895   3.722   2.391   4.307
    1TCM     h1 2896   3.558   2.469   4.462
    1TCM    cl3 2897   3.482   2.542   4.248
    1TCM     c1 2898   0.768   0.431   1.998
    1TCM    cl1 2899   0.628   0.393   1.895
    1TCM    cl2 2900   0.731   0.389   2.167
    1TCM     h1 2901   0.857   0.373   1.964
    1TCM    cl3 2902   0.804   0.605   1.988
    1TCM     c1 2903   0.073   2.891   3.876
    1TCM    cl1 2904   0.097   3.063   3.912
    1TCM    cl2 2905   0.005   2.809   4.018
    1TCM     h1 2906   0.004   2.880   3.790
    1TCM    cl3 2907   0.230   2.817   3.835
    1TCM     c1 2908   4.293   4.858   0.797
    1TCM    cl1 2909   4.324   4.858   0.973
    1TCM    cl2 2910   4.330   5.019   0.731
    1TCM     h1 2911   4.357   4.782   0.748
    1TCM    cl3 2912   4.122   4.820   0.767
    1TCM     c1 2913   0.298   4.308   1.103
    1TCM    cl1 2914   0.261   4.134   1.098
    1TCM    cl2 2915   0.160   4.399   1.036
    1TCM     h1 2916   0.315   4.339   1.208
    1TCM    cl3 2917   0.443   4.341   1.006
    1TCM     c1 2918   2.193   2.353   3.822
    1TCM    cl1 2919   2.262   2.387   3.661
    1TCM    cl2 2920   2.325   2.330   3.939
    1TCM     h1 2921   2.129   2.438   3.854
    1TCM    cl3 2922   2.095   2.205   3.814
    1TCM     c1 2923   0.578   4.088   1.298
    1TCM    cl1 2924   0.472   4.121   1.159
    1TCM    cl2 2925   0.519   4.178   1.440
    1TCM     h1 2926   0.577   3.979   1.321
    1TCM    cl3 2927   0.744   4.139   1.260
    1TCM     c1 2928   1.471   3.890   0.408
    1TCM    cl1 2929   1.323   3.872   0.506
    1TCM    cl2 2930   1.591   3.769   0.459
    1TCM     h1 2931   1.446   3.874   0.301
    1TCM    cl3 2932   1.537   4.053   0.431
    1TCM     c1 2933   3.179   2.128   2.550
    1TCM    cl1 2934   3.321   2.022   2.528
    1TCM    cl2 2935   3.174   2.247   2.418
    1TCM     h1 2936   3.087   2.066   2.547
    1TCM    cl3 2937   3.191   2.212   2.706
    1TCM     c1 2938   1.906   2.735   2.542
    1TCM    cl1 2939   2.042   2.727   2.656
    1TCM    cl2 2940   1.755   2.698   2.628
    1TCM     h1 2941   1.900   2.837   2.498
    1TCM    cl3 2942   1.931   2.616   2.412
    1TCM     c1 2943   3.413   5.125   2.098
    1TCM    cl1 2944   3.348   5.243   1.982
    1TCM    cl2 2945   3.278   5.040   2.178
    1TCM     h1 2946   3.476   5.051   2.044
    1TCM    cl3 2947   3.510   5.209   2.220
    1TCM     c1 2948   1.045   2.540   4.403
    1TCM    cl1 2949   1.154   2.627   4.513
    1TCM    cl2 2950   1.075   2.592   4.235
    1TCM     h1 2951   1.064   2.431   4.411
    1TCM    cl3 2952   0.876   2.575   4.446
    1TCM     c1 2953   4.624   3.899   4.931
    1TCM    cl1 2954   4.686   3.758   5.021
    1TCM    cl2 2955   4.718   3.920   4.781
    1TCM     h1 2956   4.517   3.883   4.906
    1TCM    cl3 2957   4.641   4.045   5.032
    1TCM     c1 2958   4.918   1.880   4.163
    1TCM    cl1 2959   5.085   1.821   4.185
    1TCM    cl2 2960   4.868   1.855   3.995
    1TCM     h1 2961   4.850   1.824   4.231
    1TCM    cl3 2962   4.911   2.053   4.202
    1TCM     c1 2963   4.127   2.240   2.866
    1TCM    cl1 2964   4.032   2.389   2.842
    1TCM    cl2 2965   4.153   2.161   2.709
    1TCM     h1 2966   4.225   2.265   2.911
    1TCM    cl3 2967   4.038   2.130   2.974
    1TCM     c1 2968   1.467   2.828   5.168
    1TCM    cl1 2969   1.450   2.997   5.220
    1TCM    cl2 2970   1.311   2.745   5.184
    1TCM     h1 2971   1.500   2.825   5.062
    1TCM    cl3 2972   1.588   2.747   5.270
    1TCM     c1 2973   3.664   2.146   3.133
    1TCM    cl1 2974   3.510   2.231   3.107
    1TCM    cl2 2975   3.723   2.179   3.298
    1TCM     h1 2976   3.649   2.037   3.120
    1TCM    cl3 2977   3.784   2.204   3.015
    1TCM     c1 2978   2.753   4.871   1.045
    1TCM    cl1 2979   2.706   5.028   1.115
    1TCM    cl2 2980   2.668   4.848   0.890
    1TCM     h1 2981   2.862   4.870   1.027
    1TCM    cl3 2982   2.709   4.740   1.157
    1TCM     c1 2983   1.645   3.822   0.855
    1TCM    cl1 2984   1.788   3.761   0.943
    1TCM    cl2 2985   1.650   3.764   0.687
    1TCM     h1 2986   1.553   3.786   0.904
    1TCM    cl3 2987   1.647   4.000   0.857
    1TCM     c1 2988   5.070   3.219   5.124
    1TCM    cl1 2989   5.002   3.342   5.233
    1TCM    cl2 2990   4.955   3.085   5.107
    1TCM     h1 2991   5.089   3.265   5.024
    1TCM    cl3 2992   5.223   3.158   5.190
    1TCM     c1 2993   2.950   5.036   3.101
    1TCM    cl1 2994   3.034   5.192   3.080
    1TCM    cl2 2995   2.880   4.985   2.946
    1TCM     h1 2996   3.023   4.959   3.135
    1TCM    cl3 2997   2.821   5.053   3.222
    1TCM     c1 2998   4.802   3.872   3.672
    1TCM    cl1 2999   4.769   3.844   3.845
    1TCM    cl2 3000   4.649   3.907   3.588
    1TCM     h1 3001   4.871   3.958   3.661
    1TCM    cl3 3002   4.877   3.727   3.602
    1TCM     c1 3003   1.686   0.904   3.148
    1TCM    cl1 3004   1.805   1.030   3.108
    1TCM    cl2 3005   1.528   0.980   3.181
    1TCM     h1 3006   1.676   0.835   3.062
    1TCM    cl3 3007   1.740   0.814   3.291
    1TCM     c1 3008   3.314   2.736   4.578
    1TCM    cl1 3009   3.460   2.834   4.547
    1TCM    cl2 3010   3.268   2.650   4.429
    1TCM     h1 3011   3.335   2.663   4.658
    1TCM    cl3 3012   3.181   2.843   4.628
    1TCM     c1 3013   2.350   4.265   0.620
    1TCM    cl1 3014   2.475   4.205   0.508
    1TCM    cl2 3015   2.421   4.288   0.781
    1TCM     h1 3016   2.311   4.361   0.583
    1TCM    cl3 3017   2.218   4.146   0.630
    1TCM     c1 3018   3.239   1.592   0.301
    1TCM    cl1 3019   3.354   1.686   0.204
    1TCM    cl2 3020   3.156   1.474   0.197
    1TCM     h1 3021   3.294   1.538   0.382
    1TCM    cl3 3022   3.119   1.702   0.374
    1TCM     c1 3023   2.384   1.752   4.035
    1TCM    cl1 3024   2.408   1.805   4.203
    1TCM    cl2 3025   2.222   1.802   3.980
    1TCM     h1 3026   2.461   1.799   3.970
    1TCM    cl3 3027   2.398   1.575   4.025
    1TCM     c1 3028   1.266   0.938   2.716
    1TCM    cl1 3029   1.435   0.990   2.704
    1TCM    cl2 3030   1.185   0.965   2.559
    1TCM     h1 3031   1.262   0.830   2.741
    1TCM    cl3 3032   1.183   1.032   2.842
    1TCM     c1 3033   2.824   4.329   5.120
    1TCM    cl1 3034   2.774   4.268   5.279
    1TCM    cl2 3035   2.679   4.365   5.023
    1TCM     h1 3036   2.883   4.422   5.133
    1TCM    cl3 3037   2.922   4.207   5.037
    1TCM     c1 3038   2.313   4.478   1.622
    1TCM    cl1 3039   2.144   4.525   1.651
    1TCM    cl2 3040   2.372   4.560   1.475
    1TCM     h1 3041   2.375   4.508   1.709
    1TCM    cl3 3042   2.322   4.302   1.599
    1TCM     c1 3043   0.968   2.567   5.141
    1TCM    cl1 3044   0.818   2.531   5.230
    1TCM    cl2 3045   0.968   2.478   4.987
    1TCM     h1 3046   0.974   2.676   5.121
    1TCM    cl3 3047   1.108   2.517   5.238
    1TCM     c1 3048   1.646   1.298   1.923
    1TCM    cl1 3049   1.737   1.215   1.794
    1TCM    cl2 3050   1.723   1.455   1.957
    1TCM     h1 3051   1.542   1.315   1.890
    1TCM    cl3 3052   1.648   1.198   2.070
    1TCM     c1 3053   0.520   3.624   3.643
    1TCM    cl1 3054   0.395   3.751   3.640
    1TCM    cl2 3055   0.587   3.603   3.479
    1TCM     h1 3056   0.601   3.654   3.712
    1TCM    cl3 3057   0.447   3.471   3.697
    1TCM     c1 3058   0.265   0.161   3.807
    1TCM    cl1 3059   0.319   0.329   3.786
    1TCM    cl2 3060   0.387   0.050   3.739
    1TCM     h1 3061   0.253   0.140   3.916
    1TCM    cl3 3062   0.110   0.137   3.724
    1TCM     c1 3063   4.261   5.195   3.311
    1TCM    cl1 3064   4.406   5.222   3.411
    1TCM    cl2 3065   4.287   5.055   3.205
    1TCM     h1 3066   4.174   5.176   3.378
    1TCM    cl3 3067   4.229   5.340   3.213
    1TCM     c1 3068   3.247   4.022   1.533
    1TCM    cl1 3069   3.382   4.119   1.597
    1TCM    cl2 3070   3.279   3.849   1.562
    1TCM     h1 3071   3.153   4.051   1.583
    1TCM    cl3 3072   3.233   4.050   1.358
    1TCM     c1 3073   4.641   4.324   3.841
    1TCM    cl1 3074   4.565   4.471   3.905
    1TCM    cl2 3075   4.740   4.248   3.968
    1TCM     h1 3076   4.562   4.253   3.808
    1TCM    cl3 3077   4.744   4.366   3.703
    1TCM     c1 3078   0.950   3.734   0.402
    1TCM    cl1 3079   0.929   3.564   0.356
    1TCM    cl2 3080   0.879   3.838   0.277
    1TCM     h1 3081   0.900   3.753   0.499
    1TCM    cl3 3082   1.123   3.770   0.418
    1TCM     c1 3083   5.124   2.332   5.095
    1TCM    cl1 3084   5.061   2.266   5.247
    1TCM    cl2 3085   5.300   2.355   5.109
    1TCM     h1 3086   5.102   2.262   5.012
    1TCM    cl3 3087   5.047   2.489   5.062
    1TCM     c1 3088   0.991   5.030   2.477
    1TCM    cl1 3089   0.937   5.108   2.628
    1TCM    cl2 3090   0.988   5.149   2.345
    1TCM     h1 3091   1.094   4.992   2.490
    1TCM    cl3 3092   0.882   4.895   2.438
    1TCM     c1 3093   1.013   1.251   4.197
    1TCM    cl1 3094   0.925   1.340   4.323
    1TCM    cl2 3095   0.944   1.291   4.037
    1TCM     h1 3096   1.120   1.279   4.199
    1TCM    cl3 3097   0.997   1.076   4.226
    1TCM     c1 3098   3.911   2.699   4.213
    1TCM    cl1 3099   3.788   2.627   4.106
    1TCM    cl2 3100   3.905   2.619   4.372
    1TCM     h1 3101   4.012   2.684   4.168
    1TCM    cl3 3102   3.879   2.872   4.233
    1TCM     c1 3103   2.293   3.523   5.216
    1TCM    cl1 3104   2.440   3.548   5.119
    1TCM    cl2 3105   2.182   3.415   5.128
    1TCM     h1 3106   2.319   3.478   5.313
    1TCM    cl3 3107   2.213   3.680   5.243
    1TCM     c1 3108   1.280   0.595   0.980
    1TCM    cl1 3109   1.275   0.611   0.803
    1TCM    cl2 3110   1.252   0.754   1.054
    1TCM     h1 3111   1.201   0.524   1.013
    1TCM    cl3 3112   1.439   0.534   1.029
    1TCM     c1 3113   0.413   3.660   0.566
    1TCM    cl1 3114   0.473   3.631   0.401
    1TCM    cl2 3115   0.406   3.506   0.654
    1TCM     h1 3116   0.481   3.730   0.619
    1TCM    cl3 3117   0.250   3.731   0.558
    1TCM     c1 3118   3.217   1.680   3.453
    1TCM    cl1 3119   3.212   1.824   3.349
    1TCM    cl2 3120   3.216   1.533   3.352
    1TCM     h1 3121   3.310   1.682   3.514
    1TCM    cl3 3122   3.076   1.679   3.561
    1TCM     c1 3123   2.851   4.762   0.321
    1TCM    cl1 3124   2.924   4.868   0.198
    1TCM    cl2 3125   2.828   4.599   0.253
    1TCM     h1 3126   2.919   4.756   0.409
    1TCM    cl3 3127   2.694   4.828   0.371
    1TCM     c1 3128   3.741   3.532   3.396
    1TCM    cl1 3129   3.917   3.530   3.419
    1TCM    cl2 3130   3.699   3.645   3.265
    1TCM     h1 3131   3.706   3.430   3.368
    1TCM    cl3 3132   3.662   3.583   3.546
    1TCM     c1 3133   2.955   3.946   0.983
    1TCM    cl1 3134   3.008   4.101   1.053
    1TCM    cl2 3135   2.778   3.946   0.966
    1TCM     h1 3136   3.002   3.932   0.883
    1TCM    cl3 3137   3.005   3.812   1.090
    1TCM     c1 3138   4.478   4.353   1.194
    1TCM    cl1 3139   4.487   4.447   1.044
    1TCM    cl2 3140   4.640   4.288   1.233
    1TCM     h1 3141   4.444   4.418   1.277
    1TCM    cl3 3142   4.364   4.218   1.174
    1TCM     c1 3143   4.569   3.079   0.261
    1TCM    cl1 3144   4.510   3.227   0.340
    1TCM    cl2 3145   4.728   3.035   0.327
    1TCM     h1 3146   4.497   2.996   0.279
    1TCM    cl3 3147   4.583   3.106   0.086
    1TCM     c1 3148   2.926   1.033   2.245
    1TCM    cl1 3149   2.831   0.898   2.309
    1TCM    cl2 3150   2.833   1.117   2.118
    1TCM     h1 3151   2.949   1.104   2.327
    1TCM    cl3 3152   3.078   0.972   2.176
    1TCM     c1 3153   3.443   4.582   2.996
    1TCM    cl1 3154   3.464   4.724   2.890
    1TCM    cl2 3155   3.355   4.631   3.142
    1TCM     h1 3156   3.385   4.504   2.942
    1TCM    cl3 3157   3.602   4.517   3.041
    1TCM     c1 3158   3.723   3.479   3.939
    1TCM    cl1 3159   3.816   3.577   4.055
    1TCM    cl2 3160   3.736   3.307   3.983
    1TCM     h1 3161   3.617   3.510   3.942
    1TCM    cl3 3162   3.787   3.503   3.775
    1TCM     c1 3163   4.168   0.315   0.218
    1TCM    cl1 3164   4.317   0.303   0.315
    1TCM    cl2 3165   4.198   0.248   0.056
    1TCM     h1 3166   4.088   0.257   0.267
    1TCM    cl3 3167   4.120   0.485   0.204
    1TCM     c1 3168   3.262   3.174   3.467
    1TCM    cl1 3169   3.368   3.099   3.589
    1TCM    cl2 3170   3.334   3.154   3.306
    1TCM     h1 3171   3.162   3.125   3.470
    1TCM    cl3 3172   3.243   3.347   3.503
    1TCM     c1 3173   0.572   2.468   1.830
    1TCM    cl1 3174   0.584   2.551   1.673
    1TCM    cl2 3175   0.514   2.302   1.805
    1TCM     h1 3176   0.673   2.465   1.878
    1TCM    cl3 3177   0.459   2.556   1.935
    1TCM     c1 3178   5.190   4.295   3.023
    1TCM    cl1 3179   5.200   4.454   2.944
    1TCM    cl2 3180   5.242   4.310   3.192
    1TCM     h1 3181   5.086   4.258   3.019
    1TCM    cl3 3182   5.297   4.180   2.938
    1TCM     c1 3183   2.325   3.516   1.566
    1TCM    cl1 3184   2.451   3.482   1.445
    1TCM    cl2 3185   2.398   3.519   1.728
    1TCM     h1 3186   2.278   3.614   1.544
    1TCM    cl3 3187   2.201   3.389   1.560
    1TCM     c1 3188   5.085   1.371   2.448
    1TCM    cl1 3189   5.126   1.503   2.335
    1TCM    cl2 3190   5.235   1.298   2.509
    1TCM     h1 3191   5.027   1.412   2.533
    1TCM    cl3 3192   4.989   1.248   2.363
    1TCM     c1 3193   4.190   3.119   3.999
    1TCM    cl1 3194   4.034   3.060   4.059
    1TCM    cl2 3195   4.313   2.992   4.019
    1TCM     h1 3196   4.182   3.145   3.891
    1TCM    cl3 3197   4.239   3.263   4.091
    1TCM     c1 3198   1.608   3.549   3.479
    1TCM    cl1 3199   1.661   3.655   3.346
    1TCM    cl2 3200   1.626   3.379   3.429
    1TCM     h1 3201   1.670   3.568   3.569
    1TCM    cl3 3202   1.437   3.582   3.516
    1TCM     c1 3203   2.552   3.266   2.633
    1TCM    cl1 3204   2.454   3.181   2.754
    1TCM    cl2 3205   2.723   3.263   2.682
    1TCM     h1 3206   2.541   3.216   2.534
    1TCM    cl3 3207   2.497   3.435   2.621
    1TCM     c1 3208   1.895   2.892   0.173
    1TCM    cl1 3209   1.795   2.782   0.270
    1TCM    cl2 3210   1.873   2.855   0.000
    1TCM     h1 3211   1.864   2.997   0.192
    1TCM    cl3 3212   2.066   2.871   0.216
    1TCM     c1 3213   4.820   0.836   2.892
    1TCM    cl1 3214   4.773   0.671   2.939
    1TCM    cl2 3215   4.720   0.888   2.754
    1TCM     h1 3216   4.804   0.905   2.977
    1TCM    cl3 3217   4.991   0.839   2.845
    1TCM     c1 3218   4.885   2.048   1.279
    1TCM    cl1 3219   4.759   2.017   1.158
    1TCM    cl2 3220   4.841   2.189   1.377
    1TCM     h1 3221   4.896   1.959   1.345
    1TCM    cl3 3222   5.040   2.079   1.197
    1TCM     c1 3223   3.206   4.082   0.412
    1TCM    cl1 3224   3.249   3.921   0.474
    1TCM    cl2 3225   3.232   4.087   0.236
    1TCM     h1 3226   3.100   4.103   0.435
    1TCM    cl3 3227   3.309   4.204   0.490
    1TCM     c1 3228   2.736   4.023   3.597
    1TCM    cl1 3229   2.822   3.996   3.751
    1TCM    cl2 3230   2.838   3.970   3.462
    1TCM     h1 3231   2.641   3.965   3.597
    1TCM    cl3 3232   2.699   4.196   3.580
    1TCM     c1 3233   2.043   4.558   2.223
    1TCM    cl1 3234   2.073   4.391   2.169
    1TCM    cl2 3235   2.007   4.559   2.397
    1TCM     h1 3236   2.133   4.620   2.204
    1TCM    cl3 3237   1.905   4.625   2.134
    1TCM     c1 3238   1.491   1.808   0.543
    1TCM    cl1 3239   1.661   1.856   0.518
    1TCM    cl2 3240   1.408   1.803   0.386
    1TCM     h1 3241   1.488   1.708   0.590
    1TCM    cl3 3242   1.411   1.926   0.649
    1TCM     c1 3243   0.278   2.832   4.380
    1TCM    cl1 3244   0.312   2.998   4.325
    1TCM    cl2 3245   0.315   2.718   4.248
    1TCM     h1 3246   0.342   2.808   4.468
    1TCM    cl3 3247   0.107   2.818   4.425
    1TCM     c1 3248   0.502   1.615   4.677
    1TCM    cl1 3249   0.549   1.765   4.759
    1TCM    cl2 3250   0.586   1.477   4.752
    1TCM     h1 3251   0.392   1.600   4.685
    1TCM    cl3 3252   0.547   1.624   4.505
    1TCM     c1 3253   5.035   2.942   0.635
    1TCM    cl1 3254   5.008   2.951   0.810
    1TCM    cl2 3255   5.045   2.771   0.585
    1TCM     h1 3256   4.950   2.991   0.582
    1TCM    cl3 3257   5.187   3.025   0.594
    1TCM     c1 3258   2.219   4.219   4.835
    1TCM    cl1 3259   2.269   4.065   4.910
    1TCM    cl2 3260   2.222   4.348   4.957
    1TCM     h1 3261   2.289   4.244   4.753
    1TCM    cl3 3262   2.055   4.202   4.771
    1TCM     c1 3263   3.078   3.456   3.254
    1TCM    cl1 3264   2.912   3.467   3.190
    1TCM    cl2 3265   3.161   3.612   3.229
    1TCM     h1 3266   3.074   3.434   3.362
    1TCM    cl3 3267   3.166   3.328   3.169
    1TCM     c1 3268   2.954   4.382   0.395
    1TCM    cl1 3269   2.955   4.255   0.520
    1TCM    cl2 3270   3.102   4.370   0.297
    1TCM     h1 3271   2.865   4.369   0.330
    1TCM    cl3 3272   2.947   4.542   0.472
    1TCM     c1 3273   3.450   4.479   0.475
    1TCM    cl1 3274   3.479   4.355   0.350
    1TCM    cl2 3275   3.510   4.420   0.632
    1TCM     h1 3276   3.504   4.572   0.447
    1TCM    cl3 3277   3.276   4.512   0.486
    1TCM     c1 3278   2.320   3.748   1.049
    1TCM    cl1 3279   2.485   3.811   1.069
    1TCM    cl2 3280   2.267   3.671   1.201
    1TCM     h1 3281   2.252   3.831   1.023
    1TCM    cl3 3282   2.319   3.627   0.918
    1TCM     c1 3283   4.094   3.936   3.743
    1TCM    cl1 3284   4.164   3.881   3.588
    1TCM    cl2 3285   4.226   3.972   3.857
    1TCM     h1 3286   4.034   4.027   3.726
    1TCM    cl3 3287   3.991   3.808   3.810
    1TCM     c1 3288   5.215   4.781   4.202
    1TCM    cl1 3289   5.061   4.742   4.122
    1TCM    cl2 3290   5.183   4.840   4.366
    1TCM     h1 3291   5.278   4.689   4.207
    1TCM    cl3 3292   5.300   4.906   4.109
    1TCM     c1 3293   4.207   0.352   3.544
    1TCM    cl1 3294   4.237   0.213   3.651
    1TCM    cl2 3295   4.054   0.430   3.589
    1TCM     h1 3296   4.290   0.425   3.555
    1TCM    cl3 3297   4.198   0.297   3.375
    1TCM     c1 3298   2.442   2.664   3.451
    1TCM    cl1 3299   2.388   2.798   3.348
    1TCM    cl2 3300   2.386   2.691   3.618
    1TCM     h1 3301   2.399   2.569   3.412
    1TCM    cl3 3302   2.619   2.654   3.448
    1TCM     c1 3303   5.014   4.583   2.607
    1TCM    cl1 3304   4.979   4.701   2.735
    1TCM    cl2 3305   4.997   4.418   2.673
    1TCM     h1 3306   4.942   4.597   2.524
    1TCM    cl3 3307   5.180   4.607   2.547
    1TCM     c1 3308   2.384   0.840   2.068
    1TCM    cl1 3309   2.291   0.726   1.968
    1TCM    cl2 3310   2.389   0.781   2.235
    1TCM     h1 3311   2.487   0.848   2.028
    1TCM    cl3 3312   2.307   1.000   2.063
    1TCM     c1 3313   0.277   2.365   3.079
    1TCM    cl1 3314   0.160   2.347   2.947
    1TCM    cl2 3315   0.319   2.204   3.142
    1TCM     h1 3316   0.368   2.415   3.042
    1TCM    cl3 3317   0.205   2.462   3.210
    1TCM     c1 3318   1.083   4.051   1.105
    1TCM    cl1 3319   1.100   4.061   0.929
    1TCM    cl2 3320   1.236   3.995   1.177
    1TCM     h1 3321   1.057   4.151   1.146
    1TCM    cl3 3322   0.953   3.935   1.145
    1TCM     c1 3323   2.665   3.016   0.723
    1TCM    cl1 3324   2.700   3.085   0.563
    1TCM    cl2 3325   2.577   3.136   0.821
    1TCM     h1 3326   2.602   2.925   0.711
    1TCM    cl3 3327   2.817   2.973   0.805
    1TCM     c1 3328   0.643   0.655   0.948
    1TCM    cl1 3329   0.749   0.546   0.856
    1TCM    cl2 3330   0.538   0.560   1.055
    1TCM     h1 3331   0.706   0.724   1.010
    1TCM    cl3 3332   0.544   0.751   0.836
    1TCM     c1 3333   5.075   2.180   3.243
    1TCM    cl1 3334   4.994   2.303   3.343
    1TCM    cl2 3335   5.088   2.240   3.076
    1TCM     h1 3336   5.176   2.160   3.283
    1TCM    cl3 3337   4.979   2.030   3.245
    1TCM     c1 3338   2.499   1.013   3.493
    1TCM    cl1 3339   2.627   1.017   3.369
    1TCM    cl2 3340   2.563   1.078   3.645
    1TCM     h1 3341   2.413   1.075   3.459
    1TCM    cl3 3342   2.445   0.845   3.517
    1TCM     c1 3343   5.070   1.019   2.254
    1TCM    cl1 3344   5.190   1.144   2.215
    1TCM    cl2 3345   5.128   0.861   2.196
    1TCM     h1 3346   5.056   1.015   2.364
    1TCM    cl3 3347   4.915   1.058   2.175
    1TCM     c1 3348   3.972   0.491   4.529
    1TCM    cl1 3349   3.829   0.443   4.623
    1TCM    cl2 3350   4.000   0.665   4.549
    1TCM     h1 3351   4.060   0.435   4.565
    1TCM    cl3 3352   3.944   0.455   4.357
    1TCM     c1 3353   5.107   0.885   5.065
    1TCM    cl1 3354   5.202   0.802   4.939
    1TCM    cl2 3355   5.185   0.861   5.223
    1TCM     h1 3356   5.101   0.993   5.043
    1TCM    cl3 3357   4.942   0.817   5.069
    1TCM     c1 3358   2.917   0.630   1.541
    1TCM    cl1 3359   3.066   0.725   1.526
    1TCM    cl2 3360   2.819   0.694   1.675
    1TCM     h1 3361   2.859   0.636   1.447
    1TCM    cl3 3362   2.959   0.460   1.575
    1TCM     c1 3363   2.122   1.388   3.823
    1TCM    cl1 3364   2.134   1.400   4.000
    1TCM    cl2 3365   2.137   1.218   3.775
    1TCM     h1 3366   2.024   1.428   3.790
    1TCM    cl3 3367   2.253   1.483   3.749
   5.54000   5.54000   5.54000
