FOO
 3367
    1POM     C1    1   2.620   0.861   1.469
    1POM     O2    2   2.706   0.958   1.409
    1POM     C3    3   2.649   1.079   1.378
    1POM     C4    4   2.522   1.092   1.319
    1POM     C5    5   2.469   1.218   1.292
    1POM     C6    6   2.540   1.334   1.324
    1POM     C7    7   2.476   1.465   1.304
    1POM     C8    8   2.429   1.537   1.414
    1POM     C9    9   2.371   1.663   1.397
    1POM    C10   10   2.363   1.720   1.270
    1POM    C11   11   2.411   1.651   1.157
    1POM    C12   12   2.408   1.713   1.023
    1POM    O13   13   2.470   1.658   0.933
    1POM    C14   14   2.466   1.522   1.176
    1POM    C15   15   2.668   1.322   1.381
    1POM    C16   16   2.747   1.441   1.417
    1POM    C17   17   2.777   1.468   1.551
    1POM    C18   18   2.839   1.587   1.587
    1POM    C19   19   2.877   1.681   1.489
    1POM    C20   20   2.934   1.816   1.527
    1POM    C21   21   3.050   1.811   1.627
    1POM    N22   22   2.820   1.902   1.561
    1POM    C23   23   2.853   1.650   1.354
    1POM    C24   24   2.787   1.532   1.318
    1POM    C25   25   2.721   1.195   1.408
    1POM    H26   26   2.687   0.785   1.510
    1POM    H27   27   2.563   0.912   1.547
    1POM    H28   28   2.557   0.821   1.389
    1POM    H29   29   2.464   1.004   1.293
    1POM    H30   30   2.370   1.226   1.249
    1POM    H31   31   2.437   1.494   1.514
    1POM    H32   32   2.335   1.717   1.484
    1POM    H33   33   2.320   1.819   1.259
    1POM    H34   34   2.502   1.466   1.091
    1POM    H35   35   2.747   1.398   1.628
    1POM    H36   36   2.855   1.608   1.692
    1POM    H37   37   2.978   1.859   1.436
    1POM    H38   38   3.072   1.915   1.653
    1POM    H39   39   3.132   1.763   1.574
    1POM    H40   40   3.018   1.753   1.714
    1POM    H41   41   2.764   1.932   1.482
    1POM    H42   42   2.882   1.719   1.275
    1POM    H43   43   2.765   1.512   1.214
    1POM    H44   44   2.819   1.186   1.453
    2POM    C45   45   2.234   1.999   2.454
    2POM    O46   46   2.177   2.063   2.340
    2POM    C47   47   2.240   2.049   2.218
    2POM    C48   48   2.344   1.960   2.191
    2POM    C49   49   2.400   1.952   2.064
    2POM    C50   50   2.355   2.032   1.957
    2POM    C51   51   2.414   2.008   1.823
    2POM    C52   52   2.338   2.010   1.705
    2POM    C53   53   2.396   1.982   1.581
    2POM    C54   54   2.531   1.949   1.572
    2POM    C55   55   2.611   1.945   1.688
    2POM    C56   56   2.753   1.905   1.682
    2POM    O57   57   2.809   1.868   1.785
    2POM    C58   58   2.551   1.976   1.811
    2POM    C59   59   2.251   2.125   1.985
    2POM    C60   60   2.194   2.217   1.885
    2POM    C61   61   2.056   2.220   1.864
    2POM    C62   62   2.000   2.301   1.765
    2POM    C63   63   2.081   2.381   1.684
    2POM    C64   64   2.022   2.463   1.571
    2POM    C65   65   1.935   2.579   1.619
    2POM    N66   66   1.961   2.369   1.476
    2POM    C67   67   2.220   2.381   1.707
    2POM    C68   68   2.275   2.300   1.806
    2POM    C69   69   2.196   2.131   2.114
    2POM    H70   70   2.175   2.033   2.539
    2POM    H71   71   2.225   1.891   2.438
    2POM    H72   72   2.338   2.033   2.460
    2POM    H73   73   2.383   1.893   2.268
    2POM    H74   74   2.478   1.878   2.048
    2POM    H75   75   2.232   2.032   1.708
    2POM    H76   76   2.335   1.985   1.491
    2POM    H77   77   2.572   1.923   1.475
    2POM    H78   78   2.613   1.975   1.901
    2POM    H79   79   1.991   2.157   1.924
    2POM    H80   80   1.892   2.299   1.750
    2POM    H81   81   2.105   2.509   1.517
    2POM    H82   82   1.892   2.624   1.529
    2POM    H83   83   2.003   2.646   1.672
    2POM    H84   84   1.859   2.537   1.686
    2POM    H85   85   2.026   2.317   1.419
    2POM    H86   86   2.286   2.443   1.647
    2POM    H87   87   2.383   2.301   1.822
    2POM    H88   88   2.117   2.202   2.136
    3POM    C89   89   1.068   1.835   1.159
    3POM    O90   90   1.181   1.859   1.073
    3POM    C91   91   1.297   1.905   1.129
    3POM    C92   92   1.307   1.961   1.257
    3POM    C93   93   1.431   2.001   1.308
    3POM    C94   94   1.548   1.988   1.232
    3POM    C95   95   1.676   2.022   1.297
    3POM    C96   96   1.782   1.930   1.299
    3POM    C97   97   1.902   1.961   1.363
    3POM    C98   98   1.919   2.086   1.423
    3POM    C99   99   1.815   2.181   1.420
    3POM   C100  100   1.834   2.313   1.482
    3POM   O101  101   1.742   2.364   1.545
    3POM   C102  102   1.694   2.147   1.359
    3POM   C103  103   1.539   1.937   1.100
    3POM   C104  104   1.655   1.929   1.009
    3POM   C105  105   1.677   1.814   0.931
    3POM   C106  106   1.789   1.805   0.849
    3POM   C107  107   1.882   1.911   0.841
    3POM   C108  108   2.008   1.898   0.758
    3POM   C109  109   1.978   1.905   0.608
    3POM   N110  110   2.083   1.782   0.806
    3POM   C111  111   1.857   2.027   0.915
    3POM   C112  112   1.744   2.036   0.997
    3POM   C113  113   1.413   1.896   1.053
    3POM   H114  114   0.994   1.786   1.095
    3POM   H115  115   1.104   1.768   1.238
    3POM   H116  116   1.034   1.932   1.195
    3POM   H117  117   1.220   1.975   1.320
    3POM   H118  118   1.436   2.042   1.409
    3POM   H119  119   1.770   1.833   1.252
    3POM   H120  120   1.983   1.888   1.364
    3POM   H121  121   2.013   2.108   1.473
    3POM   H122  122   1.612   2.219   1.357
    3POM   H123  123   1.609   1.730   0.937
    3POM   H124  124   1.806   1.715   0.791
    3POM   H125  125   2.071   1.985   0.779
    3POM   H126  126   2.073   1.884   0.558
    3POM   H127  127   1.943   2.007   0.591
    3POM   H128  128   1.901   1.831   0.586
    3POM   H129  129   2.123   1.791   0.899
    3POM   H130  130   1.926   2.111   0.910
    3POM   H131  131   1.728   2.128   1.053
    3POM   H132  132   1.403   1.855   0.953
    4POM   C133  133   2.298   0.690   0.767
    4POM   O134  134   2.373   0.803   0.718
    4POM   C135  135   2.328   0.927   0.755
    4POM   C136  136   2.193   0.960   0.772
    4POM   C137  137   2.156   1.089   0.811
    4POM   C138  138   2.253   1.188   0.834
    4POM   C139  139   2.207   1.317   0.886
    4POM   C140  140   2.194   1.334   1.024
    4POM   C141  141   2.145   1.453   1.077
    4POM   C142  142   2.108   1.558   0.991
    4POM   C143  143   2.121   1.543   0.851
    4POM   C144  144   2.079   1.651   0.761
    4POM   O145  145   2.033   1.623   0.650
    4POM   C146  146   2.170   1.422   0.800
    4POM   C147  147   2.389   1.157   0.814
    4POM   C148  148   2.497   1.254   0.834
    4POM   C149  149   2.588   1.239   0.940
    4POM   C150  150   2.693   1.330   0.957
    4POM   C151  151   2.712   1.437   0.867
    4POM   C152  152   2.820   1.542   0.887
    4POM   C153  153   2.951   1.486   0.945
    4POM   N154  154   2.760   1.642   0.973
    4POM   C155  155   2.621   1.450   0.761
    4POM   C156  156   2.515   1.361   0.745
    4POM   C157  157   2.424   1.027   0.774
    4POM   H158  158   2.364   0.604   0.753
    4POM   H159  159   2.277   0.709   0.873
    4POM   H160  160   2.208   0.684   0.705
    4POM   H161  161   2.115   0.887   0.755
    4POM   H162  162   2.051   1.113   0.826
    4POM   H163  163   2.219   1.252   1.090
    4POM   H164  164   2.135   1.465   1.184
    4POM   H165  165   2.068   1.649   1.034
    4POM   H166  166   2.179   1.408   0.693
    4POM   H167  167   2.576   1.157   1.010
    4POM   H168  168   2.758   1.318   1.043
    4POM   H169  169   2.842   1.587   0.789
    4POM   H170  170   3.024   1.567   0.938
    4POM   H171  171   2.977   1.401   0.881
    4POM   H172  172   2.930   1.457   1.048
    4POM   H173  173   2.659   1.633   0.985
    4POM   H174  174   2.631   1.533   0.692
    4POM   H175  175   2.445   1.374   0.663
    4POM   H176  176   2.529   1.003   0.759
    5CAP   C177  177   2.367   1.902   0.887
    5CAP   O178  178   2.338   1.830   1.008
    5CAP   H179  179   2.341   1.837   0.803
    5CAP   H180  180   2.474   1.925   0.889
    5CAP   H181  181   2.305   1.991   0.891
    6CAP   C182  182   2.627   2.040   1.160
    6CAP   C183  183   2.749   1.991   1.078
    6CAP   C184  184   2.758   2.074   0.948
    6CAP   C185  185   2.875   2.012   1.165
    6CAP   O186  186   2.718   1.852   1.054
    6CAP   C187  187   2.804   1.771   0.986
    6CAP   O188  188   2.911   1.804   0.937
    6CAP   H189  189   2.647   2.143   1.188
    6CAP   H190  190   2.540   2.030   1.094
    6CAP   H191  191   2.621   1.974   1.246
    6CAP   H192  192   2.669   2.049   0.890
    6CAP   H193  193   2.850   2.045   0.898
    6CAP   H194  194   2.760   2.179   0.979
    6CAP   H195  195   2.861   1.950   1.254
    6CAP   H196  196   2.961   1.981   1.106
    6CAP   H197  197   2.879   2.119   1.189
    7TCM     c1  198   4.200   0.258   2.790
    7TCM    cl1  199   4.280   0.244   2.629
    7TCM    cl2  200   4.114   0.415   2.799
    7TCM     h1  201   4.129   0.176   2.803
    7TCM    cl3  202   4.326   0.250   2.918
    8TCM     c1  203   1.530   2.381   4.367
    8TCM    cl1  204   1.391   2.285   4.428
    8TCM    cl2  205   1.508   2.554   4.409
    8TCM     h1  206   1.623   2.344   4.412
    8TCM    cl3  207   1.539   2.364   4.188
    9TCM     c1  208   1.723   2.427   0.761
    9TCM    cl1  209   1.818   2.297   0.682
    9TCM    cl2  210   1.778   2.587   0.700
    9TCM     h1  211   1.617   2.414   0.740
    9TCM    cl3  212   1.751   2.418   0.938
   10TCM     c1  213   2.789   0.576   3.665
   10TCM    cl1  214   2.751   0.751   3.667
   10TCM    cl2  215   2.889   0.535   3.808
   10TCM     h1  216   2.697   0.518   3.666
   10TCM    cl3  217   2.880   0.539   3.515
   11TCM     c1  218   2.183   1.595   2.838
   11TCM    cl1  219   2.138   1.690   2.692
   11TCM    cl2  220   2.190   1.704   2.980
   11TCM     h1  221   2.109   1.517   2.855
   11TCM    cl3  222   2.345   1.520   2.813
   12TCM     c1  223   0.066   1.188   0.234
   12TCM    cl1  224   0.175   1.329   0.242
   12TCM    cl2  225  -0.060   1.203   0.361
   12TCM     h1  226   0.018   1.184   0.136
   12TCM    cl3  227   0.160   1.037   0.261
   13TCM     c1  228   2.891   0.733   2.620
   13TCM    cl1  229   2.775   0.870   2.622
   13TCM    cl2  230   2.798   0.579   2.622
   13TCM     h1  231   2.952   0.738   2.530
   13TCM    cl3  232   2.997   0.739   2.765
   14TCM     c1  233   3.293   3.904   4.657
   14TCM    cl1  234   3.175   3.824   4.548
   14TCM    cl2  235   3.308   4.077   4.614
   14TCM     h1  236   3.258   3.895   4.761
   14TCM    cl3  237   3.453   3.823   4.640
   15TCM     c1  238   0.236   3.946   3.396
   15TCM    cl1  239   0.207   3.784   3.326
   15TCM    cl2  240   0.147   4.069   3.301
   15TCM     h1  241   0.202   3.948   3.500
   15TCM    cl3  242   0.412   3.981   3.389
   16TCM     c1  243   3.772   1.105   2.492
   16TCM    cl1  244   3.653   1.170   2.609
   16TCM    cl2  245   3.936   1.166   2.532
   16TCM     h1  246   3.772   0.996   2.496
   16TCM    cl3  247   3.727   1.158   2.327
   17TCM     c1  248   4.830   2.824   4.244
   17TCM    cl1  249   4.686   2.902   4.172
   17TCM    cl2  250   4.779   2.682   4.341
   17TCM     h1  251   4.898   2.791   4.164
   17TCM    cl3  252   4.915   2.941   4.350
   18TCM     c1  253   0.373   2.538   1.082
   18TCM    cl1  254   0.468   2.685   1.044
   18TCM    cl2  255   0.247   2.577   1.204
   18TCM     h1  256   0.325   2.501   0.991
   18TCM    cl3  257   0.482   2.412   1.147
   19TCM     c1  258   1.365   1.693   2.000
   19TCM    cl1  259   1.271   1.846   2.004
   19TCM    cl2  260   1.252   1.555   1.992
   19TCM     h1  261   1.431   1.693   1.913
   19TCM    cl3  262   1.463   1.680   2.150
   20TCM     c1  263   4.293   4.292   0.609
   20TCM    cl1  264   4.460   4.349   0.643
   20TCM    cl2  265   4.277   4.256   0.434
   20TCM     h1  266   4.272   4.201   0.667
   20TCM    cl3  267   4.176   4.420   0.655
   21TCM     c1  268   2.576   0.085   3.721
   21TCM    cl1  269   2.707  -0.018   3.787
   21TCM    cl2  270   2.642   0.244   3.670
   21TCM     h1  271   2.532   0.035   3.634
   21TCM    cl3  272   2.450   0.110   3.846
   22TCM     c1  273   2.774   1.772   2.808
   22TCM    cl1  274   2.919   1.775   2.915
   22TCM    cl2  275   2.736   1.603   2.763
   22TCM     h1  276   2.689   1.816   2.861
   22TCM    cl3  277   2.808   1.867   2.660
   23TCM     c1  278   0.603   2.902   4.735
   23TCM    cl1  279   0.781   2.917   4.718
   23TCM    cl2  280   0.538   2.805   4.598
   23TCM     h1  281   0.579   2.852   4.829
   23TCM    cl3  282   0.528   3.065   4.733
   24TCM     c1  283   4.455   3.315   2.046
   24TCM    cl1  284   4.334   3.417   2.129
   24TCM    cl2  285   4.371   3.196   1.941
   24TCM     h1  286   4.520   3.377   1.984
   24TCM    cl3  287   4.553   3.227   2.168
   25TCM     c1  288   0.314   3.713   4.705
   25TCM    cl1  289   0.189   3.596   4.757
   25TCM    cl2  290   0.263   3.879   4.749
   25TCM     h1  291   0.409   3.690   4.754
   25TCM    cl3  292   0.334   3.701   4.527
   26TCM     c1  293   2.010   0.899   3.260
   26TCM    cl1  294   2.176   0.964   3.246
   26TCM    cl2  295   1.984   0.775   3.133
   26TCM     h1  296   1.996   0.854   3.359
   26TCM    cl3  297   1.893   1.034   3.237
   27TCM     c1  298   1.119   1.743   2.309
   27TCM    cl1  299   1.098   1.921   2.325
   27TCM    cl2  300   0.972   1.673   2.233
   27TCM     h1  301   1.206   1.722   2.247
   27TCM    cl3  302   1.142   1.671   2.472
   28TCM     c1  303   3.108   4.612   4.533
   28TCM    cl1  304   3.117   4.607   4.354
   28TCM    cl2  305   3.017   4.469   4.592
   28TCM     h1  306   3.209   4.611   4.575
   28TCM    cl3  307   3.023   4.761   4.584
   29TCM     c1  308   2.650   2.393   2.054
   29TCM    cl1  309   2.674   2.283   1.915
   29TCM    cl2  310   2.480   2.382   2.110
   29TCM     h1  311   2.718   2.366   2.135
   29TCM    cl3  312   2.685   2.562   2.002
   30TCM     c1  313   2.676   1.997   0.105
   30TCM    cl1  314   2.674   1.951   0.279
   30TCM    cl2  315   2.737   2.165   0.088
   30TCM     h1  316   2.741   1.929   0.050
   30TCM    cl3  317   2.509   1.988   0.040
   31TCM     c1  318   0.070   4.974   1.205
   31TCM    cl1  319   0.094   4.796   1.194
   31TCM    cl2  320   0.186   5.043   1.323
   31TCM     h1  321   0.085   5.019   1.107
   31TCM    cl3  322  -0.098   5.007   1.261
   32TCM     c1  323   2.720   0.773   1.126
   32TCM    cl1  324   2.851   0.739   1.007
   32TCM    cl2  325   2.658   0.618   1.190
   32TCM     h1  326   2.760   0.834   1.207
   32TCM    cl3  327   2.587   0.861   1.044
   33TCM     c1  328   4.010   3.229   1.898
   33TCM    cl1  329   3.992   3.052   1.919
   33TCM    cl2  330   3.988   3.311   2.056
   33TCM     h1  331   4.110   3.251   1.859
   33TCM    cl3  332   3.886   3.289   1.782
   34TCM     c1  333   1.037   0.819   3.505
   34TCM    cl1  334   0.892   0.758   3.417
   34TCM    cl2  335   0.993   0.847   3.676
   34TCM     h1  336   1.118   0.746   3.498
   34TCM    cl3  337   1.089   0.974   3.431
   35TCM     c1  338   2.620   3.655   3.268
   35TCM    cl1  339   2.773   3.736   3.220
   35TCM    cl2  340   2.543   3.746   3.402
   35TCM     h1  341   2.552   3.653   3.182
   35TCM    cl3  342   2.654   3.487   3.321
   36TCM     c1  343   0.339   0.876   2.376
   36TCM    cl1  344   0.415   0.715   2.404
   36TCM    cl2  345   0.452   0.980   2.284
   36TCM     h1  346   0.247   0.862   2.320
   36TCM    cl3  347   0.305   0.955   2.534
   37TCM     c1  348   4.767   1.948   2.081
   37TCM    cl1  349   4.636   2.030   1.990
   37TCM    cl2  350   4.841   1.823   1.976
   37TCM     h1  351   4.843   2.022   2.109
   37TCM    cl3  352   4.700   1.871   2.228
   38TCM     c1  353   1.296   3.431   2.101
   38TCM    cl1  354   1.438   3.459   2.208
   38TCM    cl2  355   1.299   3.549   1.966
   38TCM     h1  356   1.299   3.330   2.061
   38TCM    cl3  357   1.145   3.454   2.194
   39TCM     c1  358   3.759   1.353   2.030
   39TCM    cl1  359   3.656   1.221   1.966
   39TCM    cl2  360   3.656   1.489   2.085
   39TCM     h1  361   3.818   1.316   2.114
   39TCM    cl3  362   3.869   1.411   1.900
   40TCM     c1  363   0.780   2.019   1.975
   40TCM    cl1  364   0.627   2.052   1.886
   40TCM    cl2  365   0.785   2.119   2.125
   40TCM     h1  366   0.784   1.913   2.002
   40TCM    cl3  367   0.920   2.060   1.871
   41TCM     c1  368   2.367   3.732   1.765
   41TCM    cl1  369   2.382   3.909   1.741
   41TCM    cl2  370   2.264   3.664   1.634
   41TCM     h1  371   2.466   3.686   1.761
   41TCM    cl3  372   2.292   3.698   1.924
   42TCM     c1  373   0.887   4.299   1.010
   42TCM    cl1  374   0.993   4.155   1.032
   42TCM    cl2  375   0.972   4.420   0.909
   42TCM     h1  376   0.794   4.269   0.961
   42TCM    cl3  377   0.851   4.369   1.171
   43TCM     c1  378   0.276   1.162   4.732
   43TCM    cl1  379   0.203   1.059   4.605
   43TCM    cl2  380   0.214   1.111   4.893
   43TCM     h1  381   0.385   1.152   4.730
   43TCM    cl3  382   0.232   1.334   4.703
   44TCM     c1  383   1.372   3.587   4.516
   44TCM    cl1  384   1.197   3.611   4.549
   44TCM    cl2  385   1.467   3.704   4.612
   44TCM     h1  386   1.400   3.485   4.544
   44TCM    cl3  387   1.405   3.612   4.341
   45TCM     c1  388   0.391   0.560   4.722
   45TCM    cl1  389   0.561   0.546   4.778
   45TCM    cl2  390   0.363   0.446   4.587
   45TCM     h1  391   0.323   0.536   4.805
   45TCM    cl3  392   0.360   0.728   4.667
   46TCM     c1  393   0.765   4.312   2.056
   46TCM    cl1  394   0.832   4.146   2.076
   46TCM    cl2  395   0.679   4.325   1.899
   46TCM     h1  396   0.695   4.333   2.138
   46TCM    cl3  397   0.900   4.430   2.060
   47TCM     c1  398   3.512   3.804   0.017
   47TCM    cl1  399   3.567   3.789   0.188
   47TCM    cl2  400   3.569   3.960  -0.050
   47TCM     h1  401   3.553   3.721  -0.041
   47TCM    cl3  402   3.333   3.799   0.011
   48TCM     c1  403   1.456   1.610   1.263
   48TCM    cl1  404   1.385   1.547   1.111
   48TCM    cl2  405   1.633   1.580   1.263
   48TCM     h1  406   1.437   1.718   1.271
   48TCM    cl3  407   1.381   1.525   1.402
   49TCM     c1  408   3.228   0.394   2.111
   49TCM    cl1  409   3.365   0.502   2.153
   49TCM    cl2  410   3.282   0.270   1.992
   49TCM     h1  411   3.192   0.344   2.201
   49TCM    cl3  412   3.096   0.491   2.039
   50TCM     c1  413   0.194   0.651   2.010
   50TCM    cl1  414   0.257   0.522   1.903
   50TCM    cl2  415   0.312   0.786   2.018
   50TCM     h1  416   0.098   0.687   1.972
   50TCM    cl3  417   0.170   0.584   2.175
   51TCM     c1  418   3.465   2.382   1.132
   51TCM    cl1  419   3.315   2.310   1.199
   51TCM    cl2  420   3.422   2.504   1.007
   51TCM     h1  421   3.522   2.430   1.213
   51TCM    cl3  422   3.564   2.253   1.058
   52TCM     c1  423   0.113   1.639   3.304
   52TCM    cl1  424   0.033   1.515   3.407
   52TCM    cl2  425   0.049   1.628   3.137
   52TCM     h1  426   0.093   1.738   3.345
   52TCM    cl3  427   0.290   1.610   3.304
   53TCM     c1  428   1.961   3.344   2.156
   53TCM    cl1  429   1.911   3.215   2.043
   53TCM    cl2  430   1.840   3.477   2.153
   53TCM     h1  431   1.968   3.304   2.258
   53TCM    cl3  432   2.121   3.409   2.106
   54TCM     c1  433   0.525   0.071   4.503
   54TCM    cl1  434   0.403   0.079   4.372
   54TCM    cl2  435   0.442   0.085   4.661
   54TCM     h1  436   0.579  -0.024   4.497
   54TCM    cl3  437   0.640   0.208   4.486
   55TCM     c1  438   4.463   0.367   4.348
   55TCM    cl1  439   4.517   0.253   4.476
   55TCM    cl2  440   4.423   0.275   4.199
   55TCM     h1  441   4.374   0.420   4.383
   55TCM    cl3  442   4.593   0.485   4.314
   56TCM     c1  443   3.576   4.684   1.615
   56TCM    cl1  444   3.515   4.560   1.731
   56TCM    cl2  445   3.611   4.607   1.457
   56TCM     h1  446   3.500   4.761   1.602
   56TCM    cl3  447   3.727   4.756   1.680
   57TCM     c1  448   4.541   4.317   4.805
   57TCM    cl1  449   4.637   4.215   4.917
   57TCM    cl2  450   4.416   4.405   4.900
   57TCM     h1  451   4.606   4.389   4.755
   57TCM    cl3  452   4.460   4.213   4.683
   58TCM     c1  453   3.777   4.247   1.627
   58TCM    cl1  454   3.867   4.397   1.590
   58TCM    cl2  455   3.650   4.220   1.503
   58TCM     h1  456   3.847   4.162   1.627
   58TCM    cl3  457   3.701   4.261   1.788
   59TCM     c1  458   3.590   3.903   3.190
   59TCM    cl1  459   3.428   3.928   3.263
   59TCM    cl2  460   3.645   3.735   3.218
   59TCM     h1  461   3.584   3.922   3.082
   59TCM    cl3  462   3.707   4.017   3.265
   60TCM     c1  463   0.233   0.641   3.262
   60TCM    cl1  464   0.102   0.645   3.139
   60TCM    cl2  465   0.384   0.582   3.185
   60TCM     h1  466   0.249   0.741   3.302
   60TCM    cl3  467   0.189   0.528   3.394
   61TCM     c1  468   3.099   2.481   2.703
   61TCM    cl1  469   2.924   2.451   2.678
   61TCM    cl2  470   3.123   2.551   2.867
   61TCM     h1  471   3.154   2.387   2.696
   61TCM    cl3  472   3.157   2.597   2.579
   62TCM     c1  473   3.475   2.243   2.370
   62TCM    cl1  474   3.626   2.326   2.421
   62TCM    cl2  475   3.345   2.274   2.490
   62TCM     h1  476   3.444   2.280   2.272
   62TCM    cl3  477   3.507   2.066   2.360
   63TCM     c1  478   0.032   0.514   2.505
   63TCM    cl1  479   0.074   0.686   2.532
   63TCM    cl2  480  -0.118   0.506   2.407
   63TCM     h1  481   0.113   0.464   2.452
   63TCM    cl3  482   0.005   0.435   2.664
   64TCM     c1  483   0.649   0.110   2.993
   64TCM    cl1  484   0.766   0.243   2.961
   64TCM    cl2  485   0.514   0.126   2.876
   64TCM     h1  486   0.698   0.013   2.981
   64TCM    cl3  487   0.586   0.126   3.160
   65TCM     c1  488   4.881   3.591   1.011
   65TCM    cl1  489   4.852   3.511   1.168
   65TCM    cl2  490   5.010   3.715   1.028
   65TCM     h1  491   4.913   3.516   0.937
   65TCM    cl3  492   4.730   3.669   0.955
   66TCM     c1  493   1.333   3.491   0.773
   66TCM    cl1  494   1.484   3.504   0.678
   66TCM    cl2  495   1.192   3.482   0.662
   66TCM     h1  496   1.336   3.401   0.836
   66TCM    cl3  497   1.315   3.636   0.878
   67TCM     c1  498   2.837   4.172   3.916
   67TCM    cl1  499   2.817   3.995   3.936
   67TCM    cl2  500   2.682   4.253   3.955
   67TCM     h1  501   2.916   4.208   3.983
   67TCM    cl3  502   2.884   4.210   3.746
   68TCM     c1  503   4.681   1.506   0.072
   68TCM    cl1  504   4.663   1.621  -0.065
   68TCM    cl2  505   4.837   1.418   0.055
   68TCM     h1  506   4.680   1.561   0.166
   68TCM    cl3  507   4.546   1.388   0.069
   69TCM     c1  508   2.735   4.612   4.224
   69TCM    cl1  509   2.716   4.635   4.401
   69TCM    cl2  510   2.574   4.593   4.147
   69TCM     h1  511   2.786   4.698   4.181
   69TCM    cl3  512   2.831   4.464   4.195
   70TCM     c1  513   3.731   4.028   2.104
   70TCM    cl1  514   3.697   4.199   2.145
   70TCM    cl2  515   3.882   4.017   2.008
   70TCM     h1  516   3.742   3.970   2.196
   70TCM    cl3  517   3.594   3.961   2.009
   71TCM     c1  518   0.820   0.330   3.353
   71TCM    cl1  519   0.954   0.246   3.269
   71TCM    cl2  520   0.759   0.463   3.248
   71TCM     h1  521   0.739   0.259   3.372
   71TCM    cl3  522   0.879   0.397   3.508
   72TCM     c1  523   0.947   1.311   2.660
   72TCM    cl1  524   0.865   1.466   2.620
   72TCM    cl2  525   0.894   1.255   2.822
   72TCM     h1  526   0.922   1.236   2.585
   72TCM    cl3  527   1.125   1.336   2.661
   73TCM     c1  528   1.107   0.476   2.331
   73TCM    cl1  529   0.962   0.513   2.429
   73TCM    cl2  530   1.056   0.386   2.184
   73TCM     h1  531   1.157   0.569   2.302
   73TCM    cl3  532   1.220   0.374   2.427
   74TCM     c1  533   2.719   1.167   3.603
   74TCM    cl1  534   2.755   1.339   3.642
   74TCM    cl2  535   2.661   1.084   3.751
   74TCM     h1  536   2.642   1.163   3.525
   74TCM    cl3  537   2.868   1.087   3.546
   75TCM     c1  538   4.670   4.767   0.995
   75TCM    cl1  539   4.774   4.901   0.935
   75TCM    cl2  540   4.564   4.828   1.126
   75TCM     h1  541   4.609   4.730   0.913
   75TCM    cl3  542   4.774   4.635   1.058
   76TCM     c1  543   0.613   4.195   0.054
   76TCM    cl1  544   0.555   4.349   0.125
   76TCM    cl2  545   0.529   4.164  -0.101
   76TCM     h1  546   0.720   4.200   0.037
   76TCM    cl3  547   0.575   4.060   0.167
   77TCM     c1  548   2.424   3.323   1.907
   77TCM    cl1  549   2.552   3.424   1.832
   77TCM    cl2  550   2.466   3.291   2.078
   77TCM     h1  551   2.328   3.375   1.902
   77TCM    cl3  552   2.412   3.167   1.819
   78TCM     c1  553   0.508   3.086   0.896
   78TCM    cl1  554   0.487   3.243   0.813
   78TCM    cl2  555   0.574   2.966   0.781
   78TCM     h1  556   0.577   3.098   0.980
   78TCM    cl3  557   0.350   3.029   0.956
   79TCM     c1  558   3.106   3.592   0.892
   79TCM    cl1  559   3.170   3.708   0.771
   79TCM    cl2  560   3.224   3.572   1.025
   79TCM     h1  561   3.011   3.630   0.932
   79TCM    cl3  562   3.078   3.433   0.813
   80TCM     c1  563   3.045   2.967   4.803
   80TCM    cl1  564   3.075   3.144   4.799
   80TCM    cl2  565   2.968   2.923   4.959
   80TCM     h1  566   2.978   2.940   4.720
   80TCM    cl3  567   3.200   2.879   4.785
   81TCM     c1  568   0.995   1.149   1.778
   81TCM    cl1  569   0.998   1.312   1.854
   81TCM    cl2  570   1.005   1.166   1.600
   81TCM     h1  571   1.079   1.090   1.814
   81TCM    cl3  572   0.841   1.067   1.822
   82TCM     c1  573   1.734   2.413   4.816
   82TCM    cl1  574   1.645   2.316   4.694
   82TCM    cl2  575   1.905   2.359   4.821
   82TCM     h1  576   1.729   2.519   4.789
   82TCM    cl3  577   1.659   2.388   4.977
   83TCM     c1  578   2.049   4.027   3.922
   83TCM    cl1  579   1.918   3.959   3.819
   83TCM    cl2  580   1.981   4.078   4.080
   83TCM     h1  581   2.126   3.951   3.938
   83TCM    cl3  582   2.119   4.170   3.840
   84TCM     c1  583   0.706   0.221   4.856
   84TCM    cl1  584   0.766   0.060   4.803
   84TCM    cl2  585   0.845   0.327   4.895
   84TCM     h1  586   0.646   0.266   4.776
   84TCM    cl3  587   0.604   0.199   5.002
   85TCM     c1  588   0.985   0.541   2.952
   85TCM    cl1  589   0.979   0.595   2.781
   85TCM    cl2  590   1.013   0.683   3.058
   85TCM     h1  591   0.890   0.494   2.979
   85TCM    cl3  592   1.119   0.423   2.973
   86TCM     c1  593   4.452   3.052   3.091
   86TCM    cl1  594   4.619   3.117   3.103
   86TCM    cl2  595   4.421   2.941   3.229
   86TCM     h1  596   4.380   3.134   3.094
   86TCM    cl3  597   4.434   2.961   2.938
   87TCM     c1  598   3.123   4.702   0.064
   87TCM    cl1  599   3.286   4.674   0.134
   87TCM    cl2  600   3.002   4.712   0.196
   87TCM     h1  601   3.124   4.796   0.008
   87TCM    cl3  602   3.081   4.567  -0.046
   88TCM     c1  603   1.665   0.017   3.462
   88TCM    cl1  604   1.527   0.046   3.351
   88TCM    cl2  605   1.669   0.146   3.587
   88TCM     h1  606   1.654  -0.080   3.510
   88TCM    cl3  607   1.817   0.020   3.367
   89TCM     c1  608   0.780   0.706   3.929
   89TCM    cl1  609   0.716   0.659   4.089
   89TCM    cl2  610   0.669   0.824   3.852
   89TCM     h1  611   0.879   0.750   3.940
   89TCM    cl3  612   0.791   0.560   3.824
   90TCM     c1  613   2.097   0.242   2.397
   90TCM    cl1  614   2.214   0.243   2.260
   90TCM    cl2  615   1.969   0.364   2.366
   90TCM     h1  616   2.052   0.143   2.405
   90TCM    cl3  617   2.184   0.282   2.548
   91TCM     c1  618   1.083   1.309   2.200
   91TCM    cl1  619   1.122   1.143   2.145
   91TCM    cl2  620   1.214   1.368   2.307
   91TCM     h1  621   1.075   1.375   2.113
   91TCM    cl3  622   0.928   1.310   2.290
   92TCM     c1  623   1.452   1.648   0.157
   92TCM    cl1  624   1.408   1.476   0.185
   92TCM    cl2  625   1.421   1.690  -0.014
   92TCM     h1  626   1.391   1.712   0.222
   92TCM    cl3  627   1.626   1.671   0.195
   93TCM     c1  628   4.299   2.869   2.230
   93TCM    cl1  629   4.291   2.841   2.053
   93TCM    cl2  630   4.250   3.038   2.266
   93TCM     h1  631   4.232   2.800   2.282
   93TCM    cl3  632   4.467   2.844   2.286
   94TCM     c1  633   2.828   4.621   1.336
   94TCM    cl1  634   2.928   4.508   1.239
   94TCM    cl2  635   2.894   4.787   1.319
   94TCM     h1  636   2.725   4.619   1.300
   94TCM    cl3  637   2.833   4.573   1.509
   95TCM     c1  638   4.305   2.630   3.064
   95TCM    cl1  639   4.480   2.614   3.032
   95TCM    cl2  640   4.260   2.532   3.207
   95TCM     h1  641   4.280   2.735   3.083
   95TCM    cl3  642   4.213   2.572   2.921
   96TCM     c1  643   4.317   0.600   3.569
   96TCM    cl1  644   4.227   0.671   3.707
   96TCM    cl2  645   4.236   0.447   3.519
   96TCM     h1  646   4.317   0.670   3.485
   96TCM    cl3  647   4.486   0.564   3.617
   97TCM     c1  648   4.165   0.870   3.132
   97TCM    cl1  649   4.339   0.911   3.118
   97TCM    cl2  650   4.137   0.786   3.288
   97TCM     h1  651   4.106   0.962   3.128
   97TCM    cl3  652   4.116   0.763   2.997
   98TCM     c1  653   1.830   0.309   3.103
   98TCM    cl1  654   1.790   0.369   3.267
   98TCM    cl2  655   1.708   0.187   3.053
   98TCM     h1  656   1.829   0.392   3.032
   98TCM    cl3  657   1.992   0.233   3.105
   99TCM     c1  658   0.398   4.288   3.595
   99TCM    cl1  659   0.318   4.374   3.459
   99TCM    cl2  660   0.284   4.169   3.665
   99TCM     h1  661   0.486   4.236   3.557
   99TCM    cl3  662   0.446   4.406   3.721
  100TCM     c1  663   0.326   1.817   4.845
  100TCM    cl1  664   0.343   1.976   4.763
  100TCM    cl2  665   0.355   1.836   5.021
  100TCM     h1  666   0.225   1.779   4.828
  100TCM    cl3  667   0.446   1.703   4.776
  101TCM     c1  668   0.983   0.030   0.079
  101TCM    cl1  669   1.056   0.047   0.242
  101TCM    cl2  670   0.940  -0.142   0.053
  101TCM     h1  671   0.893   0.091   0.072
  101TCM    cl3  672   1.102   0.082  -0.045
  102TCM     c1  673   0.573   2.015   1.162
  102TCM    cl1  674   0.459   2.058   1.294
  102TCM    cl2  675   0.482   1.937   1.029
  102TCM     h1  676   0.622   2.106   1.125
  102TCM    cl3  677   0.698   1.902   1.225
  103TCM     c1  678   4.509   1.513   2.240
  103TCM    cl1  679   4.557   1.545   2.410
  103TCM    cl2  680   4.655   1.503   2.136
  103TCM     h1  681   4.455   1.418   2.235
  103TCM    cl3  682   4.402   1.645   2.183
  104TCM     c1  683   2.906   1.285   2.432
  104TCM    cl1  684   2.796   1.368   2.316
  104TCM    cl2  685   2.938   1.118   2.374
  104TCM     h1  686   3.000   1.340   2.439
  104TCM    cl3  687   2.827   1.279   2.593
  105TCM     c1  688   3.053   0.350   2.519
  105TCM    cl1  689   3.111   0.501   2.439
  105TCM    cl2  690   3.104   0.350   2.691
  105TCM     h1  691   2.944   0.346   2.514
  105TCM    cl3  692   3.122   0.208   2.435
  106TCM     c1  693   2.374   4.508   0.968
  106TCM    cl1  694   2.224   4.473   1.059
  106TCM    cl2  695   2.333   4.570   0.805
  106TCM     h1  696   2.432   4.584   1.022
  106TCM    cl3  697   2.472   4.358   0.953
  107TCM     c1  698   0.253   3.527   4.169
  107TCM    cl1  699   0.144   3.464   4.297
  107TCM    cl2  700   0.170   3.655   4.075
  107TCM     h1  701   0.344   3.568   4.214
  107TCM    cl3  702   0.297   3.392   4.058
  108TCM     c1  703   2.384   0.051   1.789
  108TCM    cl1  704   2.305   0.168   1.899
  108TCM    cl2  705   2.408   0.128   1.629
  108TCM     h1  706   2.481   0.021   1.830
  108TCM    cl3  707   2.281  -0.094   1.766
  109TCM     c1  708   2.610   4.834   3.280
  109TCM    cl1  709   2.593   4.809   3.457
  109TCM    cl2  710   2.492   4.957   3.226
  109TCM     h1  711   2.712   4.868   3.258
  109TCM    cl3  712   2.579   4.679   3.195
  110TCM     c1  713   3.422   3.390   4.954
  110TCM    cl1  714   3.553   3.427   5.071
  110TCM    cl2  715   3.433   3.218   4.904
  110TCM     h1  716   3.324   3.409   5.001
  110TCM    cl3  717   3.442   3.496   4.811
  111TCM     c1  718   1.718   4.928   4.497
  111TCM    cl1  719   1.810   4.815   4.602
  111TCM    cl2  720   1.598   4.836   4.400
  111TCM     h1  721   1.666   5.002   4.559
  111TCM    cl3  722   1.831   5.012   4.386
  112TCM     c1  723   3.363   3.761   1.808
  112TCM    cl1  724   3.252   3.839   1.925
  112TCM    cl2  725   3.377   3.864   1.662
  112TCM     h1  726   3.462   3.748   1.854
  112TCM    cl3  727   3.298   3.600   1.762
  113TCM     c1  728   0.078   2.628   2.071
  113TCM    cl1  729   0.023   2.518   2.202
  113TCM    cl2  730   0.184   2.539   1.958
  113TCM     h1  731  -0.009   2.666   2.017
  113TCM    cl3  732   0.168   2.764   2.144
  114TCM     c1  733   1.597   0.873   3.377
  114TCM    cl1  734   1.690   0.721   3.354
  114TCM    cl2  735   1.663   0.960   3.519
  114TCM     h1  736   1.606   0.935   3.288
  114TCM    cl3  737   1.425   0.834   3.406
  115TCM     c1  738   1.516   4.657   3.571
  115TCM    cl1  739   1.653   4.641   3.457
  115TCM    cl2  740   1.380   4.742   3.490
  115TCM     h1  741   1.483   4.558   3.604
  115TCM    cl3  742   1.569   4.753   3.714
  116TCM     c1  743   1.436   2.975   3.726
  116TCM    cl1  744   1.336   3.010   3.581
  116TCM    cl2  745   1.360   2.843   3.821
  116TCM     h1  746   1.536   2.944   3.695
  116TCM    cl3  747   1.448   3.123   3.827
  117TCM     c1  748   4.740   2.258   2.401
  117TCM    cl1  749   4.663   2.330   2.256
  117TCM    cl2  750   4.892   2.177   2.353
  117TCM     h1  751   4.761   2.337   2.474
  117TCM    cl3  752   4.628   2.138   2.474
  118TCM     c1  753   2.469   1.417   1.978
  118TCM    cl1  754   2.451   1.583   2.044
  118TCM    cl2  755   2.524   1.428   1.808
  118TCM     h1  756   2.541   1.361   2.037
  118TCM    cl3  757   2.309   1.335   1.982
  119TCM     c1  758   1.178   0.047   3.586
  119TCM    cl1  759   1.227   0.195   3.498
  119TCM    cl2  760   1.014   0.070   3.655
  119TCM     h1  761   1.178  -0.039   3.518
  119TCM    cl3  762   1.295   0.017   3.719
  120TCM     c1  763   4.327   3.620   2.575
  120TCM    cl1  764   4.230   3.568   2.718
  120TCM    cl2  765   4.447   3.742   2.627
  120TCM     h1  766   4.378   3.533   2.532
  120TCM    cl3  767   4.217   3.692   2.453
  121TCM     c1  768   4.528   1.030   3.647
  121TCM    cl1  769   4.407   0.945   3.545
  121TCM    cl2  770   4.629   1.137   3.545
  121TCM     h1  771   4.476   1.089   3.723
  121TCM    cl3  772   4.633   0.909   3.729
  122TCM     c1  773   3.821   1.865   2.396
  122TCM    cl1  774   3.751   1.824   2.236
  122TCM    cl2  775   4.000   1.848   2.390
  122TCM     h1  776   3.795   1.968   2.422
  122TCM    cl3  777   3.754   1.753   2.519
  123TCM     c1  778   4.791   3.982   3.356
  123TCM    cl1  779   4.873   3.941   3.510
  123TCM    cl2  780   4.691   4.129   3.377
  123TCM     h1  781   4.866   4.000   3.278
  123TCM    cl3  782   4.685   3.846   3.307
  124TCM     c1  783   0.434   1.810   0.386
  124TCM    cl1  784   0.312   1.681   0.359
  124TCM    cl2  785   0.506   1.791   0.549
  124TCM     h1  786   0.512   1.802   0.310
  124TCM    cl3  787   0.355   1.970   0.375
  125TCM     c1  788   3.460   1.632   3.523
  125TCM    cl1  789   3.421   1.603   3.696
  125TCM    cl2  790   3.317   1.593   3.421
  125TCM     h1  791   3.487   1.737   3.508
  125TCM    cl3  792   3.597   1.527   3.474
  126TCM     c1  793   1.358   2.061   2.695
  126TCM    cl1  794   1.255   1.914   2.707
  126TCM    cl2  795   1.448   2.083   2.848
  126TCM     h1  796   1.428   2.050   2.612
  126TCM    cl3  797   1.253   2.204   2.666
  127TCM     c1  798   0.367   2.778   0.071
  127TCM    cl1  799   0.428   2.620   0.131
  127TCM    cl2  800   0.316   2.762  -0.100
  127TCM     h1  801   0.283   2.811   0.132
  127TCM    cl3  802   0.500   2.898   0.080
  128TCM     c1  803   0.702   4.667   4.827
  128TCM    cl1  804   0.611   4.750   4.696
  128TCM    cl2  805   0.697   4.490   4.801
  128TCM     h1  806   0.806   4.701   4.825
  128TCM    cl3  807   0.628   4.707   4.985
  129TCM     c1  808   4.671   4.628   0.027
  129TCM    cl1  809   4.712   4.643  -0.148
  129TCM    cl2  810   4.703   4.784   0.110
  129TCM     h1  811   4.566   4.602   0.037
  129TCM    cl3  812   4.771   4.499   0.100
  130TCM     c1  813   0.677   1.392   0.431
  130TCM    cl1  814   0.503   1.370   0.394
  130TCM    cl2  815   0.755   1.230   0.443
  130TCM     h1  816   0.725   1.449   0.352
  130TCM    cl3  817   0.693   1.479   0.587
  131TCM     c1  818   2.159   0.084   3.479
  131TCM    cl1  819   2.063   0.150   3.615
  131TCM    cl2  820   2.281  -0.032   3.543
  131TCM     h1  821   2.093   0.033   3.409
  131TCM    cl3  822   2.244   0.218   3.394
  132TCM     c1  823   0.312   1.201   3.244
  132TCM    cl1  824   0.466   1.293   3.236
  132TCM    cl2  825   0.188   1.282   3.144
  132TCM     h1  826   0.329   1.100   3.206
  132TCM    cl3  827   0.257   1.192   3.415
  133TCM     c1  828   0.205   4.365   4.858
  133TCM    cl1  829   0.337   4.486   4.863
  133TCM    cl2  830   0.232   4.255   4.718
  133TCM     h1  831   0.205   4.307   4.950
  133TCM    cl3  832   0.048   4.449   4.839
  134TCM     c1  833   4.215   1.208   2.029
  134TCM    cl1  834   4.360   1.159   2.122
  134TCM    cl2  835   4.218   1.386   2.008
  134TCM     h1  836   4.216   1.160   1.931
  134TCM    cl3  837   4.067   1.161   2.118
  135TCM     c1  838   1.282   0.704   1.939
  135TCM    cl1  839   1.197   0.556   1.884
  135TCM    cl2  840   1.314   0.692   2.116
  135TCM     h1  841   1.377   0.714   1.886
  135TCM    cl3  842   1.179   0.847   1.905
  136TCM     c1  843   4.738   4.861   3.223
  136TCM    cl1  844   4.879   4.904   3.325
  136TCM    cl2  845   4.587   4.869   3.320
  136TCM     h1  846   4.731   4.931   3.139
  136TCM    cl3  847   4.759   4.694   3.159
  137TCM     c1  848   1.952   1.528   3.281
  137TCM    cl1  849   1.928   1.423   3.137
  137TCM    cl2  850   1.924   1.699   3.235
  137TCM     h1  851   1.881   1.499   3.359
  137TCM    cl3  852   2.120   1.509   3.340
  138TCM     c1  853   2.559   3.609   3.733
  138TCM    cl1  854   2.387   3.557   3.731
  138TCM    cl2  855   2.663   3.471   3.683
  138TCM     h1  856   2.573   3.692   3.664
  138TCM    cl3  857   2.605   3.662   3.898
  139TCM     c1  858   0.596   1.209   3.590
  139TCM    cl1  859   0.657   1.370   3.643
  139TCM    cl2  860   0.484   1.145   3.715
  139TCM     h1  861   0.542   1.220   3.496
  139TCM    cl3  862   0.733   1.096   3.569
  140TCM     c1  863   0.792   4.613   1.686
  140TCM    cl1  864   0.786   4.478   1.568
  140TCM    cl2  865   0.655   4.725   1.657
  140TCM     h1  866   0.786   4.573   1.788
  140TCM    cl3  867   0.946   4.702   1.666
  141TCM     c1  868   3.583   4.165   2.571
  141TCM    cl1  869   3.593   4.031   2.452
  141TCM    cl2  870   3.439   4.141   2.675
  141TCM     h1  871   3.674   4.165   2.633
  141TCM    cl3  872   3.569   4.321   2.484
  142TCM     c1  873   0.328   2.494   3.313
  142TCM    cl1  874   0.469   2.498   3.201
  142TCM    cl2  875   0.295   2.325   3.360
  142TCM     h1  876   0.350   2.554   3.401
  142TCM    cl3  877   0.185   2.561   3.228
  143TCM     c1  878   1.580   3.811   1.720
  143TCM    cl1  879   1.718   3.785   1.609
  143TCM    cl2  880   1.621   3.749   1.883
  143TCM     h1  881   1.557   3.918   1.726
  143TCM    cl3  882   1.437   3.722   1.658
  144TCM     c1  883   1.469   1.461   2.574
  144TCM    cl1  884   1.571   1.453   2.427
  144TCM    cl2  885   1.492   1.621   2.652
  144TCM     h1  886   1.364   1.449   2.547
  144TCM    cl3  887   1.518   1.332   2.688
  145TCM     c1  888   3.656   0.052   3.771
  145TCM    cl1  889   3.570  -0.094   3.831
  145TCM    cl2  890   3.732   0.015   3.612
  145TCM     h1  891   3.586   0.134   3.760
  145TCM    cl3  892   3.785   0.098   3.888
  146TCM     c1  893   4.907   4.488   4.444
  146TCM    cl1  894   5.080   4.452   4.470
  146TCM    cl2  895   4.879   4.665   4.459
  146TCM     h1  896   4.878   4.455   4.343
  146TCM    cl3  897   4.808   4.401   4.566
  147TCM     c1  898   0.865   1.794   0.716
  147TCM    cl1  899   0.809   1.952   0.651
  147TCM    cl2  900   0.774   1.757   0.866
  147TCM     h1  901   0.847   1.716   0.642
  147TCM    cl3  902   1.040   1.804   0.753
  148TCM     c1  903   2.577   2.642   0.268
  148TCM    cl1  904   2.660   2.782   0.191
  148TCM    cl2  905   2.552   2.513   0.146
  148TCM     h1  906   2.638   2.604   0.349
  148TCM    cl3  907   2.418   2.695   0.332
  149TCM     c1  908   3.584   1.251   3.184
  149TCM    cl1  909   3.420   1.322   3.190
  149TCM    cl2  910   3.592   1.132   3.049
  149TCM     h1  911   3.658   1.330   3.168
  149TCM    cl3  912   3.618   1.167   3.339
  150TCM     c1  913   3.203   0.108   1.664
  150TCM    cl1  914   3.072   0.033   1.566
  150TCM    cl2  915   3.237   0.273   1.602
  150TCM     h1  916   3.172   0.114   1.768
  150TCM    cl3  917   3.351   0.008   1.651
  151TCM     c1  918   3.707   2.246   1.457
  151TCM    cl1  919   3.539   2.290   1.500
  151TCM    cl2  920   3.780   2.379   1.361
  151TCM     h1  921   3.766   2.229   1.548
  151TCM    cl3  922   3.705   2.097   1.357
  152TCM     c1  923   2.835   4.115   2.590
  152TCM    cl1  924   2.802   4.225   2.728
  152TCM    cl2  925   2.771   3.952   2.628
  152TCM     h1  926   2.786   4.154   2.500
  152TCM    cl3  927   3.012   4.105   2.563
  153TCM     c1  928   4.354   1.013   2.704
  153TCM    cl1  929   4.306   0.842   2.681
  153TCM    cl2  930   4.513   1.019   2.787
  153TCM     h1  931   4.362   1.062   2.606
  153TCM    cl3  932   4.231   1.097   2.804
  154TCM     c1  933   0.890   1.981   4.874
  154TCM    cl1  934   0.942   2.095   5.003
  154TCM    cl2  935   0.772   1.864   4.942
  154TCM     h1  936   0.843   2.037   4.792
  154TCM    cl3  937   1.033   1.892   4.812
  155TCM     c1  938   2.176   4.716   4.444
  155TCM    cl1  939   2.171   4.886   4.501
  155TCM    cl2  940   2.107   4.606   4.569
  155TCM     h1  941   2.119   4.706   4.352
  155TCM    cl3  942   2.347   4.670   4.415
  156TCM     c1  943   2.449   0.092   4.755
  156TCM    cl1  944   2.498   0.238   4.663
  156TCM    cl2  945   2.330   0.139   4.880
  156TCM     h1  946   2.405   0.019   4.686
  156TCM    cl3  947   2.593   0.021   4.835
  157TCM     c1  948   2.002   1.086   2.890
  157TCM    cl1  949   1.839   1.160   2.880
  157TCM    cl2  950   2.125   1.215   2.914
  157TCM     h1  951   2.005   1.016   2.974
  157TCM    cl3  952   2.037   0.997   2.738
  158TCM     c1  953   1.821   2.020   0.226
  158TCM    cl1  954   1.780   2.102   0.380
  158TCM    cl2  955   1.940   1.890   0.257
  158TCM     h1  956   1.730   1.978   0.182
  158TCM    cl3  957   1.893   2.140   0.114
  159TCM     c1  958   2.140   1.757   1.894
  159TCM    cl1  959   2.049   1.654   2.010
  159TCM    cl2  960   2.025   1.862   1.805
  159TCM     h1  961   2.212   1.818   1.949
  159TCM    cl3  962   2.227   1.654   1.775
  160TCM     c1  963   2.542   2.646   0.709
  160TCM    cl1  964   2.677   2.702   0.606
  160TCM    cl2  965   2.493   2.481   0.656
  160TCM     h1  966   2.575   2.642   0.813
  160TCM    cl3  967   2.404   2.759   0.694
  161TCM     c1  968   2.879   1.718   2.059
  161TCM    cl1  969   2.827   1.560   1.993
  161TCM    cl2  970   3.011   1.692   2.178
  161TCM     h1  971   2.915   1.782   1.978
  161TCM    cl3  972   2.742   1.798   2.143
  162TCM     c1  973   4.494   4.570   2.902
  162TCM    cl1  974   4.395   4.627   3.041
  162TCM    cl2  975   4.388   4.542   2.760
  162TCM     h1  976   4.569   4.646   2.878
  162TCM    cl3  977   4.575   4.417   2.948
  163TCM     c1  978   2.973   0.261   4.616
  163TCM    cl1  979   2.919   0.108   4.692
  163TCM    cl2  980   2.935   0.258   4.441
  163TCM     h1  981   2.921   0.345   4.663
  163TCM    cl3  982   3.150   0.278   4.639
  164TCM     c1  983   3.789   3.880   3.780
  164TCM    cl1  984   3.951   3.954   3.800
  164TCM    cl2  985   3.734   3.903   3.611
  164TCM     h1  986   3.795   3.773   3.803
  164TCM    cl3  987   3.672   3.960   3.891
  165TCM     c1  988   1.928   1.383   2.546
  165TCM    cl1  989   2.101   1.347   2.574
  165TCM    cl2  990   1.861   1.468   2.689
  165TCM     h1  991   1.916   1.445   2.458
  165TCM    cl3  992   1.840   1.228   2.522
  166TCM     c1  993   2.617   0.346   0.047
  166TCM    cl1  994   2.485   0.455  -0.009
  166TCM    cl2  995   2.684   0.408   0.201
  166TCM     h1  996   2.578   0.246   0.062
  166TCM    cl3  997   2.747   0.342  -0.077
  167TCM     c1  998   2.251   2.751   1.909
  167TCM    cl1  999   2.393   2.685   1.822
  167TCM    cl2 1000   2.305   2.859   2.041
  167TCM     h1 1001   2.189   2.807   1.839
  167TCM    cl3 1002   2.155   2.615   1.978
  168TCM     c1 1003   0.930   4.770   1.296
  168TCM    cl1 1004   0.921   4.946   1.329
  168TCM    cl2 1005   1.025   4.743   1.146
  168TCM     h1 1006   0.979   4.719   1.380
  168TCM    cl3 1007   0.765   4.706   1.274
  169TCM     c1 1008   4.031   2.276   4.801
  169TCM    cl1 1009   4.068   2.449   4.835
  169TCM    cl2 1010   4.102   2.230   4.643
  169TCM     h1 1011   4.072   2.214   4.880
  169TCM    cl3 1012   3.853   2.253   4.793
  170TCM     c1 1013   1.663   4.827   0.065
  170TCM    cl1 1014   1.619   4.718   0.201
  170TCM    cl2 1015   1.624   4.748  -0.091
  170TCM     h1 1016   1.608   4.921   0.074
  170TCM    cl3 1017   1.839   4.861   0.073
  171TCM     c1 1018   3.230   3.562   0.447
  171TCM    cl1 1019   3.313   3.428   0.532
  171TCM    cl2 1020   3.053   3.538   0.454
  171TCM     h1 1021   3.257   3.657   0.494
  171TCM    cl3 1022   3.282   3.564   0.275
  172TCM     c1 1023   4.844   0.843   0.364
  172TCM    cl1 1024   4.780   0.696   0.284
  172TCM    cl2 1025   4.966   0.796   0.487
  172TCM     h1 1026   4.890   0.908   0.290
  172TCM    cl3 1027   4.708   0.929   0.445
  173TCM     c1 1028   3.979   1.817   1.928
  173TCM    cl1 1029   4.047   1.708   2.053
  173TCM    cl2 1030   3.978   1.986   1.991
  173TCM     h1 1031   4.041   1.813   1.838
  173TCM    cl3 1032   3.811   1.767   1.888
  174TCM     c1 1033   3.720   1.433   0.006
  174TCM    cl1 1034   3.819   1.459  -0.141
  174TCM    cl2 1035   3.662   1.592   0.067
  174TCM     h1 1036   3.635   1.369  -0.017
  174TCM    cl3 1037   3.822   1.354   0.132
  175TCM     c1 1038   4.153   3.063   4.715
  175TCM    cl1 1039   4.110   2.934   4.831
  175TCM    cl2 1040   4.117   3.223   4.788
  175TCM     h1 1041   4.260   3.057   4.692
  175TCM    cl3 1042   4.058   3.043   4.565
  176TCM     c1 1043   1.208   0.392   3.807
  176TCM    cl1 1044   1.173   0.527   3.695
  176TCM    cl2 1045   1.149   0.434   3.971
  176TCM     h1 1046   1.158   0.301   3.772
  176TCM    cl3 1047   1.386   0.364   3.813
  177TCM     c1 1048   3.046   0.239   1.101
  177TCM    cl1 1049   3.021   0.063   1.082
  177TCM    cl2 1050   3.113   0.271   1.264
  177TCM     h1 1051   3.116   0.275   1.025
  177TCM    cl3 1052   2.889   0.324   1.083
  178TCM     c1 1053   1.288   4.990   4.163
  178TCM    cl1 1054   1.320   5.095   4.305
  178TCM    cl2 1055   1.153   5.059   4.067
  178TCM     h1 1056   1.378   4.984   4.101
  178TCM    cl3 1057   1.244   4.826   4.221
  179TCM     c1 1058   2.080   0.884   3.980
  179TCM    cl1 1059   2.082   1.012   4.105
  179TCM    cl2 1060   2.083   0.723   4.060
  179TCM     h1 1061   1.989   0.893   3.919
  179TCM    cl3 1062   2.225   0.901   3.875
  180TCM     c1 1063   3.319   0.581   0.164
  180TCM    cl1 1064   3.275   0.751   0.126
  180TCM    cl2 1065   3.291   0.549   0.338
  180TCM     h1 1066   3.258   0.513   0.104
  180TCM    cl3 1067   3.493   0.555   0.127
  181TCM     c1 1068   1.801   1.878   2.463
  181TCM    cl1 1069   1.823   1.884   2.641
  181TCM    cl2 1070   1.626   1.888   2.425
  181TCM     h1 1071   1.853   1.961   2.416
  181TCM    cl3 1072   1.867   1.723   2.401
  182TCM     c1 1073   4.820   3.956   4.748
  182TCM    cl1 1074   4.951   4.055   4.821
  182TCM    cl2 1075   4.882   3.791   4.714
  182TCM     h1 1076   4.735   3.950   4.817
  182TCM    cl3 1077   4.768   4.032   4.594
  183TCM     c1 1078   0.672   0.906   2.617
  183TCM    cl1 1079   0.679   1.072   2.549
  183TCM    cl2 1080   0.768   0.901   2.769
  183TCM     h1 1081   0.569   0.878   2.638
  183TCM    cl3 1082   0.743   0.790   2.500
  184TCM     c1 1083   4.808   0.730   3.462
  184TCM    cl1 1084   4.824   0.560   3.405
  184TCM    cl2 1085   4.687   0.815   3.361
  184TCM     h1 1086   4.776   0.730   3.566
  184TCM    cl3 1087   4.966   0.815   3.448
  185TCM     c1 1088   0.115   4.587   0.279
  185TCM    cl1 1089   0.075   4.706   0.150
  185TCM    cl2 1090   0.145   4.426   0.205
  185TCM     h1 1091   0.204   4.620   0.333
  185TCM    cl3 1092  -0.023   4.574   0.394
  186TCM     c1 1093   0.720   3.267   0.161
  186TCM    cl1 1094   0.735   3.439   0.113
  186TCM    cl2 1095   0.743   3.164   0.016
  186TCM     h1 1096   0.796   3.243   0.236
  186TCM    cl3 1097   0.557   3.238   0.230
  187TCM     c1 1098   1.256   2.501   4.807
  187TCM    cl1 1099   1.299   2.348   4.891
  187TCM    cl2 1100   1.160   2.463   4.660
  187TCM     h1 1101   1.197   2.564   4.874
  187TCM    cl3 1102   1.407   2.587   4.760
  188TCM     c1 1103   1.694   4.240   4.830
  188TCM    cl1 1104   1.754   4.134   4.961
  188TCM    cl2 1105   1.569   4.352   4.894
  188TCM     h1 1106   1.777   4.299   4.789
  188TCM    cl3 1107   1.622   4.139   4.700
  189TCM     c1 1108   0.763   3.372   0.584
  189TCM    cl1 1109   0.841   3.386   0.745
  189TCM    cl2 1110   0.737   3.199   0.545
  189TCM     h1 1111   0.667   3.424   0.585
  189TCM    cl3 1112   0.871   3.443   0.458
  190TCM     c1 1113   4.105   1.504   2.404
  190TCM    cl1 1114   4.061   1.533   2.575
  190TCM    cl2 1115   3.957   1.464   2.310
  190TCM     h1 1116   4.152   1.594   2.362
  190TCM    cl3 1117   4.220   1.367   2.396
  191TCM     c1 1118   2.041   0.489   4.373
  191TCM    cl1 1119   1.978   0.649   4.426
  191TCM    cl2 1120   1.983   0.363   4.487
  191TCM     h1 1121   2.005   0.467   4.272
  191TCM    cl3 1122   2.220   0.493   4.373
  192TCM     c1 1123   0.305   0.092   2.590
  192TCM    cl1 1124   0.283  -0.011   2.444
  192TCM    cl2 1125   0.170   0.064   2.704
  192TCM     h1 1126   0.400   0.066   2.638
  192TCM    cl3 1127   0.308   0.266   2.544
  193TCM     c1 1128   1.734   4.465   4.369
  193TCM    cl1 1129   1.774   4.303   4.305
  193TCM    cl2 1130   1.851   4.585   4.303
  193TCM     h1 1131   1.633   4.493   4.339
  193TCM    cl3 1132   1.745   4.463   4.548
  194TCM     c1 1133   4.098   4.581   1.321
  194TCM    cl1 1134   4.208   4.656   1.201
  194TCM    cl2 1135   4.184   4.567   1.478
  194TCM     h1 1136   4.009   4.643   1.333
  194TCM    cl3 1137   4.051   4.418   1.262
  195TCM     c1 1138   0.987   2.382   0.354
  195TCM    cl1 1139   0.914   2.250   0.451
  195TCM    cl2 1140   1.112   2.312   0.246
  195TCM     h1 1141   0.909   2.430   0.294
  195TCM    cl3 1142   1.063   2.501   0.464
  196TCM     c1 1143   1.238   0.962   4.009
  196TCM    cl1 1144   1.222   1.041   4.170
  196TCM    cl2 1145   1.182   1.076   3.883
  196TCM     h1 1146   1.343   0.936   3.991
  196TCM    cl3 1147   1.137   0.814   4.006
  197TCM     c1 1148   1.792   1.421   0.593
  197TCM    cl1 1149   1.710   1.439   0.752
  197TCM    cl2 1150   1.669   1.390   0.466
  197TCM     h1 1151   1.847   1.512   0.569
  197TCM    cl3 1152   1.905   1.282   0.601
  198TCM     c1 1153   1.194   4.348   1.295
  198TCM    cl1 1154   1.252   4.433   1.148
  198TCM    cl2 1155   1.127   4.468   1.410
  198TCM     h1 1156   1.116   4.277   1.267
  198TCM    cl3 1157   1.331   4.260   1.371
  199TCM     c1 1158   0.070   2.635   2.540
  199TCM    cl1 1159  -0.016   2.479   2.563
  199TCM    cl2 1160   0.247   2.609   2.551
  199TCM     h1 1161   0.046   2.676   2.442
  199TCM    cl3 1162   0.018   2.750   2.668
  200TCM     c1 1163   0.579   2.180   0.176
  200TCM    cl1 1164   0.676   2.051   0.253
  200TCM    cl2 1165   0.551   2.138   0.004
  200TCM     h1 1166   0.483   2.192   0.227
  200TCM    cl3 1167   0.671   2.334   0.182
  201TCM     c1 1168   3.715   4.603   3.247
  201TCM    cl1 1169   3.566   4.589   3.147
  201TCM    cl2 1170   3.757   4.777   3.267
  201TCM     h1 1171   3.697   4.558   3.345
  201TCM    cl3 1172   3.849   4.518   3.165
  202TCM     c1 1173   2.098   0.786   2.400
  202TCM    cl1 1174   2.122   0.714   2.238
  202TCM    cl2 1175   2.118   0.660   2.526
  202TCM     h1 1176   2.173   0.865   2.416
  202TCM    cl3 1177   1.933   0.857   2.411
  203TCM     c1 1178   0.577   4.546   4.366
  203TCM    cl1 1179   0.742   4.531   4.434
  203TCM    cl2 1180   0.541   4.719   4.336
  203TCM     h1 1181   0.572   4.491   4.272
  203TCM    cl3 1182   0.458   4.479   4.481
  204TCM     c1 1183   2.070   4.705   3.700
  204TCM    cl1 1184   2.070   4.825   3.833
  204TCM    cl2 1185   1.972   4.768   3.564
  204TCM     h1 1186   2.173   4.688   3.666
  204TCM    cl3 1187   2.000   4.551   3.759
  205TCM     c1 1188   1.056   0.087   1.015
  205TCM    cl1 1189   1.204   0.097   1.117
  205TCM    cl2 1190   1.102   0.059   0.844
  205TCM     h1 1191   0.993   0.005   1.050
  205TCM    cl3 1192   0.965   0.242   1.027
  206TCM     c1 1193   2.450   3.081   0.937
  206TCM    cl1 1194   2.610   3.036   0.870
  206TCM    cl2 1195   2.397   2.958   1.056
  206TCM     h1 1196   2.457   3.179   0.985
  206TCM    cl3 1197   2.330   3.089   0.804
  207TCM     c1 1198   0.914   3.741   0.647
  207TCM    cl1 1199   0.736   3.731   0.658
  207TCM    cl2 1200   0.979   3.832   0.788
  207TCM     h1 1201   0.957   3.641   0.647
  207TCM    cl3 1202   0.959   3.826   0.496
  208TCM     c1 1203   3.619   2.064   1.970
  208TCM    cl1 1204   3.651   2.090   1.795
  208TCM    cl2 1205   3.448   2.015   1.993
  208TCM     h1 1206   3.685   1.986   2.008
  208TCM    cl3 1207   3.651   2.217   2.058
  209TCM     c1 1208   2.552   2.456   1.151
  209TCM    cl1 1209   2.531   2.625   1.095
  209TCM    cl2 1210   2.724   2.428   1.192
  209TCM     h1 1211   2.490   2.439   1.239
  209TCM    cl3 1212   2.502   2.345   1.019
  210TCM     c1 1213   2.639   3.323   4.103
  210TCM    cl1 1214   2.492   3.320   4.000
  210TCM    cl2 1215   2.630   3.462   4.216
  210TCM     h1 1216   2.645   3.230   4.160
  210TCM    cl3 1217   2.785   3.339   4.000
  211TCM     c1 1218   1.140   2.616   4.229
  211TCM    cl1 1219   1.180   2.710   4.377
  211TCM    cl2 1220   1.104   2.446   4.274
  211TCM     h1 1221   1.053   2.660   4.180
  211TCM    cl3 1222   1.281   2.620   4.118
  212TCM     c1 1223   1.460   2.753   3.338
  212TCM    cl1 1224   1.587   2.766   3.464
  212TCM    cl2 1225   1.335   2.636   3.391
  212TCM     h1 1226   1.413   2.851   3.322
  212TCM    cl3 1227   1.534   2.697   3.185
  213TCM     c1 1228   3.843   4.674   3.711
  213TCM    cl1 1229   3.787   4.539   3.815
  213TCM    cl2 1230   3.906   4.608   3.556
  213TCM     h1 1231   3.759   4.741   3.690
  213TCM    cl3 1232   3.972   4.765   3.795
  214TCM     c1 1233   0.325   3.106   0.482
  214TCM    cl1 1234   0.271   3.033   0.327
  214TCM    cl2 1235   0.241   3.025   0.618
  214TCM     h1 1236   0.433   3.093   0.493
  214TCM    cl3 1237   0.285   3.281   0.484
  215TCM     c1 1238   1.368   2.085   0.262
  215TCM    cl1 1239   1.468   1.954   0.333
  215TCM    cl2 1240   1.291   2.024   0.112
  215TCM     h1 1241   1.292   2.115   0.334
  215TCM    cl3 1242   1.474   2.224   0.222
  216TCM     c1 1243   0.383   1.697   2.841
  216TCM    cl1 1244   0.414   1.645   2.672
  216TCM    cl2 1245   0.356   1.552   2.943
  216TCM     h1 1246   0.470   1.752   2.879
  216TCM    cl3 1247   0.238   1.803   2.847
  217TCM     c1 1248   3.599   0.265   4.814
  217TCM    cl1 1249   3.515   0.214   4.664
  217TCM    cl2 1250   3.640   0.439   4.806
  217TCM     h1 1251   3.534   0.247   4.900
  217TCM    cl3 1252   3.750   0.169   4.833
  218TCM     c1 1253   1.637   2.464   1.863
  218TCM    cl1 1254   1.540   2.610   1.903
  218TCM    cl2 1255   1.538   2.317   1.893
  218TCM     h1 1256   1.668   2.467   1.758
  218TCM    cl3 1257   1.781   2.459   1.970
  219TCM     c1 1258   4.147   0.359   3.953
  219TCM    cl1 1259   4.163   0.498   4.066
  219TCM    cl2 1260   4.302   0.336   3.865
  219TCM     h1 1261   4.122   0.269   4.009
  219TCM    cl3 1262   4.016   0.395   3.835
  220TCM     c1 1263   0.348   3.583   1.205
  220TCM    cl1 1264   0.345   3.529   1.034
  220TCM    cl2 1265   0.201   3.525   1.290
  220TCM     h1 1266   0.437   3.543   1.254
  220TCM    cl3 1267   0.353   3.763   1.210
  221TCM     c1 1268   0.183   1.427   0.620
  221TCM    cl1 1269   0.321   1.512   0.698
  221TCM    cl2 1270   0.036   1.452   0.719
  221TCM     h1 1271   0.168   1.467   0.520
  221TCM    cl3 1272   0.219   1.251   0.609
  222TCM     c1 1273   3.553   2.388   2.773
  222TCM    cl1 1274   3.418   2.327   2.875
  222TCM    cl2 1275   3.699   2.416   2.874
  222TCM     h1 1276   3.576   2.315   2.695
  222TCM    cl3 1277   3.504   2.543   2.696
  223TCM     c1 1278   0.251   4.662   2.981
  223TCM    cl1 1279   0.360   4.788   2.912
  223TCM    cl2 1280   0.113   4.741   3.063
  223TCM     h1 1281   0.214   4.599   2.900
  223TCM    cl3 1282   0.343   4.562   3.098
  224TCM     c1 1283   0.259   4.707   2.217
  224TCM    cl1 1284   0.280   4.667   2.043
  224TCM    cl2 1285   0.402   4.652   2.310
  224TCM     h1 1286   0.247   4.815   2.228
  224TCM    cl3 1287   0.112   4.624   2.279
  225TCM     c1 1288   0.416   2.335   2.248
  225TCM    cl1 1289   0.266   2.291   2.337
  225TCM    cl2 1290   0.431   2.514   2.242
  225TCM     h1 1291   0.502   2.293   2.300
  225TCM    cl3 1292   0.407   2.270   2.082
  226TCM     c1 1293   0.189   4.066   2.933
  226TCM    cl1 1294   0.124   4.006   2.777
  226TCM    cl2 1295   0.254   4.232   2.910
  226TCM     h1 1296   0.109   4.068   3.007
  226TCM    cl3 1297   0.320   3.957   2.990
  227TCM     c1 1298   2.328   0.522   3.850
  227TCM    cl1 1299   2.296   0.421   3.995
  227TCM    cl2 1300   2.299   0.425   3.701
  227TCM     h1 1301   2.263   0.609   3.850
  227TCM    cl3 1302   2.500   0.574   3.851
  228TCM     c1 1303   1.742   2.093   2.092
  228TCM    cl1 1304   1.870   1.969   2.115
  228TCM    cl2 1305   1.742   2.203   2.234
  228TCM     h1 1306   1.762   2.150   2.001
  228TCM    cl3 1307   1.583   2.013   2.079
  229TCM     c1 1308   1.117   3.048   2.215
  229TCM    cl1 1309   1.171   3.074   2.046
  229TCM    cl2 1310   0.955   3.121   2.237
  229TCM     h1 1311   1.111   2.941   2.236
  229TCM    cl3 1312   1.233   3.126   2.327
  230TCM     c1 1313   4.510   3.646   2.989
  230TCM    cl1 1314   4.625   3.542   3.078
  230TCM    cl2 1315   4.581   3.809   2.966
  230TCM     h1 1316   4.488   3.602   2.891
  230TCM    cl3 1317   4.358   3.661   3.083
  231TCM     c1 1318   4.185   0.732   4.548
  231TCM    cl1 1319   4.157   0.738   4.371
  231TCM    cl2 1320   4.314   0.613   4.582
  231TCM     h1 1321   4.216   0.831   4.584
  231TCM    cl3 1322   4.033   0.683   4.630
  232TCM     c1 1323   0.205   3.126   4.508
  232TCM    cl1 1324   0.170   2.995   4.626
  232TCM    cl2 1325   0.331   3.069   4.394
  232TCM     h1 1326   0.114   3.151   4.453
  232TCM    cl3 1327   0.264   3.271   4.596
  233TCM     c1 1328   0.969   1.833   0.266
  233TCM    cl1 1329   1.079   1.737   0.163
  233TCM    cl2 1330   1.064   1.934   0.380
  233TCM     h1 1331   0.908   1.898   0.203
  233TCM    cl3 1332   0.862   1.723   0.360
  234TCM     c1 1333   1.697   1.860   1.682
  234TCM    cl1 1334   1.667   2.034   1.715
  234TCM    cl2 1335   1.575   1.798   1.567
  234TCM     h1 1336   1.797   1.847   1.640
  234TCM    cl3 1337   1.684   1.768   1.836
  235TCM     c1 1338   2.474   4.537   3.801
  235TCM    cl1 1339   2.356   4.436   3.711
  235TCM    cl2 1340   2.421   4.708   3.800
  235TCM     h1 1341   2.481   4.501   3.904
  235TCM    cl3 1342   2.635   4.525   3.722
  236TCM     c1 1343   3.036   0.601   1.457
  236TCM    cl1 1344   3.068   0.628   1.631
  236TCM    cl2 1345   2.998   0.758   1.379
  236TCM     h1 1346   3.123   0.555   1.410
  236TCM    cl3 1347   2.894   0.492   1.440
  237TCM     c1 1348   2.240   4.713   4.880
  237TCM    cl1 1349   2.292   4.712   5.051
  237TCM    cl2 1350   2.384   4.736   4.774
  237TCM     h1 1351   2.193   4.617   4.855
  237TCM    cl3 1352   2.124   4.846   4.854
  238TCM     c1 1353   2.555   1.588   3.317
  238TCM    cl1 1354   2.572   1.410   3.329
  238TCM    cl2 1355   2.604   1.643   3.153
  238TCM     h1 1356   2.451   1.616   3.336
  238TCM    cl3 1357   2.661   1.666   3.440
  239TCM     c1 1358   0.944   1.557   4.697
  239TCM    cl1 1359   0.907   1.538   4.871
  239TCM    cl2 1360   0.809   1.645   4.618
  239TCM     h1 1361   1.037   1.614   4.685
  239TCM    cl3 1362   0.961   1.396   4.621
  240TCM     c1 1363   2.968   1.044   3.059
  240TCM    cl1 1364   2.861   1.144   3.163
  240TCM    cl2 1365   3.139   1.086   3.094
  240TCM     h1 1366   2.951   0.938   3.080
  240TCM    cl3 1367   2.933   1.076   2.886
  241TCM     c1 1368   3.422   0.692   1.660
  241TCM    cl1 1369   3.408   0.567   1.788
  241TCM    cl2 1370   3.420   0.612   1.499
  241TCM     h1 1371   3.338   0.761   1.667
  241TCM    cl3 1372   3.575   0.783   1.681
  242TCM     c1 1373   0.351   0.196   0.438
  242TCM    cl1 1374   0.402   0.176   0.609
  242TCM    cl2 1375   0.462   0.308   0.354
  242TCM     h1 1376   0.352   0.099   0.388
  242TCM    cl3 1377   0.184   0.263   0.435
  243TCM     c1 1378   0.611   3.765   3.816
  243TCM    cl1 1379   0.726   3.855   3.920
  243TCM    cl2 1380   0.485   3.878   3.755
  243TCM     h1 1381   0.664   3.720   3.732
  243TCM    cl3 1382   0.532   3.635   3.912
  244TCM     c1 1383   0.084   4.031   4.425
  244TCM    cl1 1384   0.006   4.144   4.309
  244TCM    cl2 1385   0.262   4.051   4.418
  244TCM     h1 1386   0.049   4.052   4.526
  244TCM    cl3 1387   0.042   3.862   4.381
  245TCM     c1 1388   3.603   1.841   0.882
  245TCM    cl1 1389   3.566   1.876   1.055
  245TCM    cl2 1390   3.678   1.985   0.807
  245TCM     h1 1391   3.671   1.756   0.876
  245TCM    cl3 1392   3.451   1.802   0.795
  246TCM     c1 1393   3.257   4.324   3.424
  246TCM    cl1 1394   3.430   4.316   3.377
  246TCM    cl2 1395   3.245   4.361   3.600
  246TCM     h1 1396   3.208   4.403   3.367
  246TCM    cl3 1397   3.178   4.167   3.390
  247TCM     c1 1398   1.677   4.825   3.080
  247TCM    cl1 1399   1.815   4.723   3.131
  247TCM    cl2 1400   1.523   4.744   3.124
  247TCM     h1 1401   1.682   4.922   3.131
  247TCM    cl3 1402   1.683   4.850   2.902
  248TCM     c1 1403   2.423   0.541   2.333
  248TCM    cl1 1404   2.462   0.511   2.160
  248TCM    cl2 1405   2.469   0.709   2.376
  248TCM     h1 1406   2.316   0.527   2.349
  248TCM    cl3 1407   2.514   0.426   2.437
  249TCM     c1 1408   3.073   2.011   4.126
  249TCM    cl1 1409   3.122   1.980   4.295
  249TCM    cl2 1410   3.036   2.186   4.106
  249TCM     h1 1411   3.154   1.983   4.058
  249TCM    cl3 1412   2.926   1.915   4.087
  250TCM     c1 1413   2.817   2.241   0.435
  250TCM    cl1 1414   2.762   2.178   0.593
  250TCM    cl2 1415   2.977   2.171   0.393
  250TCM     h1 1416   2.744   2.214   0.358
  250TCM    cl3 1417   2.831   2.420   0.443
  251TCM     c1 1418   1.389   0.104   4.735
  251TCM    cl1 1419   1.489   0.205   4.625
  251TCM    cl2 1420   1.470   0.093   4.895
  251TCM     h1 1421   1.290   0.150   4.747
  251TCM    cl3 1422   1.372  -0.060   4.666
  252TCM     c1 1423   0.822   1.628   1.733
  252TCM    cl1 1424   0.740   1.774   1.670
  252TCM    cl2 1425   0.930   1.676   1.868
  252TCM     h1 1426   0.747   1.557   1.770
  252TCM    cl3 1427   0.917   1.552   1.602
  253TCM     c1 1428   4.875   3.066   0.399
  253TCM    cl1 1429   4.922   3.174   0.534
  253TCM    cl2 1430   4.951   2.905   0.422
  253TCM     h1 1431   4.766   3.055   0.398
  253TCM    cl3 1432   4.929   3.138   0.244
  254TCM     c1 1433   0.371   1.552   3.813
  254TCM    cl1 1434   0.300   1.468   3.671
  254TCM    cl2 1435   0.241   1.589   3.930
  254TCM     h1 1436   0.446   1.488   3.860
  254TCM    cl3 1437   0.447   1.706   3.759
  255TCM     c1 1438   0.818   0.512   0.209
  255TCM    cl1 1439   0.824   0.341   0.265
  255TCM    cl2 1440   0.847   0.622   0.348
  255TCM     h1 1441   0.895   0.528   0.133
  255TCM    cl3 1442   0.657   0.545   0.139
  256TCM     c1 1443   3.406   4.890   4.800
  256TCM    cl1 1444   3.240   4.956   4.790
  256TCM    cl2 1445   3.398   4.711   4.786
  256TCM     h1 1446   3.467   4.931   4.718
  256TCM    cl3 1447   3.479   4.936   4.957
  257TCM     c1 1448   2.982   3.769   3.509
  257TCM    cl1 1449   2.843   3.796   3.619
  257TCM    cl2 1450   3.004   3.593   3.483
  257TCM     h1 1451   2.963   3.818   3.413
  257TCM    cl3 1452   3.130   3.838   3.583
  258TCM     c1 1453   2.765   4.318   3.125
  258TCM    cl1 1454   2.862   4.175   3.076
  258TCM    cl2 1455   2.598   4.302   3.062
  258TCM     h1 1456   2.762   4.325   3.234
  258TCM    cl3 1457   2.839   4.467   3.057
  259TCM     c1 1458   3.263   1.201   2.782
  259TCM    cl1 1459   3.209   1.227   2.613
  259TCM    cl2 1460   3.379   1.330   2.828
  259TCM     h1 1461   3.177   1.205   2.848
  259TCM    cl3 1462   3.343   1.041   2.796
  260TCM     c1 1463   4.332   1.889   0.094
  260TCM    cl1 1464   4.227   1.975   0.212
  260TCM    cl2 1465   4.454   1.793   0.182
  260TCM     h1 1466   4.270   1.823   0.032
  260TCM    cl3 1467   4.414   2.008  -0.012
  261TCM     c1 1468   3.065   1.819   0.661
  261TCM    cl1 1469   3.121   1.648   0.654
  261TCM    cl2 1470   2.904   1.832   0.581
  261TCM     h1 1471   3.058   1.852   0.765
  261TCM    cl3 1472   3.182   1.922   0.573
  262TCM     c1 1473   4.603   4.668   1.452
  262TCM    cl1 1474   4.538   4.540   1.345
  262TCM    cl2 1475   4.778   4.692   1.418
  262TCM     h1 1476   4.549   4.762   1.434
  262TCM    cl3 1477   4.583   4.617   1.623
  263TCM     c1 1478   4.519   0.526   3.084
  263TCM    cl1 1479   4.420   0.594   2.951
  263TCM    cl2 1480   4.448   0.576   3.241
  263TCM     h1 1481   4.520   0.417   3.077
  263TCM    cl3 1482   4.686   0.590   3.071
  264TCM     c1 1483   3.537   1.974   0.457
  264TCM    cl1 1484   3.505   1.802   0.416
  264TCM    cl2 1485   3.433   2.080   0.357
  264TCM     h1 1486   3.515   1.991   0.563
  264TCM    cl3 1487   3.709   2.011   0.425
  265TCM     c1 1488   1.770   0.140   2.668
  265TCM    cl1 1489   1.862   0.279   2.735
  265TCM    cl2 1490   1.886   0.017   2.607
  265TCM     h1 1491   1.707   0.096   2.746
  265TCM    cl3 1492   1.667   0.196   2.532
  266TCM     c1 1493   1.169   4.481   4.736
  266TCM    cl1 1494   1.059   4.553   4.859
  266TCM    cl2 1495   1.318   4.581   4.725
  266TCM     h1 1496   1.195   4.379   4.766
  266TCM    cl3 1497   1.086   4.479   4.577
  267TCM     c1 1498   0.037   0.231   4.573
  267TCM    cl1 1499   0.047   0.068   4.499
  267TCM    cl2 1500   0.113   0.227   4.736
  267TCM     h1 1501   0.088   0.304   4.510
  267TCM    cl3 1502  -0.136   0.276   4.592
  268TCM     c1 1503   4.283   4.675   0.237
  268TCM    cl1 1504   4.318   4.728   0.069
  268TCM    cl2 1505   4.430   4.601   0.308
  268TCM     h1 1506   4.253   4.762   0.296
  268TCM    cl3 1507   4.150   4.555   0.235
  269TCM     c1 1508   0.382   2.542   3.843
  269TCM    cl1 1509   0.419   2.482   3.678
  269TCM    cl2 1510   0.254   2.667   3.834
  269TCM     h1 1511   0.348   2.459   3.906
  269TCM    cl3 1512   0.529   2.615   3.915
  270TCM     c1 1513   3.773   1.217   1.608
  270TCM    cl1 1514   3.835   1.366   1.530
  270TCM    cl2 1515   3.911   1.123   1.674
  270TCM     h1 1516   3.705   1.244   1.689
  270TCM    cl3 1517   3.686   1.118   1.487
  271TCM     c1 1518   1.233   4.666   0.142
  271TCM    cl1 1519   1.327   4.515   0.119
  271TCM    cl2 1520   1.295   4.793   0.032
  271TCM     h1 1521   1.127   4.647   0.120
  271TCM    cl3 1522   1.249   4.722   0.312
  272TCM     c1 1523   3.024   0.902   3.842
  272TCM    cl1 1524   3.053   1.078   3.864
  272TCM    cl2 1525   3.086   0.812   3.985
  272TCM     h1 1526   2.917   0.884   3.832
  272TCM    cl3 1527   3.110   0.846   3.695
  273TCM     c1 1528   4.383   3.347   3.450
  273TCM    cl1 1529   4.347   3.342   3.274
  273TCM    cl2 1530   4.446   3.187   3.502
  273TCM     h1 1531   4.458   3.424   3.469
  273TCM    cl3 1532   4.233   3.384   3.541
  274TCM     c1 1533   1.207   0.800   0.332
  274TCM    cl1 1534   1.231   0.645   0.419
  274TCM    cl2 1535   1.102   0.908   0.429
  274TCM     h1 1536   1.304   0.849   0.316
  274TCM    cl3 1537   1.130   0.769   0.172
  275TCM     c1 1538   1.068   2.139   0.942
  275TCM    cl1 1539   1.128   2.241   1.077
  275TCM    cl2 1540   1.076   2.232   0.788
  275TCM     h1 1541   1.129   2.049   0.934
  275TCM    cl3 1542   0.897   2.095   0.972
  276TCM     c1 1543   3.249   2.696   2.208
  276TCM    cl1 1544   3.378   2.598   2.285
  276TCM    cl2 1545   3.282   2.713   2.033
  276TCM     h1 1546   3.152   2.647   2.222
  276TCM    cl3 1547   3.243   2.859   2.284
  277TCM     c1 1548   2.977   3.604   2.717
  277TCM    cl1 1549   3.058   3.699   2.588
  277TCM    cl2 1550   2.940   3.711   2.856
  277TCM     h1 1551   2.884   3.560   2.678
  277TCM    cl3 1552   3.087   3.472   2.770
  278TCM     c1 1553   1.135   1.129   0.057
  278TCM    cl1 1554   1.138   1.289  -0.023
  278TCM    cl2 1555   0.984   1.112   0.152
  278TCM     h1 1556   1.141   1.050  -0.019
  278TCM    cl3 1557   1.277   1.116   0.167
  279TCM     c1 1558   3.044   0.159   0.649
  279TCM    cl1 1559   2.888   0.142   0.737
  279TCM    cl2 1560   3.026   0.100   0.481
  279TCM     h1 1561   3.075   0.264   0.648
  279TCM    cl3 1562   3.169   0.060   0.733
  280TCM     c1 1563   1.961   3.430   0.921
  280TCM    cl1 1564   1.931   3.412   1.097
  280TCM    cl2 1565   1.838   3.339   0.828
  280TCM     h1 1566   1.958   3.535   0.893
  280TCM    cl3 1567   2.124   3.363   0.884
  281TCM     c1 1568   2.850   3.651   1.804
  281TCM    cl1 1569   2.725   3.773   1.844
  281TCM    cl2 1570   2.955   3.625   1.946
  281TCM     h1 1571   2.802   3.556   1.776
  281TCM    cl3 1572   2.949   3.710   1.667
  282TCM     c1 1573   4.686   0.288   3.825
  282TCM    cl1 1574   4.804   0.345   3.703
  282TCM    cl2 1575   4.696   0.392   3.970
  282TCM     h1 1576   4.585   0.293   3.784
  282TCM    cl3 1577   4.723   0.118   3.870
  283TCM     c1 1578   4.482   2.886   4.474
  283TCM    cl1 1579   4.356   2.802   4.569
  283TCM    cl2 1580   4.627   2.911   4.576
  283TCM     h1 1581   4.508   2.826   4.386
  283TCM    cl3 1582   4.418   3.045   4.421
  284TCM     c1 1583   0.755   4.826   2.091
  284TCM    cl1 1584   0.924   4.807   2.032
  284TCM    cl2 1585   0.753   4.817   2.270
  284TCM     h1 1586   0.716   4.923   2.058
  284TCM    cl3 1587   0.654   4.695   2.023
  285TCM     c1 1588   0.009   0.085   0.109
  285TCM    cl1 1589  -0.038   0.253   0.068
  285TCM    cl2 1590  -0.070   0.037   0.263
  285TCM     h1 1591  -0.022   0.017   0.029
  285TCM    cl3 1592   0.187   0.076   0.129
  286TCM     c1 1593   4.535   0.262   3.397
  286TCM    cl1 1594   4.503   0.168   3.546
  286TCM    cl2 1595   4.412   0.220   3.273
  286TCM     h1 1596   4.530   0.369   3.419
  286TCM    cl3 1597   4.698   0.223   3.334
  287TCM     c1 1598   3.241   4.988   4.338
  287TCM    cl1 1599   3.239   4.910   4.177
  287TCM    cl2 1600   3.305   5.155   4.324
  287TCM     h1 1601   3.139   4.991   4.379
  287TCM    cl3 1602   3.347   4.893   4.448
  288TCM     c1 1603   1.160   1.878   1.668
  288TCM    cl1 1604   1.050   1.890   1.527
  288TCM    cl2 1605   1.284   2.008   1.659
  288TCM     h1 1606   1.103   1.889   1.760
  288TCM    cl3 1607   1.242   1.719   1.665
  289TCM     c1 1608   3.205   1.713   2.698
  289TCM    cl1 1609   3.377   1.664   2.679
  289TCM    cl2 1610   3.099   1.586   2.629
  289TCM     h1 1611   3.182   1.727   2.804
  289TCM    cl3 1612   3.177   1.866   2.609
  290TCM     c1 1613   3.546   0.251   0.331
  290TCM    cl1 1614   3.380   0.184   0.341
  290TCM    cl2 1615   3.616   0.209   0.171
  290TCM     h1 1616   3.542   0.360   0.343
  290TCM    cl3 1617   3.647   0.180   0.461
  291TCM     c1 1618   0.546   1.274   2.079
  291TCM    cl1 1619   0.473   1.182   1.943
  291TCM    cl2 1620   0.425   1.390   2.142
  291TCM     h1 1621   0.577   1.205   2.158
  291TCM    cl3 1622   0.688   1.365   2.019
  292TCM     c1 1623   2.709   3.513   1.105
  292TCM    cl1 1624   2.869   3.562   1.169
  292TCM    cl2 1625   2.632   3.397   1.218
  292TCM     h1 1626   2.645   3.601   1.093
  292TCM    cl3 1627   2.731   3.433   0.945
  293TCM     c1 1628   2.316   2.433   4.587
  293TCM    cl1 1629   2.305   2.394   4.412
  293TCM    cl2 1630   2.250   2.296   4.683
  293TCM     h1 1631   2.421   2.450   4.614
  293TCM    cl3 1632   2.220   2.581   4.620
  294TCM     c1 1633   0.663   2.285   0.701
  294TCM    cl1 1634   0.565   2.255   0.554
  294TCM    cl2 1635   0.568   2.239   0.846
  294TCM     h1 1636   0.755   2.226   0.697
  294TCM    cl3 1637   0.705   2.460   0.710
  295TCM     c1 1638   2.299   0.474   1.595
  295TCM    cl1 1639   2.190   0.382   1.486
  295TCM    cl2 1640   2.216   0.505   1.750
  295TCM     h1 1641   2.390   0.416   1.613
  295TCM    cl3 1642   2.342   0.631   1.517
  296TCM     c1 1643   2.358   3.646   0.023
  296TCM    cl1 1644   2.515   3.559   0.018
  296TCM    cl2 1645   2.284   3.645  -0.141
  296TCM     h1 1646   2.292   3.596   0.093
  296TCM    cl3 1647   2.385   3.815   0.076
  297TCM     c1 1648   0.250   3.313   4.966
  297TCM    cl1 1649   0.209   3.374   5.130
  297TCM    cl2 1650   0.241   3.134   4.965
  297TCM     h1 1651   0.179   3.353   4.894
  297TCM    cl3 1652   0.416   3.365   4.923
  298TCM     c1 1653   3.908   1.821   1.513
  298TCM    cl1 1654   3.941   1.973   1.602
  298TCM    cl2 1655   3.735   1.777   1.528
  298TCM     h1 1656   3.933   1.834   1.407
  298TCM    cl3 1657   4.009   1.690   1.582
  299TCM     c1 1658   2.300   2.531   2.506
  299TCM    cl1 1659   2.335   2.358   2.475
  299TCM    cl2 1660   2.327   2.627   2.356
  299TCM     h1 1661   2.196   2.542   2.538
  299TCM    cl3 1662   2.408   2.592   2.636
  300TCM     c1 1663   4.688   2.585   0.651
  300TCM    cl1 1664   4.615   2.465   0.540
  300TCM    cl2 1665   4.662   2.751   0.587
  300TCM     h1 1666   4.642   2.576   0.750
  300TCM    cl3 1667   4.865   2.553   0.665
  301TCM     c1 1668   4.819   4.327   1.459
  301TCM    cl1 1669   4.672   4.233   1.503
  301TCM    cl2 1670   4.841   4.323   1.281
  301TCM     h1 1671   4.807   4.430   1.493
  301TCM    cl3 1672   4.961   4.253   1.539
  302TCM     c1 1673   3.007   1.592   3.745
  302TCM    cl1 1674   2.997   1.592   3.566
  302TCM    cl2 1675   3.092   1.741   3.799
  302TCM     h1 1676   2.906   1.591   3.787
  302TCM    cl3 1677   3.098   1.448   3.800
  303TCM     c1 1678   1.103   3.880   2.154
  303TCM    cl1 1679   0.973   3.789   2.240
  303TCM    cl2 1680   1.089   3.851   1.978
  303TCM     h1 1681   1.092   3.986   2.175
  303TCM    cl3 1682   1.263   3.824   2.212
  304TCM     c1 1683   2.967   3.998   2.205
  304TCM    cl1 1684   2.970   4.044   2.032
  304TCM    cl2 1685   3.055   3.844   2.230
  304TCM     h1 1686   3.013   4.077   2.266
  304TCM    cl3 1687   2.796   3.974   2.255
  305TCM     c1 1688   1.582   2.944   2.116
  305TCM    cl1 1689   1.458   2.845   2.199
  305TCM    cl2 1690   1.737   2.935   2.207
  305TCM     h1 1691   1.597   2.907   2.014
  305TCM    cl3 1692   1.529   3.115   2.111
  306TCM     c1 1693   4.608   0.026   4.746
  306TCM    cl1 1694   4.689  -0.062   4.613
  306TCM    cl2 1695   4.728   0.062   4.874
  306TCM     h1 1696   4.565   0.119   4.708
  306TCM    cl3 1697   4.478  -0.077   4.814
  307TCM     c1 1698   4.005   4.865   2.542
  307TCM    cl1 1699   4.151   4.914   2.451
  307TCM    cl2 1700   3.965   4.991   2.663
  307TCM     h1 1701   3.921   4.854   2.473
  307TCM    cl3 1702   4.035   4.709   2.625
  308TCM     c1 1703   1.209   0.072   3.087
  308TCM    cl1 1704   1.364   0.049   3.000
  308TCM    cl2 1705   1.196  -0.048   3.220
  308TCM     h1 1706   1.205   0.174   3.129
  308TCM    cl3 1707   1.074   0.048   2.972
  309TCM     c1 1708   3.367   4.746   3.522
  309TCM    cl1 1709   3.283   4.673   3.382
  309TCM    cl2 1710   3.404   4.918   3.485
  309TCM     h1 1711   3.303   4.740   3.610
  309TCM    cl3 1712   3.520   4.657   3.552
  310TCM     c1 1713   3.596   1.912   4.895
  310TCM    cl1 1714   3.651   2.016   5.031
  310TCM    cl2 1715   3.735   1.877   4.787
  310TCM     h1 1716   3.555   1.819   4.934
  310TCM    cl3 1717   3.470   1.998   4.801
  311TCM     c1 1718   4.809   4.275   2.582
  311TCM    cl1 1719   4.707   4.421   2.601
  311TCM    cl2 1720   4.779   4.163   2.719
  311TCM     h1 1721   4.784   4.225   2.488
  311TCM    cl3 1722   4.982   4.324   2.581
  312TCM     c1 1723   4.801   2.987   2.281
  312TCM    cl1 1724   4.839   2.819   2.328
  312TCM    cl2 1725   4.916   3.041   2.154
  312TCM     h1 1726   4.699   2.992   2.242
  312TCM    cl3 1727   4.816   3.094   2.424
  313TCM     c1 1728   1.475   2.108   0.732
  313TCM    cl1 1729   1.484   2.217   0.590
  313TCM    cl2 1730   1.340   1.992   0.707
  313TCM     h1 1731   1.569   2.053   0.743
  313TCM    cl3 1732   1.444   2.206   0.879
  314TCM     c1 1733   0.701   1.696   4.050
  314TCM    cl1 1734   0.732   1.550   3.950
  314TCM    cl2 1735   0.831   1.715   4.171
  314TCM     h1 1736   0.697   1.784   3.986
  314TCM    cl3 1737   0.543   1.677   4.135
  315TCM     c1 1738   3.987   3.492   1.294
  315TCM    cl1 1739   3.892   3.412   1.424
  315TCM    cl2 1740   4.030   3.371   1.169
  315TCM     h1 1741   3.928   3.572   1.249
  315TCM    cl3 1742   4.137   3.561   1.365
  316TCM     c1 1743   4.942   0.126   2.202
  316TCM    cl1 1744   5.046  -0.008   2.144
  316TCM    cl2 1745   4.960   0.268   2.093
  316TCM     h1 1746   4.837   0.094   2.203
  316TCM    cl3 1747   4.991   0.173   2.368
  317TCM     c1 1748   1.413   2.394   1.545
  317TCM    cl1 1749   1.472   2.563   1.536
  317TCM    cl2 1750   1.349   2.344   1.385
  317TCM     h1 1751   1.495   2.328   1.575
  317TCM    cl3 1752   1.280   2.385   1.666
  318TCM     c1 1753   0.643   2.216   4.070
  318TCM    cl1 1754   0.728   2.298   3.935
  318TCM    cl2 1755   0.606   2.047   4.023
  318TCM     h1 1756   0.708   2.216   4.158
  318TCM    cl3 1757   0.491   2.303   4.106
  319TCM     c1 1758   0.736   0.977   4.935
  319TCM    cl1 1759   0.834   1.074   4.820
  319TCM    cl2 1760   0.807   0.812   4.950
  319TCM     h1 1761   0.735   1.025   5.033
  319TCM    cl3 1762   0.567   0.965   4.874
  320TCM     c1 1763   3.278   2.840   0.904
  320TCM    cl1 1764   3.411   2.952   0.861
  320TCM    cl2 1765   3.228   2.746   0.760
  320TCM     h1 1766   3.312   2.772   0.982
  320TCM    cl3 1767   3.138   2.935   0.965
  321TCM     c1 1768   3.586   4.746   2.802
  321TCM    cl1 1769   3.430   4.826   2.760
  321TCM    cl2 1770   3.692   4.863   2.887
  321TCM     h1 1771   3.567   4.660   2.866
  321TCM    cl3 1772   3.666   4.692   2.651
  322TCM     c1 1773   4.523   3.140   4.900
  322TCM    cl1 1774   4.425   3.223   5.026
  322TCM    cl2 1775   4.497   3.221   4.742
  322TCM     h1 1776   4.629   3.145   4.927
  322TCM    cl3 1777   4.471   2.969   4.888
  323TCM     c1 1778   4.564   2.702   2.663
  323TCM    cl1 1779   4.648   2.861   2.658
  323TCM    cl2 1780   4.633   2.595   2.536
  323TCM     h1 1781   4.578   2.656   2.761
  323TCM    cl3 1782   4.389   2.726   2.632
  324TCM     c1 1783   2.181   4.522   3.294
  324TCM    cl1 1784   2.283   4.619   3.405
  324TCM    cl2 1785   2.048   4.446   3.388
  324TCM     h1 1786   2.139   4.587   3.217
  324TCM    cl3 1787   2.281   4.394   3.218
  325TCM     c1 1788   3.236   2.192   0.855
  325TCM    cl1 1789   3.374   2.180   0.741
  325TCM    cl2 1790   3.226   2.043   0.954
  325TCM     h1 1791   3.250   2.279   0.921
  325TCM    cl3 1792   3.084   2.213   0.763
  326TCM     c1 1793   2.427   1.997   2.818
  326TCM    cl1 1794   2.491   1.951   2.979
  326TCM    cl2 1795   2.441   1.858   2.707
  326TCM     h1 1796   2.322   2.027   2.828
  326TCM    cl3 1797   2.524   2.133   2.752
  327TCM     c1 1798   2.834   2.805   3.334
  327TCM    cl1 1799   2.934   2.827   3.481
  327TCM    cl2 1800   2.930   2.851   3.189
  327TCM     h1 1801   2.803   2.700   3.326
  327TCM    cl3 1802   2.689   2.910   3.345
  328TCM     c1 1803   4.875   1.832   1.593
  328TCM    cl1 1804   4.782   1.985   1.597
  328TCM    cl2 1805   5.025   1.857   1.498
  328TCM     h1 1806   4.900   1.801   1.694
  328TCM    cl3 1807   4.776   1.704   1.515
  329TCM     c1 1808   1.562   1.259   3.342
  329TCM    cl1 1809   1.597   1.435   3.331
  329TCM    cl2 1810   1.556   1.188   3.178
  329TCM     h1 1811   1.640   1.210   3.400
  329TCM    cl3 1812   1.404   1.234   3.424
  330TCM     c1 1813   3.359   4.281   2.008
  330TCM    cl1 1814   3.347   4.197   1.851
  330TCM    cl2 1815   3.301   4.172   2.139
  330TCM     h1 1816   3.463   4.309   2.027
  330TCM    cl3 1817   3.257   4.429   2.005
  331TCM     c1 1818   2.090   3.510   0.497
  331TCM    cl1 1819   1.912   3.489   0.480
  331TCM    cl2 1820   2.164   3.349   0.527
  331TCM     h1 1821   2.131   3.552   0.404
  331TCM    cl3 1822   2.125   3.620   0.634
  332TCM     c1 1823   4.534   2.230   2.889
  332TCM    cl1 1824   4.418   2.250   3.025
  332TCM    cl2 1825   4.490   2.345   2.758
  332TCM     h1 1826   4.635   2.250   2.923
  332TCM    cl3 1827   4.522   2.062   2.826
  333TCM     c1 1828   2.594   3.778   1.445
  333TCM    cl1 1829   2.466   3.753   1.322
  333TCM    cl2 1830   2.741   3.843   1.365
  333TCM     h1 1831   2.559   3.849   1.520
  333TCM    cl3 1832   2.630   3.621   1.522
  334TCM     c1 1833   1.029   4.950   4.520
  334TCM    cl1 1834   1.051   5.119   4.576
  334TCM    cl2 1835   0.880   4.938   4.421
  334TCM     h1 1836   1.115   4.919   4.460
  334TCM    cl3 1837   1.014   4.842   4.663
  335TCM     c1 1838   3.555   3.344   3.449
  335TCM    cl1 1839   3.546   3.264   3.610
  335TCM    cl2 1840   3.546   3.218   3.322
  335TCM     h1 1841   3.472   3.414   3.438
  335TCM    cl3 1842   3.711   3.431   3.435
  336TCM     c1 1843   3.529   3.740   1.185
  336TCM    cl1 1844   3.580   3.908   1.223
  336TCM    cl2 1845   3.460   3.664   1.333
  336TCM     h1 1846   3.454   3.741   1.106
  336TCM    cl3 1847   3.672   3.645   1.132
  337TCM     c1 1848   2.371   1.261   3.829
  337TCM    cl1 1849   2.484   1.394   3.870
  337TCM    cl2 1850   2.349   1.253   3.651
  337TCM     h1 1851   2.412   1.166   3.865
  337TCM    cl3 1852   2.212   1.291   3.907
  338TCM     c1 1853   1.906   3.718   4.584
  338TCM    cl1 1854   1.820   3.801   4.717
  338TCM    cl2 1855   1.788   3.672   4.457
  338TCM     h1 1856   1.982   3.784   4.541
  338TCM    cl3 1857   1.986   3.569   4.646
  339TCM     c1 1858   4.098   3.915   3.018
  339TCM    cl1 1859   4.043   4.084   3.048
  339TCM    cl2 1860   4.193   3.910   2.866
  339TCM     h1 1861   4.160   3.882   3.102
  339TCM    cl3 1862   3.955   3.808   3.004
  340TCM     c1 1863   3.174   1.554   4.852
  340TCM    cl1 1864   3.027   1.559   4.955
  340TCM    cl2 1865   3.314   1.498   4.950
  340TCM     h1 1866   3.158   1.485   4.769
  340TCM    cl3 1867   3.206   1.718   4.787
  341TCM     c1 1868   0.416   0.510   3.856
  341TCM    cl1 1869   0.277   0.478   3.747
  341TCM    cl2 1870   0.459   0.359   3.942
  341TCM     h1 1871   0.502   0.544   3.798
  341TCM    cl3 1872   0.371   0.636   3.975
  342TCM     c1 1873   3.249   0.817   1.994
  342TCM    cl1 1874   3.408   0.900   2.008
  342TCM    cl2 1875   3.159   0.884   1.855
  342TCM     h1 1876   3.265   0.710   1.980
  342TCM    cl3 1877   3.154   0.843   2.144
  343TCM     c1 1878   2.693   0.027   2.524
  343TCM    cl1 1879   2.822  -0.019   2.408
  343TCM    cl2 1880   2.544   0.068   2.432
  343TCM     h1 1881   2.673  -0.056   2.591
  343TCM    cl3 1882   2.746   0.170   2.619
  344TCM     c1 1883   2.837   4.424   2.229
  344TCM    cl1 1884   2.700   4.317   2.275
  344TCM    cl2 1885   2.868   4.406   2.053
  344TCM     h1 1886   2.812   4.528   2.252
  344TCM    cl3 1887   2.983   4.374   2.321
  345TCM     c1 1888   0.816   0.840   2.105
  345TCM    cl1 1889   0.676   0.733   2.134
  345TCM    cl2 1890   0.962   0.768   2.180
  345TCM     h1 1891   0.832   0.850   1.997
  345TCM    cl3 1892   0.785   1.001   2.177
  346TCM     c1 1893   2.454   4.390   2.739
  346TCM    cl1 1894   2.570   4.521   2.776
  346TCM    cl2 1895   2.490   4.321   2.577
  346TCM     h1 1896   2.463   4.311   2.815
  346TCM    cl3 1897   2.286   4.454   2.740
  347TCM     c1 1898   4.111   1.860   4.688
  347TCM    cl1 1899   4.078   1.931   4.850
  347TCM    cl2 1900   4.035   1.698   4.677
  347TCM     h1 1901   4.070   1.925   4.611
  347TCM    cl3 1902   4.288   1.844   4.667
  348TCM     c1 1903   0.300   0.559   0.148
  348TCM    cl1 1904   0.332   0.707   0.051
  348TCM    cl2 1905   0.291   0.418   0.038
  348TCM     h1 1906   0.380   0.544   0.220
  348TCM    cl3 1907   0.143   0.576   0.234
  349TCM     c1 1908   3.930   3.536   4.935
  349TCM    cl1 1909   3.910   3.569   5.110
  349TCM    cl2 1910   4.088   3.600   4.880
  349TCM     h1 1911   3.925   3.429   4.917
  349TCM    cl3 1912   3.798   3.618   4.845
  350TCM     c1 1913   1.806   2.334   2.561
  350TCM    cl1 1914   1.841   2.448   2.695
  350TCM    cl2 1915   1.655   2.244   2.596
  350TCM     h1 1916   1.794   2.390   2.468
  350TCM    cl3 1917   1.942   2.219   2.544
  351TCM     c1 1918   2.028   3.787   1.360
  351TCM    cl1 1919   1.876   3.809   1.267
  351TCM    cl2 1920   2.129   3.934   1.345
  351TCM     h1 1921   2.004   3.769   1.466
  351TCM    cl3 1922   2.119   3.647   1.294
  352TCM     c1 1923   4.056   3.620   1.727
  352TCM    cl1 1924   4.124   3.776   1.669
  352TCM    cl2 1925   3.965   3.648   1.880
  352TCM     h1 1926   3.988   3.580   1.651
  352TCM    cl3 1927   4.190   3.505   1.757
  353TCM     c1 1928   2.519   4.529   0.489
  353TCM    cl1 1929   2.468   4.430   0.348
  353TCM    cl2 1930   2.625   4.662   0.432
  353TCM     h1 1931   2.431   4.571   0.538
  353TCM    cl3 1932   2.609   4.427   0.605
  354TCM     c1 1933   2.769   2.354   4.592
  354TCM    cl1 1934   2.688   2.478   4.490
  354TCM    cl2 1935   2.829   2.221   4.488
  354TCM     h1 1936   2.852   2.400   4.646
  354TCM    cl3 1937   2.650   2.289   4.710
  355TCM     c1 1938   1.572   3.218   2.464
  355TCM    cl1 1939   1.745   3.236   2.421
  355TCM    cl2 1940   1.531   3.333   2.595
  355TCM     h1 1941   1.510   3.238   2.376
  355TCM    cl3 1942   1.542   3.050   2.520
  356TCM     c1 1943   0.615   4.144   4.546
  356TCM    cl1 1944   0.613   4.162   4.368
  356TCM    cl2 1945   0.776   4.195   4.609
  356TCM     h1 1946   0.537   4.206   4.591
  356TCM    cl3 1947   0.588   3.972   4.590
  357TCM     c1 1948   4.847   2.292   1.795
  357TCM    cl1 1949   4.896   2.288   1.968
  357TCM    cl2 1950   4.952   2.407   1.706
  357TCM     h1 1951   4.858   2.192   1.752
  357TCM    cl3 1952   4.676   2.345   1.783
  358TCM     c1 1953   4.383   0.791   4.067
  358TCM    cl1 1954   4.355   0.937   3.968
  358TCM    cl2 1955   4.479   0.834   4.213
  358TCM     h1 1956   4.287   0.749   4.098
  358TCM    cl3 1957   4.472   0.669   3.970
  359TCM     c1 1958   3.605   0.920   0.066
  359TCM    cl1 1959   3.767   0.906   0.142
  359TCM    cl2 1960   3.605   0.834  -0.092
  359TCM     h1 1961   3.530   0.876   0.132
  359TCM    cl3 1962   3.567   1.094   0.039
  360TCM     c1 1963   1.924   1.680   3.681
  360TCM    cl1 1964   2.018   1.792   3.577
  360TCM    cl2 1965   2.017   1.529   3.707
  360TCM     h1 1966   1.902   1.727   3.777
  360TCM    cl3 1967   1.770   1.639   3.597
  361TCM     c1 1968   0.205   1.987   1.943
  361TCM    cl1 1969   0.235   1.810   1.943
  361TCM    cl2 1970   0.131   2.033   2.099
  361TCM     h1 1971   0.299   2.041   1.929
  361TCM    cl3 1972   0.091   2.026   1.810
  362TCM     c1 1973   1.386   0.495   3.307
  362TCM    cl1 1974   1.408   0.357   3.196
  362TCM    cl2 1975   1.463   0.459   3.465
  362TCM     h1 1976   1.433   0.584   3.264
  362TCM    cl3 1977   1.211   0.525   3.331
  363TCM     c1 1978   2.064   3.975   0.942
  363TCM    cl1 1979   2.060   3.797   0.962
  363TCM    cl2 1980   2.034   4.015   0.770
  363TCM     h1 1981   1.986   4.020   1.005
  363TCM    cl3 1982   2.225   4.037   0.991
  364TCM     c1 1983   3.322   1.634   4.070
  364TCM    cl1 1984   3.375   1.805   4.068
  364TCM    cl2 1985   3.162   1.621   4.149
  364TCM     h1 1986   3.315   1.596   3.967
  364TCM    cl3 1987   3.442   1.536   4.162
  365TCM     c1 1988   2.115   3.617   4.082
  365TCM    cl1 1989   2.044   3.631   3.918
  365TCM    cl2 1990   2.040   3.738   4.191
  365TCM     h1 1991   2.098   3.516   4.121
  365TCM    cl3 1992   2.291   3.648   4.072
  366TCM     c1 1993   3.140   0.652   4.784
  366TCM    cl1 1994   3.306   0.585   4.792
  366TCM    cl2 1995   3.033   0.557   4.892
  366TCM     h1 1996   3.141   0.757   4.816
  366TCM    cl3 1997   3.079   0.641   4.616
  367TCM     c1 1998   2.867   2.607   2.360
  367TCM    cl1 1999   2.696   2.556   2.372
  367TCM    cl2 2000   2.882   2.747   2.249
  367TCM     h1 2001   2.904   2.636   2.459
  367TCM    cl3 2002   2.965   2.471   2.295
  368TCM     c1 2003   4.715   4.119   0.802
  368TCM    cl1 2004   4.837   3.987   0.804
  368TCM    cl2 2005   4.765   4.248   0.916
  368TCM     h1 2006   4.708   4.160   0.701
  368TCM    cl3 2007   4.556   4.053   0.851
  369TCM     c1 2008   1.901   2.710   4.541
  369TCM    cl1 2009   1.870   2.538   4.498
  369TCM    cl2 2010   1.869   2.735   4.715
  369TCM     h1 2011   2.005   2.735   4.518
  369TCM    cl3 2012   1.792   2.814   4.444
  370TCM     c1 2013   2.457   3.999   4.159
  370TCM    cl1 2014   2.307   4.016   4.256
  370TCM    cl2 2015   2.414   3.983   3.986
  370TCM     h1 2016   2.520   4.088   4.173
  370TCM    cl3 2017   2.546   3.853   4.213
  371TCM     c1 2018   4.475   4.958   2.762
  371TCM    cl1 2019   4.550   4.862   2.631
  371TCM    cl2 2020   4.560   4.926   2.917
  371TCM     h1 2021   4.482   5.064   2.738
  371TCM    cl3 2022   4.304   4.910   2.779
  372TCM     c1 2023   1.945   3.436   1.721
  372TCM    cl1 2024   1.928   3.474   1.546
  372TCM    cl2 2025   1.948   3.588   1.815
  372TCM     h1 2026   1.862   3.374   1.754
  372TCM    cl3 2027   2.099   3.348   1.747
  373TCM     c1 2028   3.184   0.646   0.941
  373TCM    cl1 2029   3.350   0.667   0.875
  373TCM    cl2 2030   3.194   0.594   1.112
  373TCM     h1 2031   3.130   0.741   0.934
  373TCM    cl3 2032   3.098   0.520   0.846
  374TCM     c1 2033   4.971   3.654   3.015
  374TCM    cl1 2034   4.897   3.629   2.854
  374TCM    cl2 2035   4.951   3.825   3.064
  374TCM     h1 2036   4.924   3.589   3.089
  374TCM    cl3 2037   5.146   3.616   3.006
  375TCM     c1 2038   2.685   2.720   4.832
  375TCM    cl1 2039   2.730   2.813   4.685
  375TCM    cl2 2040   2.812   2.597   4.865
  375TCM     h1 2041   2.677   2.788   4.917
  375TCM    cl3 2042   2.528   2.638   4.804
  376TCM     c1 2043   2.354   0.702   0.397
  376TCM    cl1 2044   2.177   0.677   0.404
  376TCM    cl2 2045   2.402   0.738   0.228
  376TCM     h1 2046   2.382   0.786   0.462
  376TCM    cl3 2047   2.438   0.553   0.452
  377TCM     c1 2048   2.794   0.264   2.101
  377TCM    cl1 2049   2.634   0.183   2.091
  377TCM    cl2 2050   2.925   0.142   2.081
  377TCM     h1 2051   2.802   0.340   2.022
  377TCM    cl3 2052   2.812   0.343   2.261
  378TCM     c1 2053   1.729   3.320   4.589
  378TCM    cl1 2054   1.654   3.394   4.734
  378TCM    cl2 2055   1.610   3.317   4.455
  378TCM     h1 2056   1.816   3.379   4.558
  378TCM    cl3 2057   1.781   3.152   4.625
  379TCM     c1 2058   0.686   2.755   0.498
  379TCM    cl1 2059   0.844   2.808   0.565
  379TCM    cl2 2060   0.713   2.625   0.378
  379TCM     h1 2061   0.622   2.718   0.579
  379TCM    cl3 2062   0.606   2.894   0.417
  380TCM     c1 2063   2.810   0.272   3.167
  380TCM    cl1 2064   2.688   0.291   3.297
  380TCM    cl2 2065   2.810   0.102   3.110
  380TCM     h1 2066   2.785   0.338   3.083
  380TCM    cl3 2067   2.973   0.313   3.230
  381TCM     c1 2068   2.046   2.872   0.937
  381TCM    cl1 2069   2.008   2.893   0.763
  381TCM    cl2 2070   1.939   2.747   1.007
  381TCM     h1 2071   2.150   2.842   0.948
  381TCM    cl3 2072   2.020   3.028   1.024
  382TCM     c1 2073   3.088   0.258   3.965
  382TCM    cl1 2074   3.083   0.361   4.112
  382TCM    cl2 2075   2.985   0.114   3.991
  382TCM     h1 2076   3.051   0.315   3.880
  382TCM    cl3 2077   3.257   0.205   3.933
  383TCM     c1 2078   2.688   3.223   0.048
  383TCM    cl1 2079   2.794   3.331  -0.047
  383TCM    cl2 2080   2.777   3.162   0.191
  383TCM     h1 2081   2.599   3.277   0.080
  383TCM    cl3 2082   2.639   3.084  -0.055
  384TCM     c1 2083   0.101   0.504   4.187
  384TCM    cl1 2084   0.244   0.417   4.252
  384TCM    cl2 2085  -0.030   0.502   4.310
  384TCM     h1 2086   0.128   0.608   4.164
  384TCM    cl3 2087   0.045   0.424   4.037
  385TCM     c1 2088   2.478   2.610   3.674
  385TCM    cl1 2089   2.493   2.642   3.850
  385TCM    cl2 2090   2.420   2.442   3.649
  385TCM     h1 2091   2.407   2.680   3.630
  385TCM    cl3 2092   2.639   2.629   3.597
  386TCM     c1 2093   0.594   1.471   0.018
  386TCM    cl1 2094   0.616   1.604   0.137
  386TCM    cl2 2095   0.420   1.429   0.009
  386TCM     h1 2096   0.629   1.504  -0.080
  386TCM    cl3 2097   0.687   1.327   0.072
  387TCM     c1 2098   4.624   2.738   1.908
  387TCM    cl1 2099   4.708   2.640   2.032
  387TCM    cl2 2100   4.700   2.709   1.748
  387TCM     h1 2101   4.519   2.710   1.904
  387TCM    cl3 2102   4.639   2.912   1.950
  388TCM     c1 2103   2.979   3.117   0.668
  388TCM    cl1 2104   2.895   3.217   0.544
  388TCM    cl2 2105   3.156   3.120   0.637
  388TCM     h1 2106   2.958   3.157   0.767
  388TCM    cl3 2107   2.921   2.948   0.657
  389TCM     c1 2108   2.444   4.759   1.460
  389TCM    cl1 2109   2.476   4.723   1.287
  389TCM    cl2 2110   2.589   4.834   1.533
  389TCM     h1 2111   2.358   4.827   1.469
  389TCM    cl3 2112   2.408   4.606   1.548
  390TCM     c1 2113   2.675   3.893   4.638
  390TCM    cl1 2114   2.760   3.794   4.515
  390TCM    cl2 2115   2.625   3.787   4.773
  390TCM     h1 2116   2.742   3.971   4.676
  390TCM    cl3 2117   2.530   3.970   4.564
  391TCM     c1 2118   4.000   3.979   2.561
  391TCM    cl1 2119   3.974   4.139   2.637
  391TCM    cl2 2120   3.971   3.992   2.384
  391TCM     h1 2121   4.103   3.946   2.579
  391TCM    cl3 2122   3.886   3.860   2.631
  392TCM     c1 2123   2.380   1.552   2.427
  392TCM    cl1 2124   2.237   1.616   2.340
  392TCM    cl2 2125   2.519   1.665   2.407
  392TCM     h1 2126   2.357   1.542   2.533
  392TCM    cl3 2127   2.424   1.392   2.360
  393TCM     c1 2128   4.894   2.157   0.392
  393TCM    cl1 2129   4.876   2.322   0.325
  393TCM    cl2 2130   4.921   2.167   0.569
  393TCM     h1 2131   4.804   2.098   0.371
  393TCM    cl3 2132   5.036   2.080   0.314
  394TCM     c1 2133   3.929   0.426   3.186
  394TCM    cl1 2134   3.887   0.501   3.344
  394TCM    cl2 2135   4.107   0.428   3.165
  394TCM     h1 2136   3.893   0.322   3.185
  394TCM    cl3 2137   3.851   0.518   3.053
  395TCM     c1 2138   4.893   2.140   4.981
  395TCM    cl1 2139   5.033   2.037   4.937
  395TCM    cl2 2140   4.766   2.035   5.053
  395TCM     h1 2141   4.924   2.215   5.054
  395TCM    cl3 2142   4.830   2.221   4.834
  396TCM     c1 2143   3.040   1.081   1.221
  396TCM    cl1 2144   2.895   1.080   1.116
  396TCM    cl2 2145   3.095   1.251   1.245
  396TCM     h1 2146   3.016   1.037   1.318
  396TCM    cl3 2147   3.170   0.986   1.142
  397TCM     c1 2148   2.522   4.385   4.556
  397TCM    cl1 2149   2.669   4.316   4.633
  397TCM    cl2 2150   2.377   4.344   4.653
  397TCM     h1 2151   2.532   4.493   4.548
  397TCM    cl3 2152   2.506   4.314   4.392
  398TCM     c1 2153   1.356   0.162   0.401
  398TCM    cl1 2154   1.363   0.059   0.548
  398TCM    cl2 2155   1.420   0.071   0.260
  398TCM     h1 2156   1.252   0.191   0.383
  398TCM    cl3 2157   1.455   0.310   0.426
  399TCM     c1 2158   1.472   2.924   4.256
  399TCM    cl1 2159   1.326   2.988   4.174
  399TCM    cl2 2160   1.471   2.978   4.428
  399TCM     h1 2161   1.471   2.815   4.252
  399TCM    cl3 2162   1.618   2.987   4.173
  400TCM     c1 2163   1.288   2.277   2.246
  400TCM    cl1 2164   1.381   2.153   2.335
  400TCM    cl2 2165   1.232   2.210   2.089
  400TCM     h1 2166   1.201   2.307   2.306
  400TCM    cl3 2167   1.393   2.420   2.217
  401TCM     c1 2168   1.099   1.329   0.478
  401TCM    cl1 2169   1.062   1.416   0.325
  401TCM    cl2 2170   1.048   1.431   0.616
  401TCM     h1 2171   1.045   1.234   0.480
  401TCM    cl3 2172   1.276   1.299   0.489
  402TCM     c1 2173   0.196   0.257   3.128
  402TCM    cl1 2174   0.220   0.332   2.967
  402TCM    cl2 2175   0.229   0.081   3.116
  402TCM     h1 2176   0.264   0.302   3.201
  402TCM    cl3 2177   0.026   0.282   3.180
  403TCM     c1 2178   2.595   3.611   0.426
  403TCM    cl1 2179   2.638   3.783   0.397
  403TCM    cl2 2180   2.699   3.505   0.326
  403TCM     h1 2181   2.610   3.587   0.532
  403TCM    cl3 2182   2.422   3.586   0.383
  404TCM     c1 2183   0.217   1.893   0.768
  404TCM    cl1 2184   0.265   2.060   0.725
  404TCM    cl2 2185   0.116   1.825   0.636
  404TCM     h1 2186   0.306   1.831   0.782
  404TCM    cl3 2187   0.122   1.895   0.921
  405TCM     c1 2188   3.128   4.623   3.983
  405TCM    cl1 2189   2.980   4.724   3.971
  405TCM    cl2 2190   3.252   4.684   3.868
  405TCM     h1 2191   3.168   4.628   4.084
  405TCM    cl3 2192   3.088   4.453   3.942
  406TCM     c1 2193   0.136   3.256   3.189
  406TCM    cl1 2194   0.188   3.384   3.303
  406TCM    cl2 2195   0.250   3.248   3.051
  406TCM     h1 2196   0.135   3.160   3.241
  406TCM    cl3 2197  -0.029   3.293   3.128
  407TCM     c1 2198   2.769   0.269   1.700
  407TCM    cl1 2199   2.924   0.328   1.768
  407TCM    cl2 2200   2.635   0.369   1.766
  407TCM     h1 2201   2.772   0.277   1.591
  407TCM    cl3 2202   2.747   0.098   1.748
  408TCM     c1 2203   4.773   4.988   4.265
  408TCM    cl1 2204   4.597   4.956   4.251
  408TCM    cl2 2205   4.804   5.163   4.237
  408TCM     h1 2206   4.808   4.961   4.365
  408TCM    cl3 2207   4.860   4.891   4.142
  409TCM     c1 2208   3.752   0.844   2.113
  409TCM    cl1 2209   3.868   0.837   2.251
  409TCM    cl2 2210   3.690   0.679   2.080
  409TCM     h1 2211   3.669   0.910   2.139
  409TCM    cl3 2212   3.836   0.906   1.968
  410TCM     c1 2213   2.156   4.842   2.159
  410TCM    cl1 2214   2.328   4.880   2.125
  410TCM    cl2 2215   2.050   4.940   2.052
  410TCM     h1 2216   2.138   4.736   2.142
  410TCM    cl3 2217   2.120   4.884   2.330
  411TCM     c1 2218   2.115   2.452   0.801
  411TCM    cl1 2219   2.220   2.544   0.914
  411TCM    cl2 2220   2.162   2.279   0.807
  411TCM     h1 2221   2.011   2.463   0.831
  411TCM    cl3 2222   2.135   2.514   0.634
  412TCM     c1 2223   1.980   4.503   0.049
  412TCM    cl1 2224   2.114   4.384   0.034
  412TCM    cl2 2225   1.851   4.436   0.153
  412TCM     h1 2226   2.019   4.596   0.093
  412TCM    cl3 2227   1.914   4.537  -0.114
  413TCM     c1 2228   3.389   0.955   2.449
  413TCM    cl1 2229   3.235   0.871   2.488
  413TCM    cl2 2230   3.361   1.082   2.325
  413TCM     h1 2231   3.428   1.002   2.540
  413TCM    cl3 2232   3.508   0.837   2.386
  414TCM     c1 2233   3.572   3.728   0.744
  414TCM    cl1 2234   3.500   3.856   0.848
  414TCM    cl2 2235   3.513   3.749   0.576
  414TCM     h1 2236   3.681   3.737   0.746
  414TCM    cl3 2237   3.522   3.567   0.805
  415TCM     c1 2238   1.967   4.034   1.845
  415TCM    cl1 2239   2.030   3.951   1.699
  415TCM    cl2 2240   1.961   3.917   1.981
  415TCM     h1 2241   2.032   4.117   1.872
  415TCM    cl3 2242   1.801   4.094   1.811
  416TCM     c1 2243   4.867   2.624   3.010
  416TCM    cl1 2244   4.799   2.517   2.883
  416TCM    cl2 2245   4.825   2.559   3.172
  416TCM     h1 2246   4.976   2.629   3.000
  416TCM    cl3 2247   4.797   2.789   2.992
  417TCM     c1 2248   1.587   1.154   2.066
  417TCM    cl1 2249   1.501   1.309   2.092
  417TCM    cl2 2250   1.468   1.020   2.061
  417TCM     h1 2251   1.642   1.158   1.972
  417TCM    cl3 2252   1.702   1.128   2.201
  418TCM     c1 2253   0.502   0.104   1.505
  418TCM    cl1 2254   0.550  -0.034   1.402
  418TCM    cl2 2255   0.510   0.255   1.408
  418TCM     h1 2256   0.399   0.089   1.541
  418TCM    cl3 2257   0.613   0.116   1.646
  419TCM     c1 2258   1.056   4.230   0.149
  419TCM    cl1 2259   1.067   4.217  -0.030
  419TCM    cl2 2260   0.941   4.108   0.211
  419TCM     h1 2261   1.155   4.214   0.193
  419TCM    cl3 2262   0.995   4.393   0.193
  420TCM     c1 2263   2.929   2.575   0.869
  420TCM    cl1 2264   3.053   2.512   0.984
  420TCM    cl2 2265   2.844   2.714   0.944
  420TCM     h1 2266   2.978   2.607   0.776
  420TCM    cl3 2267   2.810   2.445   0.835
  421TCM     c1 2268   0.504   1.976   2.563
  421TCM    cl1 2269   0.332   1.968   2.511
  421TCM    cl2 2270   0.513   2.017   2.737
  421TCM     h1 2271   0.552   1.879   2.545
  421TCM    cl3 2272   0.590   2.104   2.470
  422TCM     c1 2273   2.568   0.600   4.629
  422TCM    cl1 2274   2.724   0.516   4.598
  422TCM    cl2 2275   2.522   0.691   4.482
  422TCM     h1 2276   2.491   0.526   4.654
  422TCM    cl3 2277   2.590   0.714   4.766
  423TCM     c1 2278   0.336   4.197   4.018
  423TCM    cl1 2279   0.509   4.161   3.992
  423TCM    cl2 2280   0.318   4.295   4.167
  423TCM     h1 2281   0.297   4.253   3.933
  423TCM    cl3 2282   0.245   4.043   4.035
  424TCM     c1 2283   4.872   3.957   1.323
  424TCM    cl1 2284   4.845   3.795   1.395
  424TCM    cl2 2285   4.781   3.970   1.169
  424TCM     h1 2286   4.837   4.034   1.392
  424TCM    cl3 2287   5.047   3.980   1.290
  425TCM     c1 2288   2.351   2.106   0.447
  425TCM    cl1 2289   2.178   2.155   0.450
  425TCM    cl2 2290   2.409   2.086   0.615
  425TCM     h1 2291   2.361   2.012   0.392
  425TCM    cl3 2292   2.449   2.233   0.366
  426TCM     c1 2293   0.206   4.787   3.512
  426TCM    cl1 2294   0.091   4.653   3.480
  426TCM    cl2 2295   0.319   4.802   3.373
  426TCM     h1 2296   0.151   4.881   3.524
  426TCM    cl3 2297   0.300   4.752   3.661
  427TCM     c1 2298   3.135   2.274   1.956
  427TCM    cl1 2299   3.227   2.240   1.806
  427TCM    cl2 2300   3.022   2.410   1.928
  427TCM     h1 2301   3.079   2.185   1.985
  427TCM    cl3 2302   3.249   2.319   2.087
  428TCM     c1 2303   4.082   1.034   4.963
  428TCM    cl1 2304   4.169   1.180   5.023
  428TCM    cl2 2305   4.192   0.940   4.858
  428TCM     h1 2306   4.051   0.973   5.048
  428TCM    cl3 2307   3.938   1.085   4.870
  429TCM     c1 2308   1.060   2.099   4.397
  429TCM    cl1 2309   1.131   1.937   4.421
  429TCM    cl2 2310   0.988   2.155   4.552
  429TCM     h1 2311   1.138   2.169   4.366
  429TCM    cl3 2312   0.932   2.091   4.271
  430TCM     c1 2313   0.405   0.166   2.047
  430TCM    cl1 2314   0.304   0.151   1.899
  430TCM    cl2 2315   0.446   0.002   2.107
  430TCM     h1 2316   0.497   0.220   2.023
  430TCM    cl3 2317   0.315   0.254   2.174
  431TCM     c1 2318   3.467   0.292   0.779
  431TCM    cl1 2319   3.613   0.396   0.790
  431TCM    cl2 2320   3.358   0.359   0.653
  431TCM     h1 2321   3.496   0.190   0.753
  431TCM    cl3 2322   3.381   0.292   0.937
  432TCM     c1 2323   2.938   1.874   3.350
  432TCM    cl1 2324   2.836   1.956   3.227
  432TCM    cl2 2325   2.921   1.959   3.508
  432TCM     h1 2326   2.906   1.770   3.361
  432TCM    cl3 2327   3.109   1.880   3.299
  433TCM     c1 2328   3.537   2.898   3.492
  433TCM    cl1 2329   3.654   2.843   3.367
  433TCM    cl2 2330   3.549   2.792   3.636
  433TCM     h1 2331   3.561   3.001   3.521
  433TCM    cl3 2332   3.370   2.891   3.426
  434TCM     c1 2333   3.082   4.209   1.607
  434TCM    cl1 2334   3.039   4.337   1.726
  434TCM    cl2 2335   2.975   4.226   1.464
  434TCM     h1 2336   3.187   4.220   1.578
  434TCM    cl3 2337   3.055   4.048   1.680
  435TCM     c1 2338   0.360   1.172   4.099
  435TCM    cl1 2339   0.449   1.019   4.071
  435TCM    cl2 2340   0.227   1.188   3.979
  435TCM     h1 2341   0.318   1.172   4.200
  435TCM    cl3 2342   0.472   1.311   4.081
  436TCM     c1 2343   0.359   1.730   1.576
  436TCM    cl1 2344   0.392   1.898   1.631
  436TCM    cl2 2345   0.423   1.613   1.697
  436TCM     h1 2346   0.251   1.716   1.566
  436TCM    cl3 2347   0.438   1.703   1.418
  437TCM     c1 2348   0.011   2.783   0.920
  437TCM    cl1 2349   0.161   2.718   0.845
  437TCM    cl2 2350  -0.069   2.894   0.804
  437TCM     h1 2351  -0.056   2.700   0.944
  437TCM    cl3 2352   0.051   2.872   1.070
  438TCM     c1 2353   0.727   3.375   4.697
  438TCM    cl1 2354   0.789   3.272   4.565
  438TCM    cl2 2355   0.606   3.490   4.631
  438TCM     h1 2356   0.679   3.312   4.773
  438TCM    cl3 2357   0.863   3.466   4.771
  439TCM     c1 2358   3.291   1.128   1.555
  439TCM    cl1 2359   3.312   0.971   1.472
  439TCM    cl2 2360   3.392   1.132   1.703
  439TCM     h1 2361   3.321   1.209   1.488
  439TCM    cl3 2362   3.118   1.148   1.598
  440TCM     c1 2363   3.530   1.655   4.498
  440TCM    cl1 2364   3.412   1.788   4.475
  440TCM    cl2 2365   3.530   1.603   4.670
  440TCM     h1 2366   3.502   1.570   4.434
  440TCM    cl3 2367   3.694   1.712   4.452
  441TCM     c1 2368   0.612   3.746   4.313
  441TCM    cl1 2369   0.487   3.830   4.215
  441TCM    cl2 2370   0.772   3.822   4.285
  441TCM     h1 2371   0.586   3.753   4.419
  441TCM    cl3 2372   0.618   3.573   4.264
  442TCM     c1 2373   3.169   3.187   0.279
  442TCM    cl1 2374   3.348   3.178   0.274
  442TCM    cl2 2375   3.102   3.021   0.276
  442TCM     h1 2376   3.138   3.237   0.371
  442TCM    cl3 2377   3.111   3.280   0.137
  443TCM     c1 2378   0.816   2.258   1.468
  443TCM    cl1 2379   0.726   2.118   1.534
  443TCM    cl2 2380   0.792   2.266   1.290
  443TCM     h1 2381   0.780   2.351   1.514
  443TCM    cl3 2382   0.991   2.239   1.502
  444TCM     c1 2383   4.476   0.080   0.146
  444TCM    cl1 2384   4.416   0.005   0.298
  444TCM    cl2 2385   4.601   0.202   0.186
  444TCM     h1 2386   4.519   0.002   0.082
  444TCM    cl3 2387   4.340   0.160   0.061
  445TCM     c1 2388   4.603   0.981   0.016
  445TCM    cl1 2389   4.551   1.069  -0.132
  445TCM    cl2 2390   4.466   0.975   0.133
  445TCM     h1 2391   4.633   0.880  -0.010
  445TCM    cl3 2392   4.741   1.068   0.091
  446TCM     c1 2393   3.010   0.687   3.227
  446TCM    cl1 2394   2.860   0.672   3.130
  446TCM    cl2 2395   2.995   0.827   3.338
  446TCM     h1 2396   3.025   0.596   3.285
  446TCM    cl3 2397   3.150   0.714   3.118
  447TCM     c1 2398   4.315   1.286   4.690
  447TCM    cl1 2399   4.415   1.423   4.631
  447TCM    cl2 2400   4.336   1.145   4.581
  447TCM     h1 2401   4.346   1.259   4.792
  447TCM    cl3 2402   4.142   1.334   4.691
  448TCM     c1 2403   4.824   2.062   3.397
  448TCM    cl1 2404   4.852   1.893   3.343
  448TCM    cl2 2405   4.717   2.146   3.280
  448TCM     h1 2406   4.776   2.061   3.496
  448TCM    cl3 2407   4.981   2.148   3.407
  449TCM     c1 2408   4.797   4.753   3.796
  449TCM    cl1 2409   4.761   4.701   3.628
  449TCM    cl2 2410   4.972   4.788   3.812
  449TCM     h1 2411   4.739   4.842   3.820
  449TCM    cl3 2412   4.752   4.620   3.909
  450TCM     c1 2413   3.337   0.458   3.568
  450TCM    cl1 2414   3.237   0.484   3.421
  450TCM    cl2 2415   3.383   0.285   3.578
  450TCM     h1 2416   3.427   0.520   3.562
  450TCM    cl3 2417   3.243   0.504   3.713
  451TCM     c1 2418   3.707   3.787   1.562
  451TCM    cl1 2419   3.838   3.774   1.440
  451TCM    cl2 2420   3.758   3.902   1.689
  451TCM     h1 2421   3.616   3.822   1.515
  451TCM    cl3 2422   3.679   3.626   1.637
  452TCM     c1 2423   0.579   0.092   1.054
  452TCM    cl1 2424   0.706  -0.021   0.998
  452TCM    cl2 2425   0.417   0.018   1.030
  452TCM     h1 2426   0.594   0.114   1.160
  452TCM    cl3 2427   0.588   0.245   0.960
  453TCM     c1 2428   2.166   3.968   3.522
  453TCM    cl1 2429   2.263   3.890   3.651
  453TCM    cl2 2430   2.182   3.872   3.371
  453TCM     h1 2431   2.061   3.973   3.552
  453TCM    cl3 2432   2.228   4.134   3.492
  454TCM     c1 2433   4.451   3.854   1.254
  454TCM    cl1 2434   4.480   3.677   1.248
  454TCM    cl2 2435   4.489   3.914   1.419
  454TCM     h1 2436   4.515   3.904   1.181
  454TCM    cl3 2437   4.279   3.889   1.217
  455TCM     c1 2438   2.917   4.191   4.394
  455TCM    cl1 2439   2.949   4.107   4.549
  455TCM    cl2 2440   2.791   4.102   4.302
  455TCM     h1 2441   2.882   4.292   4.414
  455TCM    cl3 2442   3.068   4.198   4.297
  456TCM     c1 2443   1.737   1.986   4.824
  456TCM    cl1 2444   1.595   2.031   4.924
  456TCM    cl2 2445   1.684   1.953   4.656
  456TCM     h1 2446   1.809   2.067   4.824
  456TCM    cl3 2447   1.812   1.838   4.894
  457TCM     c1 2448   1.503   3.369   1.748
  457TCM    cl1 2449   1.592   3.342   1.595
  457TCM    cl2 2450   1.621   3.383   1.882
  457TCM     h1 2451   1.445   3.461   1.741
  457TCM    cl3 2452   1.394   3.231   1.780
  458TCM     c1 2453   2.002   4.659   1.384
  458TCM    cl1 2454   2.047   4.662   1.558
  458TCM    cl2 2455   2.119   4.759   1.291
  458TCM     h1 2456   2.005   4.556   1.347
  458TCM    cl3 2457   1.837   4.727   1.363
  459TCM     c1 2458   3.929   4.208   3.528
  459TCM    cl1 2459   3.762   4.275   3.537
  459TCM    cl2 2460   4.030   4.281   3.657
  459TCM     h1 2461   3.925   4.100   3.542
  459TCM    cl3 2462   4.000   4.247   3.368
  460TCM     c1 2463   0.482   0.824   3.547
  460TCM    cl1 2464   0.480   0.897   3.383
  460TCM    cl2 2465   0.549   0.658   3.537
  460TCM     h1 2466   0.545   0.884   3.613
  460TCM    cl3 2467   0.315   0.818   3.611
  461TCM     c1 2468   1.560   4.372   0.376
  461TCM    cl1 2469   1.419   4.424   0.475
  461TCM    cl2 2470   1.515   4.227   0.281
  461TCM     h1 2471   1.589   4.453   0.308
  461TCM    cl3 2472   1.697   4.333   0.485
  462TCM     c1 2473   3.110   0.208   0.045
  462TCM    cl1 2474   3.050   0.322   0.169
  462TCM    cl2 2475   3.133   0.047   0.118
  462TCM     h1 2476   3.038   0.202  -0.038
  462TCM    cl3 2477   3.269   0.267  -0.017
  463TCM     c1 2478   3.589   0.819   3.221
  463TCM    cl1 2479   3.542   0.753   3.061
  463TCM    cl2 2480   3.767   0.846   3.224
  463TCM     h1 2481   3.538   0.914   3.237
  463TCM    cl3 2482   3.544   0.702   3.349
  464TCM     c1 2483   4.948   4.338   3.751
  464TCM    cl1 2484   4.950   4.308   3.574
  464TCM    cl2 2485   5.087   4.442   3.795
  464TCM     h1 2486   4.854   4.387   3.778
  464TCM    cl3 2487   4.961   4.181   3.838
  465TCM     c1 2488   4.134   1.535   0.063
  465TCM    cl1 2489   4.259   1.573  -0.060
  465TCM    cl2 2490   4.025   1.676   0.085
  465TCM     h1 2491   4.075   1.449   0.029
  465TCM    cl3 2492   4.214   1.497   0.218
  466TCM     c1 2493   0.521   0.503   2.805
  466TCM    cl1 2494   0.617   0.448   2.663
  466TCM    cl2 2495   0.392   0.615   2.750
  466TCM     h1 2496   0.477   0.417   2.855
  466TCM    cl3 2497   0.630   0.590   2.918
  467TCM     c1 2498   0.503   1.744   2.171
  467TCM    cl1 2499   0.600   1.686   2.310
  467TCM    cl2 2500   0.590   1.710   2.018
  467TCM     h1 2501   0.406   1.693   2.171
  467TCM    cl3 2502   0.478   1.921   2.186
  468TCM     c1 2503   3.370   1.967   1.465
  468TCM    cl1 2504   3.358   1.823   1.358
  468TCM    cl2 2505   3.391   1.912   1.634
  468TCM     h1 2506   3.457   2.027   1.435
  468TCM    cl3 2507   3.221   2.066   1.449
  469TCM     c1 2508   2.561   0.878   4.147
  469TCM    cl1 2509   2.690   0.836   4.029
  469TCM    cl2 2510   2.433   0.753   4.144
  469TCM     h1 2511   2.604   0.885   4.247
  469TCM    cl3 2512   2.490   1.036   4.101
  470TCM     c1 2513   4.422   2.488   4.740
  470TCM    cl1 2514   4.421   2.593   4.885
  470TCM    cl2 2515   4.420   2.315   4.789
  470TCM     h1 2516   4.334   2.509   4.679
  470TCM    cl3 2517   4.571   2.520   4.644
  471TCM     c1 2518   3.837   0.823   2.777
  471TCM    cl1 2519   3.666   0.819   2.722
  471TCM    cl2 2520   3.869   0.980   2.858
  471TCM     h1 2521   3.856   0.741   2.847
  471TCM    cl3 2522   3.944   0.807   2.634
  472TCM     c1 2523   3.099   2.080   2.990
  472TCM    cl1 2524   3.248   1.982   2.974
  472TCM    cl2 2525   3.048   2.137   2.828
  472TCM     h1 2526   3.020   2.019   3.034
  472TCM    cl3 2527   3.130   2.221   3.097
  473TCM     c1 2528   3.431   1.534   1.588
  473TCM    cl1 2529   3.478   1.441   1.441
  473TCM    cl2 2530   3.540   1.490   1.723
  473TCM     h1 2531   3.440   1.641   1.568
  473TCM    cl3 2532   3.262   1.494   1.632
  474TCM     c1 2533   0.281   3.088   1.340
  474TCM    cl1 2534   0.345   2.921   1.316
  474TCM    cl2 2535   0.398   3.206   1.271
  474TCM     h1 2536   0.185   3.098   1.290
  474TCM    cl3 2537   0.262   3.119   1.516
  475TCM     c1 2538   2.373   3.585   4.423
  475TCM    cl1 2539   2.478   3.536   4.561
  475TCM    cl2 2540   2.266   3.720   4.473
  475TCM     h1 2541   2.435   3.617   4.339
  475TCM    cl3 2542   2.272   3.445   4.373
  476TCM     c1 2543   1.966   1.385   1.801
  476TCM    cl1 2544   1.835   1.363   1.922
  476TCM    cl2 2545   1.911   1.502   1.676
  476TCM     h1 2546   2.055   1.424   1.851
  476TCM    cl3 2547   2.004   1.228   1.724
  477TCM     c1 2548   4.493   2.329   0.223
  477TCM    cl1 2549   4.609   2.360   0.091
  477TCM    cl2 2550   4.532   2.173   0.303
  477TCM     h1 2551   4.500   2.410   0.297
  477TCM    cl3 2552   4.327   2.325   0.156
  478TCM     c1 2553   2.885   4.586   3.474
  478TCM    cl1 2554   2.912   4.413   3.434
  478TCM    cl2 2555   2.929   4.686   3.332
  478TCM     h1 2556   2.780   4.602   3.500
  478TCM    cl3 2557   2.989   4.631   3.613
  479TCM     c1 2558   4.909   3.664   0.092
  479TCM    cl1 2559   4.895   3.523  -0.018
  479TCM    cl2 2560   4.767   3.773   0.070
  479TCM     h1 2561   4.912   3.629   0.196
  479TCM    cl3 2562   5.059   3.755   0.056
  480TCM     c1 2563   1.273   2.371   3.010
  480TCM    cl1 2564   1.210   2.537   3.028
  480TCM    cl2 2565   1.138   2.253   3.018
  480TCM     h1 2566   1.324   2.361   2.913
  480TCM    cl3 2567   1.390   2.337   3.142
  481TCM     c1 2568   2.301   2.746   1.383
  481TCM    cl1 2569   2.194   2.665   1.264
  481TCM    cl2 2570   2.419   2.626   1.445
  481TCM     h1 2571   2.354   2.829   1.335
  481TCM    cl3 2572   2.202   2.808   1.519
  482TCM     c1 2573   4.809   3.487   3.487
  482TCM    cl1 2574   4.915   3.592   3.388
  482TCM    cl2 2575   4.728   3.368   3.380
  482TCM     h1 2576   4.869   3.434   3.561
  482TCM    cl3 2577   4.685   3.587   3.569
  483TCM     c1 2578   2.199   4.883   3.025
  483TCM    cl1 2579   2.271   4.724   2.987
  483TCM    cl2 2580   2.134   4.880   3.192
  483TCM     h1 2581   2.275   4.961   3.016
  483TCM    cl3 2582   2.065   4.917   2.911
  484TCM     c1 2583   4.869   2.636   3.885
  484TCM    cl1 2584   4.950   2.544   4.016
  484TCM    cl2 2585   4.925   2.807   3.888
  484TCM     h1 2586   4.894   2.592   3.788
  484TCM    cl3 2587   4.692   2.631   3.910
  485TCM     c1 2588   2.558   2.201   3.405
  485TCM    cl1 2589   2.573   2.033   3.465
  485TCM    cl2 2590   2.515   2.199   3.231
  485TCM     h1 2591   2.481   2.253   3.461
  485TCM    cl3 2592   2.715   2.286   3.426
  486TCM     c1 2593   1.949   0.494   3.704
  486TCM    cl1 2594   1.926   0.462   3.880
  486TCM    cl2 2595   2.022   0.656   3.682
  486TCM     h1 2596   2.013   0.417   3.661
  486TCM    cl3 2597   1.789   0.491   3.623
  487TCM     c1 2598   0.821   0.062   0.506
  487TCM    cl1 2599   0.762   0.145   0.654
  487TCM    cl2 2600   0.682   0.012   0.404
  487TCM     h1 2601   0.884   0.131   0.449
  487TCM    cl3 2602   0.916  -0.082   0.552
  488TCM     c1 2603   3.975   1.180   3.341
  488TCM    cl1 2604   3.948   1.181   3.164
  488TCM    cl2 2605   3.932   1.341   3.408
  488TCM     h1 2606   3.912   1.103   3.387
  488TCM    cl3 2607   4.148   1.145   3.375
  489TCM     c1 2608   3.240   4.910   3.069
  489TCM    cl1 2609   3.412   4.917   3.118
  489TCM    cl2 2610   3.140   4.977   3.202
  489TCM     h1 2611   3.225   4.970   2.978
  489TCM    cl3 2612   3.192   4.740   3.038
  490TCM     c1 2613   2.229   2.372   2.960
  490TCM    cl1 2614   2.183   2.273   2.818
  490TCM    cl2 2615   2.136   2.526   2.959
  490TCM     h1 2616   2.206   2.317   3.052
  490TCM    cl3 2617   2.404   2.409   2.954
  491TCM     c1 2618   1.323   0.391   0.064
  491TCM    cl1 2619   1.422   0.532   0.115
  491TCM    cl2 2620   1.277   0.409  -0.108
  491TCM     h1 2621   1.381   0.300   0.077
  491TCM    cl3 2622   1.174   0.384   0.164
  492TCM     c1 2623   2.173   4.392   4.129
  492TCM    cl1 2624   2.165   4.569   4.100
  492TCM    cl2 2625   2.153   4.359   4.304
  492TCM     h1 2626   2.094   4.342   4.073
  492TCM    cl3 2627   2.333   4.332   4.074
  493TCM     c1 2628   0.810   3.787   4.952
  493TCM    cl1 2629   0.850   3.951   4.892
  493TCM    cl2 2630   0.647   3.743   4.890
  493TCM     h1 2631   0.884   3.716   4.915
  493TCM    cl3 2632   0.808   3.787   5.131
  494TCM     c1 2633   0.040   2.744   1.604
  494TCM    cl1 2634   0.004   2.856   1.469
  494TCM    cl2 2635   0.044   2.836   1.759
  494TCM     h1 2636  -0.038   2.668   1.610
  494TCM    cl3 2637   0.200   2.666   1.577
  495TCM     c1 2638   3.226   1.152   3.513
  495TCM    cl1 2639   3.356   1.237   3.602
  495TCM    cl2 2640   3.297   1.022   3.411
  495TCM     h1 2641   3.156   1.108   3.584
  495TCM    cl3 2642   3.138   1.270   3.409
  496TCM     c1 2643   0.130   1.454   1.882
  496TCM    cl1 2644   0.054   1.492   2.040
  496TCM    cl2 2645   0.061   1.560   1.755
  496TCM     h1 2646   0.238   1.469   1.888
  496TCM    cl3 2647   0.097   1.283   1.839
  497TCM     c1 2648   1.428   4.770   1.351
  497TCM    cl1 2649   1.404   4.782   1.174
  497TCM    cl2 2650   1.482   4.604   1.393
  497TCM     h1 2651   1.503   4.842   1.383
  497TCM    cl3 2652   1.272   4.804   1.434
  498TCM     c1 2653   2.690   2.966   3.760
  498TCM    cl1 2654   2.670   2.981   3.938
  498TCM    cl2 2655   2.798   3.096   3.701
  498TCM     h1 2656   2.734   2.869   3.737
  498TCM    cl3 2657   2.529   2.980   3.681
  499TCM     c1 2658   0.041   3.232   0.895
  499TCM    cl1 2659   0.113   3.366   0.801
  499TCM    cl2 2660  -0.138   3.243   0.887
  499TCM     h1 2661   0.074   3.136   0.854
  499TCM    cl3 2662   0.091   3.246   1.067
  500TCM     c1 2663   1.867   0.291   4.844
  500TCM    cl1 2664   1.827   0.125   4.788
  500TCM    cl2 2665   1.978   0.281   4.984
  500TCM     h1 2666   1.914   0.347   4.763
  500TCM    cl3 2667   1.715   0.374   4.894
  501TCM     c1 2668   0.884   1.838   2.723
  501TCM    cl1 2669   0.827   1.832   2.553
  501TCM    cl2 2670   0.761   1.759   2.828
  501TCM     h1 2671   0.979   1.785   2.732
  501TCM    cl3 2672   0.903   2.009   2.772
  502TCM     c1 2673   2.764   3.584   2.247
  502TCM    cl1 2674   2.791   3.410   2.215
  502TCM    cl2 2675   2.744   3.609   2.424
  502TCM     h1 2676   2.850   3.642   2.211
  502TCM    cl3 2677   2.616   3.638   2.162
  503TCM     c1 2678   1.473   0.467   2.676
  503TCM    cl1 2679   1.342   0.581   2.719
  503TCM    cl2 2680   1.486   0.343   2.805
  503TCM     h1 2681   1.449   0.418   2.581
  503TCM    cl3 2682   1.628   0.557   2.661
  504TCM     c1 2683   4.846   0.182   2.865
  504TCM    cl1 2684   4.906   0.035   2.948
  504TCM    cl2 2685   4.709   0.249   2.958
  504TCM     h1 2686   4.926   0.256   2.859
  504TCM    cl3 2687   4.790   0.139   2.700
  505TCM     c1 2688   2.576   3.944   2.961
  505TCM    cl1 2689   2.503   3.968   3.124
  505TCM    cl2 2690   2.483   4.039   2.841
  505TCM     h1 2691   2.680   3.977   2.962
  505TCM    cl3 2692   2.567   3.770   2.918
  506TCM     c1 2693   0.188   4.861   4.751
  506TCM    cl1 2694   0.019   4.835   4.806
  506TCM    cl2 2695   0.230   4.741   4.625
  506TCM     h1 2696   0.198   4.961   4.710
  506TCM    cl3 2697   0.299   4.843   4.891
  507TCM     c1 2698   1.389   3.900   4.899
  507TCM    cl1 2699   1.222   3.861   4.846
  507TCM    cl2 2700   1.456   3.763   4.994
  507TCM     h1 2701   1.453   3.918   4.812
  507TCM    cl3 2702   1.385   4.047   5.002
  508TCM     c1 2703   0.383   1.998   3.224
  508TCM    cl1 2704   0.211   1.964   3.188
  508TCM    cl2 2705   0.488   1.907   3.110
  508TCM     h1 2706   0.402   2.105   3.214
  508TCM    cl3 2707   0.421   1.947   3.392
  509TCM     c1 2708   4.675   0.492   4.814
  509TCM    cl1 2709   4.662   0.609   4.949
  509TCM    cl2 2710   4.671   0.582   4.658
  509TCM     h1 2711   4.769   0.437   4.822
  509TCM    cl3 2712   4.537   0.378   4.821
  510TCM     c1 2713   4.234   2.166   2.342
  510TCM    cl1 2714   4.058   2.194   2.316
  510TCM    cl2 2715   4.308   2.315   2.409
  510TCM     h1 2716   4.248   2.083   2.412
  510TCM    cl3 2717   4.311   2.126   2.185
  511TCM     c1 2718   3.192   4.625   1.472
  511TCM    cl1 2719   3.273   4.466   1.453
  511TCM    cl2 2720   3.284   4.751   1.384
  511TCM     h1 2721   3.091   4.619   1.431
  511TCM    cl3 2722   3.184   4.668   1.646
  512TCM     c1 2723   0.067   4.954   0.614
  512TCM    cl1 2724   0.128   4.941   0.782
  512TCM    cl2 2725  -0.089   4.866   0.601
  512TCM     h1 2726   0.051   5.059   0.588
  512TCM    cl3 2727   0.185   4.881   0.500
  513TCM     c1 2728   3.948   0.019   0.131
  513TCM    cl1 2729   4.008  -0.079   0.270
  513TCM    cl2 2730   4.034  -0.033  -0.018
  513TCM     h1 2731   3.841   0.003   0.119
  513TCM    cl3 2732   3.981   0.192   0.162
  514TCM     c1 2733   0.718   0.262   2.324
  514TCM    cl1 2734   0.622   0.410   2.295
  514TCM    cl2 2735   0.758   0.187   2.166
  514TCM     h1 2736   0.811   0.288   2.377
  514TCM    cl3 2737   0.624   0.146   2.422
  515TCM     c1 2738   2.728   0.019   4.283
  515TCM    cl1 2739   2.629  -0.047   4.149
  515TCM    cl2 2740   2.886  -0.067   4.287
  515TCM     h1 2741   2.744   0.126   4.268
  515TCM    cl3 2742   2.642  -0.009   4.439
  516TCM     c1 2743   4.178   4.098   1.525
  516TCM    cl1 2744   4.032   4.083   1.422
  516TCM    cl2 2745   4.129   4.144   1.691
  516TCM     h1 2746   4.231   4.002   1.528
  516TCM    cl3 2747   4.287   4.224   1.458
  517TCM     c1 2748   2.951   3.657   4.912
  517TCM    cl1 2749   2.938   3.652   5.090
  517TCM    cl2 2750   3.090   3.555   4.861
  517TCM     h1 2751   2.859   3.618   4.867
  517TCM    cl3 2752   2.979   3.826   4.857
  518TCM     c1 2753   2.624   0.428   4.165
  518TCM    cl1 2754   2.555   0.336   4.302
  518TCM    cl2 2755   2.689   0.313   4.043
  518TCM     h1 2756   2.546   0.489   4.119
  518TCM    cl3 2757   2.756   0.534   4.224
  519TCM     c1 2758   3.151   3.241   2.040
  519TCM    cl1 2759   3.308   3.157   2.059
  519TCM    cl2 2760   3.155   3.396   2.131
  519TCM     h1 2761   3.133   3.262   1.934
  519TCM    cl3 2762   3.019   3.138   2.104
  520TCM     c1 2763   4.880   2.988   3.325
  520TCM    cl1 2764   5.020   2.903   3.250
  520TCM    cl2 2765   4.939   3.090   3.461
  520TCM     h1 2766   4.833   3.052   3.250
  520TCM    cl3 2767   4.761   2.869   3.386
  521TCM     c1 2768   1.640   3.301   2.967
  521TCM    cl1 2769   1.793   3.281   3.059
  521TCM    cl2 2770   1.522   3.389   3.070
  521TCM     h1 2771   1.660   3.359   2.876
  521TCM    cl3 2772   1.574   3.140   2.923
  522TCM     c1 2773   2.722   4.181   1.788
  522TCM    cl1 2774   2.693   4.073   1.647
  522TCM    cl2 2775   2.621   4.128   1.926
  522TCM     h1 2776   2.828   4.177   1.817
  522TCM    cl3 2777   2.678   4.348   1.743
  523TCM     c1 2778   0.031   1.406   2.836
  523TCM    cl1 2779   0.006   1.546   2.727
  523TCM    cl2 2780   0.134   1.285   2.754
  523TCM     h1 2781   0.080   1.440   2.928
  523TCM    cl3 2782  -0.127   1.333   2.876
  524TCM     c1 2783   4.563   3.270   2.720
  524TCM    cl1 2784   4.475   3.197   2.581
  524TCM    cl2 2785   4.445   3.311   2.849
  524TCM     h1 2786   4.637   3.199   2.758
  524TCM    cl3 2787   4.644   3.421   2.666
  525TCM     c1 2788   2.434   4.727   2.434
  525TCM    cl1 2789   2.604   4.671   2.422
  525TCM    cl2 2790   2.399   4.781   2.602
  525TCM     h1 2791   2.419   4.811   2.366
  525TCM    cl3 2792   2.324   4.593   2.389
  526TCM     c1 2793   2.918   3.160   2.456
  526TCM    cl1 2794   2.968   2.997   2.513
  526TCM    cl2 2795   3.059   3.271   2.462
  526TCM     h1 2796   2.881   3.154   2.354
  526TCM    cl3 2797   2.789   3.225   2.563
  527TCM     c1 2798   1.891   3.237   4.201
  527TCM    cl1 2799   1.947   3.263   4.032
  527TCM    cl2 2800   1.928   3.383   4.298
  527TCM     h1 2801   1.784   3.219   4.202
  527TCM    cl3 2802   1.977   3.097   4.272
  528TCM     c1 2803   4.953   1.737   0.314
  528TCM    cl1 2804   5.003   1.732   0.142
  528TCM    cl2 2805   4.945   1.570   0.378
  528TCM     h1 2806   5.025   1.795   0.371
  528TCM    cl3 2807   4.790   1.811   0.328
  529TCM     c1 2808   1.850   2.914   1.755
  529TCM    cl1 2809   1.851   2.801   1.895
  529TCM    cl2 2810   2.007   3.000   1.750
  529TCM     h1 2811   1.834   2.859   1.663
  529TCM    cl3 2812   1.717   3.033   1.778
  530TCM     c1 2813   2.169   0.627   4.813
  530TCM    cl1 2814   2.227   0.756   4.703
  530TCM    cl2 2815   2.218   0.468   4.747
  530TCM     h1 2816   2.212   0.641   4.912
  530TCM    cl3 2817   1.990   0.634   4.824
  531TCM     c1 2818   0.229   0.001   3.976
  531TCM    cl1 2819   0.407  -0.006   3.996
  531TCM    cl2 2820   0.190   0.084   3.821
  531TCM     h1 2821   0.188  -0.100   3.974
  531TCM    cl3 2822   0.156   0.094   4.111
  532TCM     c1 2823   1.746   4.286   1.392
  532TCM    cl1 2824   1.829   4.353   1.247
  532TCM    cl2 2825   1.762   4.402   1.528
  532TCM     h1 2826   1.640   4.270   1.370
  532TCM    cl3 2827   1.823   4.131   1.438
  533TCM     c1 2828   4.930   0.807   3.927
  533TCM    cl1 2829   4.820   0.738   4.051
  533TCM    cl2 2830   4.954   0.687   3.796
  533TCM     h1 2831   4.886   0.898   3.886
  533TCM    cl3 2832   5.087   0.845   4.004
  534TCM     c1 2833   2.186   2.869   0.115
  534TCM    cl1 2834   2.055   2.913   0.001
  534TCM    cl2 2835   2.181   2.979   0.257
  534TCM     h1 2836   2.174   2.766   0.149
  534TCM    cl3 2837   2.344   2.887   0.032
  535TCM     c1 2838   2.625   4.204   1.301
  535TCM    cl1 2839   2.577   4.377   1.305
  535TCM    cl2 2840   2.740   4.177   1.165
  535TCM     h1 2841   2.673   4.178   1.395
  535TCM    cl3 2842   2.479   4.104   1.276
  536TCM     c1 2843   1.561   0.687   3.846
  536TCM    cl1 2844   1.507   0.660   4.015
  536TCM    cl2 2845   1.711   0.786   3.846
  536TCM     h1 2846   1.580   0.590   3.798
  536TCM    cl3 2847   1.432   0.774   3.757
  537TCM     c1 2848   1.546   0.994   2.490
  537TCM    cl1 2849   1.558   0.844   2.393
  537TCM    cl2 2850   1.532   0.951   2.664
  537TCM     h1 2851   1.635   1.055   2.475
  537TCM    cl3 2852   1.402   1.088   2.439
  538TCM     c1 2853   1.876   2.892   3.245
  538TCM    cl1 2854   1.826   2.909   3.074
  538TCM    cl2 2855   1.977   3.032   3.292
  538TCM     h1 2856   1.787   2.888   3.309
  538TCM    cl3 2857   1.970   2.740   3.264
  539TCM     c1 2858   3.708   4.235   2.969
  539TCM    cl1 2859   3.544   4.242   3.043
  539TCM    cl2 2860   3.723   4.364   2.845
  539TCM     h1 2861   3.784   4.249   3.047
  539TCM    cl3 2862   3.727   4.075   2.892
  540TCM     c1 2863   2.649   4.999   0.277
  540TCM    cl1 2864   2.777   5.051   0.163
  540TCM    cl2 2865   2.488   5.025   0.202
  540TCM     h1 2866   2.662   4.893   0.300
  540TCM    cl3 2867   2.660   5.096   0.428
  541TCM     c1 2868   1.598   3.492   3.997
  541TCM    cl1 2869   1.711   3.599   4.086
  541TCM    cl2 2870   1.561   3.348   4.096
  541TCM     h1 2871   1.505   3.547   3.976
  541TCM    cl3 2872   1.673   3.441   3.842
  542TCM     c1 2873   2.184   2.242   1.160
  542TCM    cl1 2874   2.259   2.285   1.317
  542TCM    cl2 2875   2.024   2.322   1.148
  542TCM     h1 2876   2.247   2.274   1.077
  542TCM    cl3 2877   2.161   2.064   1.152
  543TCM     c1 2878   3.042   0.077   3.542
  543TCM    cl1 2879   3.100  -0.037   3.668
  543TCM    cl2 2880   3.011   0.236   3.617
  543TCM     h1 2881   3.118   0.087   3.464
  543TCM    cl3 2882   2.889   0.015   3.470
  544TCM     c1 2883   2.054   1.152   2.231
  544TCM    cl1 2884   2.040   1.330   2.214
  544TCM    cl2 2885   2.214   1.110   2.300
  544TCM     h1 2886   1.975   1.115   2.298
  544TCM    cl3 2887   2.037   1.075   2.070
  545TCM     c1 2888   2.153   2.397   0.089
  545TCM    cl1 2889   2.173   2.451   0.259
  545TCM    cl2 2890   2.253   2.250   0.061
  545TCM     h1 2891   2.048   2.374   0.070
  545TCM    cl3 2892   2.207   2.528  -0.020
  546TCM     c1 2893   3.502   2.142   4.471
  546TCM    cl1 2894   3.495   2.307   4.541
  546TCM    cl2 2895   3.669   2.079   4.487
  546TCM     h1 2896   3.433   2.077   4.525
  546TCM    cl3 2897   3.457   2.148   4.298
  547TCM     c1 2898   0.805   0.469   1.915
  547TCM    cl1 2899   0.891   0.330   1.842
  547TCM    cl2 2900   0.628   0.437   1.912
  547TCM     h1 2901   0.838   0.482   2.019
  547TCM    cl3 2902   0.840   0.619   1.822
  548TCM     c1 2903   4.980   2.484   3.527
  548TCM    cl1 2904   5.025   2.657   3.535
  548TCM    cl2 2905   4.802   2.468   3.544
  548TCM     h1 2906   5.011   2.441   3.432
  548TCM    cl3 2907   5.059   2.397   3.662
  549TCM     c1 2908   4.371   4.720   0.663
  549TCM    cl1 2909   4.333   4.734   0.838
  549TCM    cl2 2910   4.532   4.793   0.631
  549TCM     h1 2911   4.372   4.615   0.634
  549TCM    cl3 2912   4.245   4.808   0.569
  550TCM     c1 2913   0.198   4.041   0.951
  550TCM    cl1 2914   0.281   3.907   0.865
  550TCM    cl2 2915   0.148   4.165   0.833
  550TCM     h1 2916   0.110   4.002   1.004
  550TCM    cl3 2917   0.312   4.114   1.069
  551TCM     c1 2918   2.169   1.976   3.297
  551TCM    cl1 2919   2.167   2.047   3.132
  551TCM    cl2 2920   2.202   2.105   3.417
  551TCM     h1 2921   2.073   1.929   3.319
  551TCM    cl3 2922   2.298   1.851   3.306
  552TCM     c1 2923   0.618   3.929   1.018
  552TCM    cl1 2924   0.671   4.022   0.874
  552TCM    cl2 2925   0.675   4.014   1.166
  552TCM     h1 2926   0.509   3.924   1.020
  552TCM    cl3 2927   0.686   3.763   1.014
  553TCM     c1 2928   1.465   3.885   0.466
  553TCM    cl1 2929   1.575   3.755   0.410
  553TCM    cl2 2930   1.553   3.997   0.574
  553TCM     h1 2931   1.426   3.940   0.379
  553TCM    cl3 2932   1.328   3.812   0.556
  554TCM     c1 2933   2.986   2.046   2.325
  554TCM    cl1 2934   3.153   2.019   2.265
  554TCM    cl2 2935   2.889   2.123   2.195
  554TCM     h1 2936   2.941   1.950   2.353
  554TCM    cl3 2937   2.990   2.155   2.467
  555TCM     c1 2938   1.917   2.619   2.286
  555TCM    cl1 2939   1.972   2.703   2.435
  555TCM    cl2 2940   1.740   2.590   2.297
  555TCM     h1 2941   1.939   2.681   2.199
  555TCM    cl3 2942   2.002   2.462   2.272
  556TCM     c1 2943   3.048   4.750   1.972
  556TCM    cl1 2944   2.901   4.775   1.871
  556TCM    cl2 2945   3.000   4.739   2.145
  556TCM     h1 2946   3.098   4.658   1.941
  556TCM    cl3 2947   3.160   4.889   1.950
  557TCM     c1 2948   0.723   2.541   4.391
  557TCM    cl1 2949   0.851   2.611   4.495
  557TCM    cl2 2950   0.718   2.363   4.413
  557TCM     h1 2951   0.627   2.584   4.418
  557TCM    cl3 2952   0.758   2.578   4.219
  558TCM     c1 2953   4.436   3.729   4.794
  558TCM    cl1 2954   4.506   3.587   4.878
  558TCM    cl2 2955   4.516   3.749   4.635
  558TCM     h1 2956   4.329   3.714   4.779
  558TCM    cl3 2957   4.462   3.877   4.893
  559TCM     c1 2958   0.152   1.961   3.738
  559TCM    cl1 2959   0.272   2.088   3.698
  559TCM    cl2 2960   0.135   1.849   3.598
  559TCM     h1 2961   0.185   1.905   3.825
  559TCM    cl3 2962  -0.007   2.037   3.771
  560TCM     c1 2963   4.122   2.260   2.768
  560TCM    cl1 2964   4.031   2.227   2.919
  560TCM    cl2 2965   4.024   2.363   2.659
  560TCM     h1 2966   4.215   2.312   2.793
  560TCM    cl3 2967   4.160   2.105   2.686
  561TCM     c1 2968   1.412   2.578   0.173
  561TCM    cl1 2969   1.520   2.701   0.100
  561TCM    cl2 2970   1.242   2.629   0.146
  561TCM     h1 2971   1.429   2.481   0.125
  561TCM    cl3 2972   1.445   2.566   0.349
  562TCM     c1 2973   3.668   1.995   2.770
  562TCM    cl1 2974   3.499   2.011   2.711
  562TCM    cl2 2975   3.677   2.048   2.941
  562TCM     h1 2976   3.700   1.891   2.763
  562TCM    cl3 2977   3.775   2.098   2.669
  563TCM     c1 2978   2.728   4.826   0.908
  563TCM    cl1 2979   2.677   4.959   1.017
  563TCM    cl2 2980   2.627   4.828   0.760
  563TCM     h1 2981   2.834   4.840   0.880
  563TCM    cl3 2982   2.707   4.669   0.992
  564TCM     c1 2983   1.666   3.769   0.846
  564TCM    cl1 2984   1.671   3.647   0.977
  564TCM    cl2 2985   1.791   3.731   0.725
  564TCM     h1 2986   1.567   3.768   0.799
  564TCM    cl3 2987   1.697   3.931   0.917
  565TCM     c1 2988   4.922   2.851   4.875
  565TCM    cl1 2989   4.866   3.019   4.843
  565TCM    cl2 2990   4.783   2.738   4.867
  565TCM     h1 2991   4.997   2.822   4.801
  565TCM    cl3 2992   4.994   2.844   5.040
  566TCM     c1 2993   2.869   4.793   2.825
  566TCM    cl1 2994   2.977   4.937   2.820
  566TCM    cl2 2995   2.867   4.716   2.664
  566TCM     h1 2996   2.906   4.722   2.900
  566TCM    cl3 2997   2.703   4.846   2.868
  567TCM     c1 2998   4.380   3.911   3.460
  567TCM    cl1 2999   4.268   3.982   3.581
  567TCM    cl2 3000   4.343   3.979   3.298
  567TCM     h1 3001   4.483   3.936   3.487
  567TCM    cl3 3002   4.360   3.733   3.456
  568TCM     c1 3003   1.542   0.742   2.968
  568TCM    cl1 3004   1.625   0.592   3.021
  568TCM    cl2 3005   1.645   0.882   3.010
  568TCM     h1 3006   1.525   0.739   2.860
  568TCM    cl3 3007   1.384   0.755   3.053
  569TCM     c1 3008   3.164   2.489   4.564
  569TCM    cl1 3009   3.043   2.621   4.558
  569TCM    cl2 3010   3.153   2.391   4.413
  569TCM     h1 3011   3.265   2.531   4.573
  569TCM    cl3 3012   3.131   2.383   4.705
  570TCM     c1 3013   2.405   4.070   0.553
  570TCM    cl1 3014   2.356   4.067   0.381
  570TCM    cl2 3015   2.362   3.913   0.629
  570TCM     h1 3016   2.513   4.085   0.560
  570TCM    cl3 3017   2.320   4.203   0.639
  571TCM     c1 3018   3.189   1.835   0.221
  571TCM    cl1 3019   3.322   1.837   0.101
  571TCM    cl2 3020   3.168   1.667   0.281
  571TCM     h1 3021   3.215   1.901   0.304
  571TCM    cl3 3022   3.037   1.891   0.144
  572TCM     c1 3023   2.380   1.740   3.750
  572TCM    cl1 3024   2.277   1.694   3.890
  572TCM    cl2 3025   2.340   1.907   3.701
  572TCM     h1 3026   2.485   1.734   3.779
  572TCM    cl3 3027   2.349   1.628   3.613
  573TCM     c1 3028   1.090   0.871   2.563
  573TCM    cl1 3029   1.210   0.783   2.463
  573TCM    cl2 3030   1.033   1.014   2.471
  573TCM     h1 3031   1.006   0.806   2.586
  573TCM    cl3 3032   1.167   0.926   2.715
  574TCM     c1 3033   2.670   4.121   0.032
  574TCM    cl1 3034   2.716   3.956   0.086
  574TCM    cl2 3035   2.537   4.111  -0.087
  574TCM     h1 3036   2.637   4.180   0.118
  574TCM    cl3 3037   2.813   4.199  -0.044
  575TCM     c1 3038   2.196   4.240   1.540
  575TCM    cl1 3039   2.366   4.242   1.598
  575TCM    cl2 3040   2.184   4.335   1.388
  575TCM     h1 3041   2.165   4.137   1.522
  575TCM    cl3 3042   2.091   4.315   1.665
  576TCM     c1 3043   0.824   2.492   4.835
  576TCM    cl1 3044   0.684   2.592   4.886
  576TCM    cl2 3045   0.766   2.331   4.783
  576TCM     h1 3046   0.875   2.541   4.752
  576TCM    cl3 3047   0.938   2.475   4.972
  577TCM     c1 3048   1.471   1.298   1.679
  577TCM    cl1 3049   1.514   1.458   1.748
  577TCM    cl2 3050   1.339   1.225   1.777
  577TCM     h1 3051   1.437   1.310   1.576
  577TCM    cl3 3052   1.614   1.190   1.685
  578TCM     c1 3053   0.228   3.581   3.712
  578TCM    cl1 3054   0.139   3.735   3.692
  578TCM    cl2 3055   0.360   3.572   3.592
  578TCM     h1 3056   0.270   3.575   3.813
  578TCM    cl3 3057   0.115   3.444   3.687
  579TCM     c1 3058   0.394   0.198   3.553
  579TCM    cl1 3059   0.475   0.323   3.454
  579TCM    cl2 3060   0.502   0.056   3.567
  579TCM     h1 3061   0.372   0.238   3.653
  579TCM    cl3 3062   0.240   0.150   3.473
  580TCM     c1 3063   4.056   4.920   3.100
  580TCM    cl1 3064   4.231   4.950   3.126
  580TCM    cl2 3065   4.035   4.784   2.985
  580TCM     h1 3066   4.008   4.895   3.195
  580TCM    cl3 3067   3.982   5.069   3.032
  581TCM     c1 3068   3.147   3.952   1.273
  581TCM    cl1 3069   3.274   4.043   1.361
  581TCM    cl2 3070   3.121   3.793   1.353
  581TCM     h1 3071   3.054   4.009   1.274
  581TCM    cl3 3072   3.200   3.925   1.104
  582TCM     c1 3073   4.542   4.228   3.787
  582TCM    cl1 3074   4.622   4.265   3.943
  582TCM    cl2 3075   4.600   4.069   3.726
  582TCM     h1 3076   4.434   4.224   3.802
  582TCM    cl3 3077   4.582   4.355   3.667
  583TCM     c1 3078   1.136   3.648   0.230
  583TCM    cl1 3079   1.275   3.557   0.298
  583TCM    cl2 3080   1.096   3.583   0.068
  583TCM     h1 3081   1.050   3.638   0.296
  583TCM    cl3 3082   1.180   3.822   0.216
  584TCM     c1 3083   0.206   2.351   4.908
  584TCM    cl1 3084   0.237   2.303   5.078
  584TCM    cl2 3085   0.359   2.408   4.833
  584TCM     h1 3086   0.169   2.266   4.852
  584TCM    cl3 3087   0.084   2.483   4.906
  585TCM     c1 3088   0.983   0.078   2.616
  585TCM    cl1 3089   0.955   0.249   2.661
  585TCM    cl2 3090   0.998   0.066   2.437
  585TCM     h1 3091   1.075   0.043   2.663
  585TCM    cl3 3092   0.844  -0.020   2.672
  586TCM     c1 3093   0.869   1.164   4.095
  586TCM    cl1 3094   0.816   1.296   4.205
  586TCM    cl2 3095   0.783   1.175   3.939
  586TCM     h1 3096   0.977   1.172   4.078
  586TCM    cl3 3097   0.833   1.006   4.172
  587TCM     c1 3098   3.893   2.547   4.454
  587TCM    cl1 3099   3.864   2.378   4.402
  587TCM    cl2 3100   4.067   2.571   4.488
  587TCM     h1 3101   3.861   2.615   4.375
  587TCM    cl3 3102   3.798   2.580   4.603
  588TCM     c1 3103   2.135   3.269   0.029
  588TCM    cl1 3104   2.306   3.262  -0.025
  588TCM    cl2 3105   2.030   3.293  -0.114
  588TCM     h1 3106   2.109   3.176   0.078
  588TCM    cl3 3107   2.114   3.405   0.144
  589TCM     c1 3108   1.054   0.397   0.698
  589TCM    cl1 3109   1.065   0.329   0.532
  589TCM    cl2 3110   0.983   0.562   0.691
  589TCM     h1 3111   0.990   0.333   0.760
  589TCM    cl3 3112   1.218   0.406   0.769
  590TCM     c1 3113   0.484   3.723   0.299
  590TCM    cl1 3114   0.409   3.675   0.143
  590TCM    cl2 3115   0.533   3.575   0.389
  590TCM     h1 3116   0.571   3.786   0.281
  590TCM    cl3 3117   0.364   3.814   0.397
  591TCM     c1 3118   3.095   1.478   3.102
  591TCM    cl1 3119   3.214   1.608   3.065
  591TCM    cl2 3120   3.025   1.419   2.948
  591TCM     h1 3121   3.145   1.396   3.154
  591TCM    cl3 3122   2.964   1.543   3.205
  592TCM     c1 3123   2.703   4.576   4.959
  592TCM    cl1 3124   2.668   4.719   5.062
  592TCM    cl2 3125   2.737   4.632   4.792
  592TCM     h1 3126   2.789   4.523   4.999
  592TCM    cl3 3127   2.560   4.468   4.959
  593TCM     c1 3128   3.312   3.517   3.082
  593TCM    cl1 3129   3.478   3.455   3.049
  593TCM    cl2 3130   3.294   3.680   3.009
  593TCM     h1 3131   3.238   3.449   3.040
  593TCM    cl3 3132   3.289   3.530   3.259
  594TCM     c1 3133   2.854   3.882   0.771
  594TCM    cl1 3134   2.726   4.000   0.725
  594TCM    cl2 3135   2.808   3.719   0.713
  594TCM     h1 3136   2.949   3.912   0.726
  594TCM    cl3 3137   2.871   3.879   0.950
  595TCM     c1 3138   4.377   4.321   1.105
  595TCM    cl1 3139   4.460   4.440   0.999
  595TCM    cl2 3140   4.497   4.207   1.172
  595TCM     h1 3141   4.326   4.373   1.186
  595TCM    cl3 3142   4.257   4.230   1.006
  596TCM     c1 3143   4.602   2.739   0.177
  596TCM    cl1 3144   4.456   2.686   0.266
  596TCM    cl2 3145   4.745   2.653   0.242
  596TCM     h1 3146   4.591   2.717   0.071
  596TCM    cl3 3147   4.625   2.915   0.200
  597TCM     c1 3148   2.742   0.749   2.119
  597TCM    cl1 3149   2.775   0.622   1.997
  597TCM    cl2 3150   2.794   0.908   2.054
  597TCM     h1 3151   2.635   0.752   2.142
  597TCM    cl3 3152   2.834   0.712   2.269
  598TCM     c1 3153   3.221   4.374   2.883
  598TCM    cl1 3154   3.080   4.448   2.800
  598TCM    cl2 3155   3.196   4.378   3.060
  598TCM     h1 3156   3.233   4.271   2.849
  598TCM    cl3 3157   3.367   4.469   2.840
  599TCM     c1 3158   3.426   3.651   3.702
  599TCM    cl1 3159   3.575   3.595   3.784
  599TCM    cl2 3160   3.302   3.521   3.708
  599TCM     h1 3161   3.387   3.741   3.751
  599TCM    cl3 3162   3.464   3.687   3.531
  600TCM     c1 3163   4.127   0.450   4.949
  600TCM    cl1 3164   4.251   0.580   4.947
  600TCM    cl2 3165   4.133   0.358   4.794
  600TCM     h1 3166   4.148   0.381   5.032
  600TCM    cl3 3167   3.965   0.523   4.970
  601TCM     c1 3168   3.113   3.139   3.358
  601TCM    cl1 3169   3.200   3.228   3.487
  601TCM    cl2 3170   3.188   3.175   3.199
  601TCM     h1 3171   3.119   3.031   3.378
  601TCM    cl3 3172   2.941   3.190   3.357
  602TCM     c1 3173   0.439   2.407   1.681
  602TCM    cl1 3174   0.594   2.398   1.771
  602TCM    cl2 3175   0.338   2.264   1.720
  602TCM     h1 3176   0.386   2.498   1.709
  602TCM    cl3 3177   0.474   2.409   1.505
  603TCM     c1 3178   4.900   4.368   3.087
  603TCM    cl1 3179   4.954   4.434   2.929
  603TCM    cl2 3180   5.026   4.399   3.211
  603TCM     h1 3181   4.807   4.417   3.117
  603TCM    cl3 3182   4.874   4.192   3.071
  604TCM     c1 3183   2.212   3.299   1.364
  604TCM    cl1 3184   2.282   3.265   1.202
  604TCM    cl2 3185   2.345   3.343   1.477
  604TCM     h1 3186   2.141   3.382   1.356
  604TCM    cl3 3187   2.127   3.153   1.424
  605TCM     c1 3188   4.747   1.212   2.553
  605TCM    cl1 3189   4.850   1.332   2.468
  605TCM    cl2 3190   4.843   1.063   2.581
  605TCM     h1 3191   4.714   1.253   2.649
  605TCM    cl3 3192   4.604   1.173   2.451
  606TCM     c1 3193   3.972   3.174   3.661
  606TCM    cl1 3194   3.842   3.054   3.627
  606TCM    cl2 3195   4.091   3.102   3.775
  606TCM     h1 3196   4.023   3.200   3.568
  606TCM    cl3 3197   3.900   3.321   3.734
  607TCM     c1 3198   1.651   3.206   3.408
  607TCM    cl1 3199   1.567   3.094   3.297
  607TCM    cl2 3200   1.723   3.113   3.543
  607TCM     h1 3201   1.730   3.259   3.354
  607TCM    cl3 3202   1.533   3.324   3.474
  608TCM     c1 3203   2.538   2.926   2.332
  608TCM    cl1 3204   2.390   3.023   2.362
  608TCM    cl2 3205   2.613   2.883   2.489
  608TCM     h1 3206   2.512   2.835   2.277
  608TCM    cl3 3207   2.654   3.023   2.235
  609TCM     c1 3208   1.827   2.630   0.288
  609TCM    cl1 3209   1.809   2.461   0.345
  609TCM    cl2 3210   1.876   2.630   0.116
  609TCM     h1 3211   1.731   2.683   0.299
  609TCM    cl3 3212   1.952   2.714   0.385
  610TCM     c1 3213   4.640   0.682   2.686
  610TCM    cl1 3214   4.634   0.503   2.677
  610TCM    cl2 3215   4.629   0.752   2.520
  610TCM     h1 3216   4.556   0.718   2.746
  610TCM    cl3 3217   4.794   0.734   2.761
  611TCM     c1 3218   0.115   2.141   1.246
  611TCM    cl1 3219   0.175   2.220   1.096
  611TCM    cl2 3220  -0.058   2.101   1.226
  611TCM     h1 3221   0.172   2.049   1.264
  611TCM    cl3 3222   0.134   2.252   1.386
  612TCM     c1 3223   3.107   3.890   0.291
  612TCM    cl1 3224   3.265   3.930   0.365
  612TCM    cl2 3225   3.069   4.009   0.163
  612TCM     h1 3226   3.111   3.790   0.248
  612TCM    cl3 3227   2.981   3.897   0.419
  613TCM     c1 3228   2.582   4.121   3.466
  613TCM    cl1 3229   2.568   4.083   3.641
  613TCM    cl2 3230   2.742   4.068   3.405
  613TCM     h1 3231   2.503   4.069   3.411
  613TCM    cl3 3232   2.566   4.298   3.441
  614TCM     c1 3233   2.367   4.450   1.913
  614TCM    cl1 3234   2.490   4.507   2.030
  614TCM    cl2 3235   2.234   4.570   1.903
  614TCM     h1 3236   2.412   4.437   1.814
  614TCM    cl3 3237   2.299   4.293   1.968
  615TCM     c1 3238   1.420   1.619   0.591
  615TCM    cl1 3239   1.290   1.680   0.483
  615TCM    cl2 3240   1.362   1.618   0.760
  615TCM     h1 3241   1.446   1.517   0.561
  615TCM    cl3 3242   1.564   1.725   0.578
  616TCM     c1 3243   0.259   2.698   4.383
  616TCM    cl1 3244   0.193   2.744   4.222
  616TCM    cl2 3245   0.365   2.555   4.363
  616TCM     h1 3246   0.317   2.782   4.424
  616TCM    cl3 3247   0.125   2.658   4.495
  617TCM     c1 3248   0.608   1.309   4.509
  617TCM    cl1 3249   0.546   1.147   4.464
  617TCM    cl2 3250   0.603   1.327   4.687
  617TCM     h1 3251   0.711   1.321   4.473
  617TCM    cl3 3252   0.504   1.434   4.433
  618TCM     c1 3253   0.166   2.571   0.443
  618TCM    cl1 3254   0.221   2.400   0.459
  618TCM    cl2 3255   0.110   2.600   0.275
  618TCM     h1 3256   0.084   2.589   0.513
  618TCM    cl3 3257   0.303   2.681   0.481
  619TCM     c1 3258   2.108   4.113   4.581
  619TCM    cl1 3259   2.157   3.985   4.697
  619TCM    cl2 3260   2.025   4.245   4.670
  619TCM     h1 3261   2.196   4.152   4.530
  619TCM    cl3 3262   1.995   4.043   4.460
  620TCM     c1 3263   2.831   3.335   3.048
  620TCM    cl1 3264   2.717   3.426   2.943
  620TCM    cl2 3265   2.960   3.446   3.105
  620TCM     h1 3266   2.777   3.294   3.134
  620TCM    cl3 3267   2.904   3.200   2.955
  621TCM     c1 3268   2.873   4.256   0.360
  621TCM    cl1 3269   2.941   4.307   0.518
  621TCM    cl2 3270   2.829   4.400   0.262
  621TCM     h1 3271   2.947   4.197   0.306
  621TCM    cl3 3272   2.725   4.158   0.388
  622TCM     c1 3273   3.341   4.309   0.125
  622TCM    cl1 3274   3.284   4.241  -0.031
  622TCM    cl2 3275   3.456   4.194   0.202
  622TCM     h1 3276   3.391   4.404   0.108
  622TCM    cl3 3277   3.200   4.333   0.234
  623TCM     c1 3278   2.396   3.686   0.900
  623TCM    cl1 3279   2.516   3.807   0.956
  623TCM    cl2 3280   2.359   3.574   1.035
  623TCM     h1 3281   2.304   3.736   0.867
  623TCM    cl3 3282   2.465   3.592   0.764
  624TCM     c1 3283   3.959   3.691   3.405
  624TCM    cl1 3284   4.048   3.582   3.294
  624TCM    cl2 3285   4.005   3.861   3.369
  624TCM     h1 3286   3.851   3.678   3.390
  624TCM    cl3 3287   4.000   3.653   3.575
  625TCM     c1 3288   0.204   4.623   4.186
  625TCM    cl1 3289   0.044   4.565   4.129
  625TCM    cl2 3290   0.184   4.781   4.268
  625TCM     h1 3291   0.246   4.551   4.257
  625TCM    cl3 3292   0.314   4.641   4.046
  626TCM     c1 3293   4.147   0.053   3.488
  626TCM    cl1 3294   4.127   0.088   3.663
  626TCM    cl2 3295   4.024   0.145   3.395
  626TCM     h1 3296   4.247   0.082   3.456
  626TCM    cl3 3297   4.123  -0.122   3.460
  627TCM     c1 3298   2.357   2.613   3.260
  627TCM    cl1 3299   2.533   2.576   3.256
  627TCM    cl2 3300   2.328   2.748   3.375
  627TCM     h1 3301   2.323   2.642   3.160
  627TCM    cl3 3302   2.267   2.467   3.314
  628TCM     c1 3303   4.941   4.706   2.617
  628TCM    cl1 3304   4.911   4.844   2.506
  628TCM    cl2 3305   4.852   4.733   2.771
  628TCM     h1 3306   4.906   4.614   2.571
  628TCM    cl3 3307   5.117   4.693   2.650
  629TCM     c1 3308   2.344   0.795   1.919
  629TCM    cl1 3309   2.240   0.894   1.811
  629TCM    cl2 3310   2.396   0.894   2.060
  629TCM     h1 3311   2.289   0.707   1.953
  629TCM    cl3 3312   2.490   0.743   1.828
  630TCM     c1 3313   0.306   2.354   2.836
  630TCM    cl1 3314   0.190   2.482   2.884
  630TCM    cl2 3315   0.235   2.255   2.704
  630TCM     h1 3316   0.400   2.399   2.802
  630TCM    cl3 3317   0.339   2.248   2.977
  631TCM     c1 3318   1.142   4.199   0.619
  631TCM    cl1 3319   1.200   4.137   0.460
  631TCM    cl2 3320   1.225   4.110   0.751
  631TCM     h1 3321   1.164   4.305   0.627
  631TCM    cl3 3322   0.965   4.173   0.631
  632TCM     c1 3323   2.463   3.160   0.476
  632TCM    cl1 3324   2.440   3.229   0.312
  632TCM    cl2 3325   2.537   3.284   0.583
  632TCM     h1 3326   2.366   3.129   0.517
  632TCM    cl3 3327   2.572   3.018   0.467
  633TCM     c1 3328   0.488   0.623   0.599
  633TCM    cl1 3329   0.619   0.502   0.613
  633TCM    cl2 3330   0.330   0.544   0.631
  633TCM     h1 3331   0.504   0.703   0.672
  633TCM    cl3 3332   0.487   0.692   0.433
  634TCM     c1 3333   4.972   2.111   2.914
  634TCM    cl1 3334   4.980   2.234   3.044
  634TCM    cl2 3335   4.883   2.179   2.773
  634TCM     h1 3336   5.073   2.083   2.883
  634TCM    cl3 3337   4.885   1.966   2.974
  635TCM     c1 3338   2.471   0.807   3.401
  635TCM    cl1 3339   2.623   0.893   3.359
  635TCM    cl2 3340   2.400   0.880   3.549
  635TCM     h1 3341   2.400   0.816   3.318
  635TCM    cl3 3342   2.506   0.633   3.431
  636TCM     c1 3343   4.996   1.081   2.242
  636TCM    cl1 3344   4.861   1.150   2.146
  636TCM    cl2 3345   5.152   1.140   2.176
  636TCM     h1 3346   4.986   1.111   2.346
  636TCM    cl3 3347   4.991   0.902   2.231
  637TCM     c1 3348   3.940   0.410   4.381
  637TCM    cl1 3349   4.109   0.354   4.404
  637TCM    cl2 3350   3.840   0.354   4.518
  637TCM     h1 3351   3.938   0.519   4.376
  637TCM    cl3 3352   3.876   0.342   4.227
  638TCM     c1 3353   0.020   0.797   4.839
  638TCM    cl1 3354   0.028   0.620   4.806
  638TCM    cl2 3355  -0.012   0.823   5.013
  638TCM     h1 3356   0.115   0.844   4.812
  638TCM    cl3 3357  -0.113   0.871   4.744
  639TCM     c1 3358   2.612   0.204   1.291
  639TCM    cl1 3359   2.753   0.121   1.364
  639TCM    cl2 3360   2.567   0.344   1.394
  639TCM     h1 3361   2.638   0.239   1.191
  639TCM    cl3 3362   2.473   0.092   1.282
  640TCM     c1 3363   1.979   1.177   3.649
  640TCM    cl1 3364   1.875   1.147   3.792
  640TCM    cl2 3365   1.883   1.256   3.520
  640TCM     h1 3366   2.062   1.243   3.678
  640TCM    cl3 3367   2.043   1.021   3.589
   5.00000   5.00000   5.00000
