FOO
 3367
    1POM     C1    1   3.346   1.729   2.048
    1POM     O2    2   3.218   1.769   1.996
    1POM     C3    3   3.211   1.884   1.921
    1POM     C4    4   3.315   1.976   1.904
    1POM     C5    5   3.297   2.088   1.821
    1POM     C6    6   3.176   2.111   1.753
    1POM     C7    7   3.174   2.226   1.661
    1POM     C8    8   3.139   2.212   1.526
    1POM     C9    9   3.142   2.321   1.439
    1POM    C10   10   3.181   2.447   1.486
    1POM    C11   11   3.216   2.465   1.621
    1POM    C12   12   3.258   2.598   1.672
    1POM    O13   13   3.295   2.606   1.789
    1POM    C14   14   3.213   2.353   1.707
    1POM    C15   15   3.068   2.020   1.772
    1POM    C16   16   2.935   2.033   1.707
    1POM    C17   17   2.866   1.917   1.663
    1POM    C18   18   2.747   1.927   1.590
    1POM    C19   19   2.693   2.052   1.557
    1POM    C20   20   2.579   2.063   1.458
    1POM    C21   21   2.452   1.990   1.501
    1POM    N22   22   2.631   2.005   1.335
    1POM    C23   23   2.756   2.167   1.608
    1POM    C24   24   2.873   2.157   1.684
    1POM    C25   25   3.090   1.909   1.856
    1POM    H26   26   3.328   1.632   2.095
    1POM    H27   27   3.414   1.721   1.962
    1POM    H28   28   3.376   1.805   2.120
    1POM    H29   29   3.410   1.963   1.952
    1POM    H30   30   3.381   2.156   1.808
    1POM    H31   31   3.109   2.115   1.488
    1POM    H32   32   3.117   2.308   1.334
    1POM    H33   33   3.184   2.530   1.416
    1POM    H34   34   3.241   2.365   1.811
    1POM    H35   35   2.908   1.819   1.681
    1POM    H36   36   2.700   1.835   1.556
    1POM    H37   37   2.555   2.169   1.443
    1POM    H38   38   2.381   2.007   1.420
    1POM    H39   39   2.421   2.036   1.595
    1POM    H40   40   2.478   1.884   1.512
    1POM    H41   41   2.690   1.923   1.345
    1POM    H42   42   2.715   2.265   1.585
    1POM    H43   43   2.919   2.248   1.721
    1POM    H44   44   3.011   1.837   1.872
    2POM    C45   45   2.718   2.013   0.267
    2POM    O46   46   2.811   2.090   0.344
    2POM    C47   47   2.818   2.070   0.479
    2POM    C48   48   2.730   1.989   0.553
    2POM    C49   49   2.743   1.976   0.691
    2POM    C50   50   2.846   2.043   0.760
    2POM    C51   51   2.857   2.020   0.905
    2POM    C52   52   2.975   1.968   0.960
    2POM    C53   53   2.987   1.952   1.098
    2POM    C54   54   2.880   1.986   1.182
    2POM    C55   55   2.760   2.036   1.129
    2POM    C56   56   2.650   2.075   1.218
    2POM    O57   57   2.583   2.175   1.195
    2POM    C58   58   2.750   2.053   0.989
    2POM    C59   59   2.935   2.126   0.688
    2POM    C60   60   3.043   2.203   0.754
    2POM    C61   61   3.174   2.202   0.703
    2POM    C62   62   3.277   2.266   0.771
    2POM    C63   63   3.252   2.336   0.891
    2POM    C64   64   3.364   2.398   0.972
    2POM    C65   65   3.454   2.490   0.890
    2POM    N66   66   3.441   2.285   1.024
    2POM    C67   67   3.121   2.343   0.938
    2POM    C68   68   3.017   2.278   0.870
    2POM    C69   69   2.919   2.137   0.548
    2POM    H70   70   2.735   2.043   0.163
    2POM    H71   71   2.742   1.908   0.284
    2POM    H72   72   2.618   2.040   0.301
    2POM    H73   73   2.648   1.935   0.505
    2POM    H74   74   2.674   1.913   0.746
    2POM    H75   75   3.059   1.943   0.896
    2POM    H76   76   3.080   1.915   1.141
    2POM    H77   77   2.892   1.977   1.289
    2POM    H78   78   2.659   2.095   0.947
    2POM    H79   79   3.196   2.148   0.611
    2POM    H80   80   3.378   2.259   0.733
    2POM    H81   81   3.321   2.457   1.053
    2POM    H82   82   3.521   2.537   0.962
    2POM    H83   83   3.388   2.562   0.842
    2POM    H84   84   3.508   2.427   0.818
    2POM    H85   85   3.461   2.211   0.957
    2POM    H86   86   3.098   2.397   1.029
    2POM    H87   87   2.917   2.284   0.910
    2POM    H88   88   2.986   2.202   0.493
    3POM    C89   89   3.859   1.649   1.800
    3POM    O90   90   3.718   1.677   1.797
    3POM    C91   91   3.667   1.740   1.686
    3POM    C92   92   3.740   1.828   1.604
    3POM    C93   93   3.681   1.887   1.492
    3POM    C94   94   3.548   1.858   1.458
    3POM    C95   95   3.495   1.911   1.331
    3POM    C96   96   3.453   1.821   1.232
    3POM    C97   97   3.403   1.869   1.110
    3POM    C98   98   3.397   2.006   1.086
    3POM    C99   99   3.440   2.098   1.183
    3POM   C100  100   3.432   2.242   1.154
    3POM   O101  101   3.408   2.322   1.243
    3POM   C102  102   3.488   2.049   1.306
    3POM   C103  103   3.472   1.773   1.542
    3POM   C104  104   3.331   1.742   1.514
    3POM   C105  105   3.288   1.609   1.502
    3POM   C106  106   3.157   1.580   1.465
    3POM   C107  107   3.065   1.683   1.441
    3POM   C108  108   2.926   1.654   1.386
    3POM   C109  109   2.844   1.559   1.475
    3POM   N110  110   2.945   1.619   1.246
    3POM   C111  111   3.107   1.816   1.458
    3POM   C112  112   3.239   1.844   1.495
    3POM   C113  113   3.534   1.716   1.654
    3POM   H114  114   3.872   1.583   1.885
    3POM   H115  115   3.883   1.599   1.705
    3POM   H116  116   3.911   1.744   1.813
    3POM   H117  117   3.844   1.852   1.625
    3POM   H118  118   3.740   1.953   1.429
    3POM   H119  119   3.458   1.714   1.250
    3POM   H120  120   3.370   1.801   1.033
    3POM   H121  121   3.357   2.039   0.991
    3POM   H122  122   3.519   2.118   1.383
    3POM   H123  123   3.359   1.528   1.516
    3POM   H124  124   3.127   1.476   1.452
    3POM   H125  125   2.870   1.748   1.386
    3POM   H126  126   2.750   1.543   1.421
    3POM   H127  127   2.829   1.612   1.569
    3POM   H128  128   2.901   1.467   1.488
    3POM   H129  129   2.988   1.692   1.189
    3POM   H130  130   3.039   1.898   1.440
    3POM   H131  131   3.271   1.947   1.507
    3POM   H132  132   3.476   1.650   1.719
    4POM   C133  133   3.040   0.823   0.516
    4POM   O134  134   3.071   0.959   0.482
    4POM   C135  135   3.082   1.052   0.583
    4POM   C136  136   3.064   1.026   0.720
    4POM   C137  137   3.078   1.127   0.815
    4POM   C138  138   3.112   1.258   0.777
    4POM   C139  139   3.136   1.358   0.882
    4POM   C140  140   3.253   1.435   0.882
    4POM   C141  141   3.276   1.531   0.980
    4POM   C142  142   3.182   1.553   1.080
    4POM   C143  143   3.065   1.476   1.085
    4POM   C144  144   2.970   1.492   1.196
    4POM   O145  145   2.925   1.392   1.249
    4POM   C146  146   3.043   1.378   0.986
    4POM   C147  147   3.127   1.287   0.639
    4POM   C148  148   3.157   1.423   0.589
    4POM   C149  149   3.270   1.446   0.510
    4POM   C150  150   3.306   1.577   0.475
    4POM   C151  151   3.229   1.687   0.516
    4POM   C152  152   3.268   1.831   0.489
    4POM   C153  153   3.365   1.853   0.372
    4POM   N154  154   3.317   1.892   0.612
    4POM   C155  155   3.112   1.662   0.590
    4POM   C156  156   3.077   1.532   0.626
    4POM   C157  157   3.113   1.183   0.545
    4POM   H158  158   3.039   0.770   0.421
    4POM   H159  159   3.121   0.789   0.582
    4POM   H160  160   2.942   0.825   0.564
    4POM   H161  161   3.039   0.926   0.755
    4POM   H162  162   3.067   1.103   0.920
    4POM   H163  163   3.328   1.419   0.805
    4POM   H164  164   3.369   1.588   0.978
    4POM   H165  165   3.203   1.627   1.157
    4POM   H166  166   2.953   1.318   0.990
    4POM   H167  167   3.333   1.363   0.480
    4POM   H168  168   3.398   1.590   0.418
    4POM   H169  169   3.176   1.884   0.462
    4POM   H170  170   3.379   1.961   0.366
    4POM   H171  171   3.315   1.813   0.283
    4POM   H172  172   3.458   1.801   0.394
    4POM   H173  173   3.255   1.955   0.663
    4POM   H174  174   3.050   1.745   0.623
    4POM   H175  175   2.988   1.515   0.687
    4POM   H176  176   3.124   1.204   0.439
    5CAP   C177  177   3.298   2.829   1.634
    5CAP   O178  178   3.253   2.702   1.584
    5CAP   H179  179   3.404   2.817   1.659
    5CAP   H180  180   3.235   2.853   1.721
    5CAP   H181  181   3.283   2.900   1.552
    6CAP   C182  182   3.705   1.630   0.606
    6CAP   C183  183   3.645   1.742   0.694
    6CAP   C184  184   3.630   1.687   0.837
    6CAP   C185  185   3.739   1.864   0.689
    6CAP   O186  186   3.518   1.768   0.631
    6CAP   C187  187   3.434   1.864   0.677
    6CAP   O188  188   3.449   1.932   0.777
    6CAP   H189  189   3.803   1.605   0.649
    6CAP   H190  190   3.635   1.547   0.610
    6CAP   H191  191   3.714   1.672   0.506
    6CAP   H192  192   3.557   1.607   0.831
    6CAP   H193  193   3.597   1.770   0.900
    6CAP   H194  194   3.729   1.652   0.867
    6CAP   H195  195   3.736   1.900   0.586
    6CAP   H196  196   3.701   1.937   0.760
    6CAP   H197  197   3.838   1.828   0.717
    7TCM     c1  198   4.239   0.347   2.801
    7TCM    cl1  199   4.409   0.363   2.745
    7TCM    cl2  200   4.232   0.372   2.978
    7TCM     h1  201   4.177   0.422   2.751
    7TCM    cl3  202   4.177   0.183   2.762
    8TCM     c1  203   1.852   2.504   3.941
    8TCM    cl1  204   1.738   2.435   3.820
    8TCM    cl2  205   1.903   2.373   4.053
    8TCM     h1  206   1.939   2.546   3.890
    8TCM    cl3  207   1.771   2.634   4.035
    9TCM     c1  208   1.659   2.273   0.580
    9TCM    cl1  209   1.483   2.272   0.543
    9TCM    cl2  210   1.707   2.113   0.644
    9TCM     h1  211   1.716   2.295   0.488
    9TCM    cl3  212   1.694   2.400   0.702
   10TCM     c1  213   2.683   0.443   3.646
   10TCM    cl1  214   2.777   0.320   3.554
   10TCM    cl2  215   2.510   0.433   3.600
   10TCM     h1  216   2.694   0.424   3.753
   10TCM    cl3  217   2.745   0.606   3.605
   11TCM     c1  218   2.004   1.719   2.666
   11TCM    cl1  219   2.032   1.542   2.679
   11TCM    cl2  220   1.994   1.765   2.493
   11TCM     h1  221   1.911   1.745   2.716
   11TCM    cl3  222   2.141   1.807   2.742
   12TCM     c1  223   0.117   1.171   0.168
   12TCM    cl1  224  -0.024   1.145   0.276
   12TCM    cl2  225   0.248   1.055   0.210
   12TCM     h1  226   0.087   1.156   0.064
   12TCM    cl3  227   0.178   1.338   0.189
   13TCM     c1  228   2.771   0.788   2.490
   13TCM    cl1  229   2.763   0.916   2.365
   13TCM    cl2  230   2.767   0.627   2.412
   13TCM     h1  231   2.863   0.799   2.548
   13TCM    cl3  232   2.629   0.805   2.599
   14TCM     c1  233   3.517   3.892   4.461
   14TCM    cl1  234   3.345   3.856   4.497
   14TCM    cl2  235   3.529   3.962   4.297
   14TCM     h1  236   3.556   3.964   4.535
   14TCM    cl3  237   3.613   3.741   4.469
   15TCM     c1  238   0.412   3.964   3.319
   15TCM    cl1  239   0.256   3.944   3.234
   15TCM    cl2  240   0.503   3.809   3.315
   15TCM     h1  241   0.471   4.042   3.271
   15TCM    cl3  242   0.381   4.008   3.490
   16TCM     c1  243   3.696   1.199   2.566
   16TCM    cl1  244   3.854   1.126   2.612
   16TCM    cl2  245   3.640   1.130   2.411
   16TCM     h1  246   3.622   1.179   2.644
   16TCM    cl3  247   3.716   1.376   2.547
   17TCM     c1  248   4.800   2.960   4.393
   17TCM    cl1  249   4.851   2.789   4.379
   17TCM    cl2  250   4.811   3.010   4.565
   17TCM     h1  251   4.866   3.023   4.333
   17TCM    cl3  252   4.631   2.976   4.337
   18TCM     c1  253   0.271   2.601   1.230
   18TCM    cl1  254   0.256   2.577   1.053
   18TCM    cl2  255   0.158   2.490   1.314
   18TCM     h1  256   0.374   2.579   1.262
   18TCM    cl3  257   0.230   2.770   1.271
   19TCM     c1  258   1.214   1.839   2.093
   19TCM    cl1  259   1.253   1.919   2.249
   19TCM    cl2  260   1.330   1.705   2.065
   19TCM     h1  261   1.112   1.800   2.097
   19TCM    cl3  262   1.229   1.959   1.961
   20TCM     c1  263   4.262   4.241   0.552
   20TCM    cl1  264   4.184   4.180   0.403
   20TCM    cl2  265   4.136   4.309   0.661
   20TCM     h1  266   4.313   4.158   0.603
   20TCM    cl3  267   4.381   4.369   0.510
   21TCM     c1  268   2.430   0.058   3.662
   21TCM    cl1  269   2.279   0.155   3.666
   21TCM    cl2  270   2.542   0.118   3.787
   21TCM     h1  271   2.406  -0.047   3.681
   21TCM    cl3  272   2.506   0.075   3.501
   22TCM     c1  273   2.614   1.703   2.702
   22TCM    cl1  274   2.579   1.564   2.810
   22TCM    cl2  275   2.679   1.642   2.546
   22TCM     h1  276   2.522   1.760   2.684
   22TCM    cl3  277   2.737   1.808   2.778
   23TCM     c1  278   0.645   2.743   4.687
   23TCM    cl1  279   0.814   2.719   4.632
   23TCM    cl2  280   0.554   2.835   4.562
   23TCM     h1  281   0.597   2.646   4.703
   23TCM    cl3  282   0.646   2.837   4.840
   24TCM     c1  283   4.320   3.218   1.823
   24TCM    cl1  284   4.229   3.115   1.708
   24TCM    cl2  285   4.456   3.124   1.893
   24TCM     h1  286   4.359   3.306   1.770
   24TCM    cl3  287   4.211   3.272   1.955
   25TCM     c1  288   0.076   3.776   4.859
   25TCM    cl1  289   0.140   3.820   4.697
   25TCM    cl2  290   0.172   3.860   4.985
   25TCM     h1  291  -0.029   3.807   4.866
   25TCM    cl3  292   0.088   3.599   4.882
   26TCM     c1  293   2.072   0.817   3.115
   26TCM    cl1  294   2.092   0.639   3.125
   26TCM    cl2  295   2.223   0.890   3.054
   26TCM     h1  296   1.990   0.840   3.047
   26TCM    cl3  297   2.034   0.881   3.278
   27TCM     c1  298   0.956   1.711   2.438
   27TCM    cl1  299   0.908   1.846   2.329
   27TCM    cl2  300   1.038   1.779   2.582
   27TCM     h1  301   0.867   1.656   2.469
   27TCM    cl3  302   1.068   1.601   2.351
   28TCM     c1  303   3.012   4.675   4.587
   28TCM    cl1  304   2.921   4.663   4.741
   28TCM    cl2  305   3.007   4.519   4.501
   28TCM     h1  306   2.968   4.753   4.525
   28TCM    cl3  307   3.183   4.717   4.624
   29TCM     c1  308   2.554   2.054   1.913
   29TCM    cl1  309   2.486   1.896   1.862
   29TCM    cl2  310   2.555   2.062   2.092
   29TCM     h1  311   2.656   2.064   1.875
   29TCM    cl3  312   2.451   2.186   1.849
   30TCM     c1  313   2.451   2.259   4.916
   30TCM    cl1  314   2.369   2.178   4.778
   30TCM    cl2  315   2.459   2.146   5.055
   30TCM     h1  316   2.552   2.288   4.886
   30TCM    cl3  317   2.358   2.406   4.962
   31TCM     c1  318   4.696   4.924   0.919
   31TCM    cl1  319   4.754   4.791   1.025
   31TCM    cl2  320   4.719   5.081   1.002
   31TCM     h1  321   4.752   4.923   0.825
   31TCM    cl3  322   4.522   4.899   0.884
   32TCM     c1  323   1.592   2.295   4.280
   32TCM    cl1  324   1.533   2.335   4.116
   32TCM    cl2  325   1.466   2.200   4.366
   32TCM     h1  326   1.684   2.236   4.273
   32TCM    cl3  327   1.625   2.446   4.371
   33TCM     c1  328   3.615   2.913   1.886
   33TCM    cl1  329   3.454   2.891   1.963
   33TCM    cl2  330   3.608   3.050   1.771
   33TCM     h1  331   3.689   2.933   1.964
   33TCM    cl3  332   3.660   2.763   1.798
   34TCM     c1  333   1.013   0.862   3.513
   34TCM    cl1  334   1.048   0.775   3.666
   34TCM    cl2  335   1.026   1.039   3.542
   34TCM     h1  336   1.085   0.832   3.437
   34TCM    cl3  337   0.847   0.822   3.459
   35TCM     c1  338   0.605   0.187   3.892
   35TCM    cl1  339   0.436   0.189   3.954
   35TCM    cl2  340   0.660   0.017   3.877
   35TCM     h1  341   0.609   0.236   3.794
   35TCM    cl3  342   0.710   0.275   4.007
   36TCM     c1  343   2.669   3.532   3.394
   36TCM    cl1  344   2.684   3.411   3.526
   36TCM    cl2  345   2.559   3.663   3.447
   36TCM     h1  346   2.768   3.574   3.371
   36TCM    cl3  347   2.601   3.452   3.249
   37TCM     c1  348   0.317   0.783   2.457
   37TCM    cl1  349   0.187   0.871   2.544
   37TCM    cl2  350   0.279   0.784   2.281
   37TCM     h1  351   0.413   0.832   2.474
   37TCM    cl3  352   0.324   0.614   2.516
   38TCM     c1  353   4.779   2.019   2.007
   38TCM    cl1  354   4.907   2.044   1.883
   38TCM    cl2  355   4.699   1.861   1.979
   38TCM     h1  356   4.824   2.019   2.106
   38TCM    cl3  357   4.658   2.150   1.995
   39TCM     c1  358   1.195   3.209   2.254
   39TCM    cl1  359   1.097   3.331   2.167
   39TCM    cl2  360   1.164   3.047   2.182
   39TCM     h1  361   1.301   3.234   2.244
   39TCM    cl3  362   1.149   3.207   2.427
   40TCM     c1  363   3.644   1.398   2.155
   40TCM    cl1  364   3.734   1.545   2.206
   40TCM    cl2  365   3.633   1.398   1.976
   40TCM     h1  366   3.697   1.309   2.188
   40TCM    cl3  367   3.480   1.402   2.226
   41TCM     c1  368   0.729   1.983   1.932
   41TCM    cl1  369   0.648   2.005   2.090
   41TCM    cl2  370   0.612   1.913   1.815
   41TCM     h1  371   0.765   2.079   1.895
   41TCM    cl3  372   0.867   1.870   1.952
   42TCM     c1  373   2.014   3.524   1.687
   42TCM    cl1  374   1.973   3.367   1.764
   42TCM    cl2  375   1.950   3.523   1.519
   42TCM     h1  376   1.969   3.605   1.743
   42TCM    cl3  377   2.192   3.545   1.683
   43TCM     c1  378   0.478   4.369   0.713
   43TCM    cl1  379   0.624   4.283   0.655
   43TCM    cl2  380   0.521   4.478   0.849
   43TCM     h1  381   0.435   4.428   0.631
   43TCM    cl3  382   0.357   4.249   0.769
   44TCM     c1  383   0.129   1.134   4.615
   44TCM    cl1  384   0.292   1.203   4.588
   44TCM    cl2  385   0.092   1.141   4.790
   44TCM     h1  386   0.055   1.191   4.559
   44TCM    cl3  387   0.127   0.963   4.560
   45TCM     c1  388   1.353   3.584   4.669
   45TCM    cl1  389   1.440   3.726   4.603
   45TCM    cl2  390   1.376   3.444   4.558
   45TCM     h1  391   1.393   3.559   4.768
   45TCM    cl3  392   1.178   3.622   4.682
   46TCM     c1  393   0.301   0.644   4.518
   46TCM    cl1  394   0.130   0.597   4.491
   46TCM    cl2  395   0.409   0.517   4.451
   46TCM     h1  396   0.321   0.739   4.468
   46TCM    cl3  397   0.330   0.662   4.694
   47TCM     c1  398   1.022   4.399   1.840
   47TCM    cl1  399   0.906   4.385   1.976
   47TCM    cl2  400   1.158   4.505   1.890
   47TCM     h1  401   1.060   4.301   1.813
   47TCM    cl3  402   0.938   4.472   1.699
   48TCM     c1  403   3.303   3.892   4.866
   48TCM    cl1  404   3.349   3.807   5.018
   48TCM    cl2  405   3.435   4.002   4.816
   48TCM     h1  406   3.285   3.818   4.787
   48TCM    cl3  407   3.154   3.986   4.894
   49TCM     c1  408   1.476   1.547   1.379
   49TCM    cl1  409   1.298   1.531   1.361
   49TCM    cl2  410   1.523   1.717   1.349
   49TCM     h1  411   1.505   1.518   1.480
   49TCM    cl3  412   1.557   1.441   1.260
   50TCM     c1  413   3.132   0.566   2.196
   50TCM    cl1  414   3.005   0.683   2.149
   50TCM    cl2  415   3.108   0.515   2.367
   50TCM     h1  416   3.128   0.478   2.131
   50TCM    cl3  417   3.292   0.644   2.180
   51TCM     c1  418   0.131   0.668   1.963
   51TCM    cl1  419   0.302   0.697   1.917
   51TCM    cl2  420   0.062   0.538   1.860
   51TCM     h1  421   0.125   0.639   2.068
   51TCM    cl3  422   0.038   0.820   1.938
   52TCM     c1  423   3.939   2.561   0.621
   52TCM    cl1  424   3.952   2.737   0.653
   52TCM    cl2  425   3.978   2.530   0.448
   52TCM     h1  426   4.011   2.507   0.684
   52TCM    cl3  427   3.773   2.503   0.656
   53TCM     c1  428   3.731   4.976   0.566
   53TCM    cl1  429   3.795   4.867   0.438
   53TCM    cl2  430   3.816   4.942   0.721
   53TCM     h1  431   3.748   5.080   0.538
   53TCM    cl3  432   3.555   4.946   0.587
   54TCM     c1  433   4.961   1.589   3.044
   54TCM    cl1  434   5.116   1.649   3.109
   54TCM    cl2  435   4.944   1.415   3.086
   54TCM     h1  436   4.878   1.646   3.088
   54TCM    cl3  437   4.959   1.607   2.866
   55TCM     c1  438   1.965   3.121   2.364
   55TCM    cl1  439   1.875   3.203   2.496
   55TCM    cl2  440   1.889   2.962   2.331
   55TCM     h1  441   1.962   3.183   2.274
   55TCM    cl3  442   2.135   3.097   2.414
   56TCM     c1  443   0.371   0.050   4.692
   56TCM    cl1  444   0.326  -0.014   4.531
   56TCM    cl2  445   0.538  -0.003   4.732
   56TCM     h1  446   0.366   0.159   4.691
   56TCM    cl3  447   0.260  -0.015   4.817
   57TCM     c1  448   4.763   0.548   4.394
   57TCM    cl1  449   4.612   0.482   4.323
   57TCM    cl2  450   4.756   0.532   4.573
   57TCM     h1  451   4.848   0.491   4.356
   57TCM    cl3  452   4.782   0.720   4.350
   58TCM     c1  453   3.700   4.465   1.313
   58TCM    cl1  454   3.814   4.562   1.215
   58TCM    cl2  455   3.776   4.425   1.471
   58TCM     h1  456   3.608   4.522   1.330
   58TCM    cl3  457   3.661   4.312   1.226
   59TCM     c1  458   4.393   4.260   4.793
   59TCM    cl1  459   4.479   4.229   4.947
   59TCM    cl2  460   4.285   4.402   4.813
   59TCM     h1  461   4.465   4.280   4.714
   59TCM    cl3  462   4.294   4.117   4.749
   60TCM     c1  463   3.638   3.939   1.403
   60TCM    cl1  464   3.756   3.923   1.269
   60TCM    cl2  465   3.478   3.982   1.336
   60TCM     h1  466   3.631   3.844   1.458
   60TCM    cl3  467   3.692   4.069   1.514
   61TCM     c1  468   3.631   3.860   3.248
   61TCM    cl1  469   3.637   3.846   3.427
   61TCM    cl2  470   3.799   3.865   3.185
   61TCM     h1  471   3.578   3.774   3.207
   61TCM    cl3  472   3.546   4.011   3.201
   62TCM     c1  473   0.145   0.910   3.236
   62TCM    cl1  474   0.249   0.775   3.179
   62TCM    cl2  475  -0.024   0.850   3.256
   62TCM     h1  476   0.182   0.946   3.332
   62TCM    cl3  477   0.147   1.045   3.117
   63TCM     c1  478   2.724   2.265   2.503
   63TCM    cl1  479   2.706   2.148   2.638
   63TCM    cl2  480   2.750   2.430   2.569
   63TCM     h1  481   2.809   2.237   2.440
   63TCM    cl3  482   2.574   2.263   2.404
   64TCM     c1  483   3.530   2.157   2.362
   64TCM    cl1  484   3.459   2.314   2.411
   64TCM    cl2  485   3.679   2.186   2.267
   64TCM     h1  486   3.554   2.098   2.451
   64TCM    cl3  487   3.410   2.067   2.262
   65TCM     c1  488   4.859   0.629   2.321
   65TCM    cl1  489   4.969   0.567   2.448
   65TCM    cl2  490   4.864   0.521   2.178
   65TCM     h1  491   4.757   0.634   2.360
   65TCM    cl3  492   4.913   0.793   2.272
   66TCM     c1  493   0.520   0.120   2.874
   66TCM    cl1  494   0.381   0.029   2.941
   66TCM    cl2  495   0.472   0.291   2.847
   66TCM     h1  496   0.604   0.117   2.944
   66TCM    cl3  497   0.570   0.045   2.719
   67TCM     c1  498   0.136   3.571   0.889
   67TCM    cl1  499  -0.034   3.513   0.898
   67TCM    cl2  500   0.183   3.596   0.718
   67TCM     h1  501   0.145   3.665   0.943
   67TCM    cl3  502   0.244   3.448   0.964
   68TCM     c1  503   1.029   3.324   0.725
   68TCM    cl1  504   0.913   3.441   0.654
   68TCM    cl2  505   0.942   3.223   0.845
   68TCM     h1  506   1.071   3.261   0.647
   68TCM    cl3  507   1.162   3.414   0.807
   69TCM     c1  508   2.854   4.235   4.044
   69TCM    cl1  509   2.803   4.271   4.212
   69TCM    cl2  510   2.713   4.173   3.953
   69TCM     h1  511   2.891   4.327   3.997
   69TCM    cl3  512   2.983   4.111   4.045
   70TCM     c1  513   4.726   1.398   0.017
   70TCM    cl1  514   4.717   1.506  -0.126
   70TCM    cl2  515   4.839   1.468   0.138
   70TCM     h1  516   4.627   1.388   0.062
   70TCM    cl3  517   4.787   1.237  -0.032
   71TCM     c1  518   2.286   4.741   4.358
   71TCM    cl1  519   2.145   4.742   4.247
   71TCM    cl2  520   2.285   4.892   4.455
   71TCM     h1  521   2.279   4.654   4.425
   71TCM    cl3  522   2.438   4.732   4.263
   72TCM     c1  523   3.562   3.793   1.828
   72TCM    cl1  524   3.516   3.624   1.869
   72TCM    cl2  525   3.441   3.864   1.717
   72TCM     h1  526   3.568   3.853   1.919
   72TCM    cl3  527   3.722   3.792   1.746
   73TCM     c1  528   0.699   0.025   3.425
   73TCM    cl1  529   0.640   0.159   3.529
   73TCM    cl2  530   0.661  -0.131   3.505
   73TCM     h1  531   0.649   0.029   3.328
   73TCM    cl3  532   0.876   0.040   3.402
   74TCM     c1  533   0.650   1.433   2.712
   74TCM    cl1  534   0.623   1.274   2.791
   74TCM    cl2  535   0.574   1.432   2.550
   74TCM     h1  536   0.606   1.512   2.773
   74TCM    cl3  537   0.826   1.462   2.694
   75TCM     c1  538   0.962   0.743   2.189
   75TCM    cl1  539   1.140   0.722   2.189
   75TCM    cl2  540   0.883   0.588   2.147
   75TCM     h1  541   0.929   0.774   2.289
   75TCM    cl3  542   0.914   0.868   2.070
   76TCM     c1  543   2.813   0.958   3.601
   76TCM    cl1  544   2.703   0.991   3.463
   76TCM    cl2  545   2.719   0.933   3.752
   76TCM     h1  546   2.873   0.868   3.580
   76TCM    cl3  547   2.922   1.098   3.626
   77TCM     c1  548   4.608   4.517   0.803
   77TCM    cl1  549   4.430   4.529   0.825
   77TCM    cl2  550   4.658   4.624   0.668
   77TCM     h1  551   4.658   4.547   0.895
   77TCM    cl3  552   4.652   4.348   0.763
   78TCM     c1  553   0.361   4.472   0.304
   78TCM    cl1  554   0.529   4.417   0.274
   78TCM    cl2  555   0.365   4.633   0.382
   78TCM     h1  556   0.306   4.477   0.210
   78TCM    cl3  557   0.280   4.355   0.414
   79TCM     c1  558   2.362   3.340   1.939
   79TCM    cl1  559   2.517   3.283   2.010
   79TCM    cl2  560   2.240   3.358   2.069
   79TCM     h1  561   2.378   3.437   1.890
   79TCM    cl3  562   2.305   3.220   1.819
   80TCM     c1  563   0.335   3.101   0.716
   80TCM    cl1  564   0.324   3.002   0.566
   80TCM    cl2  565   0.382   2.996   0.853
   80TCM     h1  566   0.410   3.180   0.703
   80TCM    cl3  567   0.175   3.175   0.749
   81TCM     c1  568   3.077   3.463   0.752
   81TCM    cl1  569   3.169   3.572   0.643
   81TCM    cl2  570   3.127   3.494   0.922
   81TCM     h1  571   2.970   3.482   0.741
   81TCM    cl3  572   3.113   3.293   0.710
   82TCM     c1  573   3.139   2.954   4.768
   82TCM    cl1  574   2.998   2.910   4.666
   82TCM    cl2  575   3.145   2.845   4.911
   82TCM     h1  576   3.231   2.943   4.710
   82TCM    cl3  577   3.121   3.124   4.823
   83TCM     c1  578   1.040   1.398   1.919
   83TCM    cl1  579   1.207   1.429   1.861
   83TCM    cl2  580   0.984   1.539   2.013
   83TCM     h1  581   0.974   1.382   1.834
   83TCM    cl3  582   1.040   1.253   2.024
   84TCM     c1  583   2.000   2.520   4.803
   84TCM    cl1  584   1.861   2.560   4.697
   84TCM    cl2  585   2.140   2.622   4.757
   84TCM     h1  586   1.973   2.537   4.907
   84TCM    cl3  587   2.043   2.347   4.779
   85TCM     c1  588   2.086   3.953   3.897
   85TCM    cl1  589   2.104   4.024   4.061
   85TCM    cl2  590   2.043   4.082   3.780
   85TCM     h1  591   2.180   3.906   3.867
   85TCM    cl3  592   1.956   3.830   3.899
   86TCM     c1  593   0.642   0.293   4.899
   86TCM    cl1  594   0.520   0.378   4.799
   86TCM    cl2  595   0.572   0.251   5.058
   86TCM     h1  596   0.673   0.201   4.848
   86TCM    cl3  597   0.785   0.399   4.921
   87TCM     c1  598   0.853   0.422   2.723
   87TCM    cl1  599   0.851   0.266   2.812
   87TCM    cl2  600   0.857   0.556   2.842
   87TCM     h1  601   0.942   0.426   2.659
   87TCM    cl3  602   0.707   0.436   2.619
   88TCM     c1  603   4.555   2.999   3.124
   88TCM    cl1  604   4.485   2.900   3.256
   88TCM    cl2  605   4.547   2.907   2.969
   88TCM     h1  606   4.498   3.092   3.114
   88TCM    cl3  607   4.726   3.037   3.163
   89TCM     c1  608   3.073   4.764   0.158
   89TCM    cl1  609   3.169   4.714   0.014
   89TCM    cl2  610   2.906   4.802   0.106
   89TCM     h1  611   3.072   4.683   0.231
   89TCM    cl3  612   3.148   4.910   0.229
   90TCM     c1  613   1.919   0.188   3.565
   90TCM    cl1  614   2.002   0.346   3.550
   90TCM    cl2  615   1.980   0.076   3.439
   90TCM     h1  616   1.939   0.146   3.664
   90TCM    cl3  617   1.743   0.210   3.543
   91TCM     c1  618   0.781   0.700   4.093
   91TCM    cl1  619   0.787   0.627   3.929
   91TCM    cl2  620   0.800   0.573   4.218
   91TCM     h1  621   0.861   0.774   4.104
   91TCM    cl3  622   0.622   0.779   4.116
   92TCM     c1  623   1.932   0.213   2.358
   92TCM    cl1  624   1.892   0.377   2.419
   92TCM    cl2  625   1.781   0.126   2.318
   92TCM     h1  626   1.995   0.222   2.269
   92TCM    cl3  627   2.020   0.123   2.486
   93TCM     c1  628   1.043   1.230   2.384
   93TCM    cl1  629   1.117   1.263   2.544
   93TCM    cl2  630   0.872   1.287   2.384
   93TCM     h1  631   1.098   1.282   2.307
   93TCM    cl3  632   1.045   1.054   2.352
   94TCM     c1  633   1.198   1.776   0.097
   94TCM    cl1  634   1.341   1.692   0.167
   94TCM    cl2  635   1.057   1.664   0.099
   94TCM     h1  636   1.175   1.864   0.157
   94TCM    cl3  637   1.233   1.827  -0.071
   95TCM     c1  638   4.088   2.872   1.943
   95TCM    cl1  639   3.961   2.999   1.943
   95TCM    cl2  640   4.011   2.712   1.970
   95TCM     h1  641   4.140   2.872   1.847
   95TCM    cl3  642   4.206   2.904   2.074
   96TCM     c1  643   2.981   4.567   1.317
   96TCM    cl1  644   3.022   4.647   1.162
   96TCM    cl2  645   3.082   4.419   1.336
   96TCM     h1  646   3.001   4.635   1.400
   96TCM    cl3  647   2.807   4.522   1.318
   97TCM     c1  648   4.147   2.469   3.076
   97TCM    cl1  649   4.221   2.607   3.163
   97TCM    cl2  650   4.006   2.408   3.170
   97TCM     h1  651   4.114   2.501   2.977
   97TCM    cl3  652   4.267   2.337   3.059
   98TCM     c1  653   4.184   0.719   3.579
   98TCM    cl1  654   4.209   0.560   3.657
   98TCM    cl2  655   4.012   0.736   3.532
   98TCM     h1  656   4.210   0.799   3.650
   98TCM    cl3  657   4.287   0.731   3.433
   99TCM     c1  658   4.046   0.765   3.114
   99TCM    cl1  659   4.111   0.931   3.095
   99TCM    cl2  660   4.043   0.684   2.954
   99TCM     h1  661   4.109   0.708   3.183
   99TCM    cl3  662   3.878   0.773   3.179
  100TCM     c1  663   1.817   0.347   3.137
  100TCM    cl1  664   1.983   0.281   3.129
  100TCM    cl2  665   1.803   0.459   3.277
  100TCM     h1  666   1.794   0.401   3.045
  100TCM    cl3  667   1.700   0.212   3.158
  101TCM     c1  668   0.155   4.353   3.521
  101TCM    cl1  669   0.206   4.313   3.353
  101TCM    cl2  670   0.300   4.382   3.622
  101TCM     h1  671   0.092   4.442   3.520
  101TCM    cl3  672   0.064   4.214   3.589
  102TCM     c1  673   0.241   1.628   4.863
  102TCM    cl1  674   0.085   1.541   4.882
  102TCM    cl2  675   0.339   1.546   4.738
  102TCM     h1  676   0.222   1.731   4.832
  102TCM    cl3  677   0.329   1.627   5.019
  103TCM     c1  678   0.969   0.055   4.804
  103TCM    cl1  679   0.856  -0.001   4.932
  103TCM    cl2  680   1.082   0.174   4.876
  103TCM     h1  681   1.026  -0.030   4.765
  103TCM    cl3  682   0.877   0.132   4.671
  104TCM     c1  683   0.658   2.151   0.929
  104TCM    cl1  684   0.614   2.027   1.051
  104TCM    cl2  685   0.740   2.072   0.791
  104TCM     h1  686   0.567   2.201   0.894
  104TCM    cl3  687   0.767   2.271   1.005
  105TCM     c1  688   4.462   1.700   2.487
  105TCM    cl1  689   4.300   1.756   2.434
  105TCM    cl2  690   4.546   1.623   2.349
  105TCM     h1  691   4.520   1.785   2.524
  105TCM    cl3  692   4.441   1.580   2.619
  106TCM     c1  693   2.660   1.223   2.543
  106TCM    cl1  694   2.504   1.312   2.534
  106TCM    cl2  695   2.736   1.250   2.703
  106TCM     h1  696   2.642   1.116   2.529
  106TCM    cl3  697   2.770   1.283   2.414
  107TCM     c1  698   2.809   0.374   2.778
  107TCM    cl1  699   2.953   0.270   2.756
  107TCM    cl2  700   2.856   0.546   2.755
  107TCM     h1  701   2.733   0.347   2.704
  107TCM    cl3  702   2.744   0.352   2.943
  108TCM     c1  703   2.137   4.423   0.918
  108TCM    cl1  704   2.199   4.590   0.895
  108TCM    cl2  705   2.084   4.357   0.760
  108TCM     h1  706   2.216   4.360   0.959
  108TCM    cl3  707   1.998   4.427   1.031
  109TCM     c1  708   0.300   3.377   3.970
  109TCM    cl1  709   0.183   3.513   3.961
  109TCM    cl2  710   0.387   3.364   3.814
  109TCM     h1  711   0.372   3.396   4.050
  109TCM    cl3  712   0.213   3.224   4.003
  110TCM     c1  713   2.359   4.896   1.671
  110TCM    cl1  714   2.223   4.962   1.574
  110TCM    cl2  715   2.360   4.973   1.833
  110TCM     h1  716   2.347   4.788   1.682
  110TCM    cl3  717   2.514   4.932   1.589
  111TCM     c1  718   2.668   4.764   3.549
  111TCM    cl1  719   2.511   4.697   3.604
  111TCM    cl2  720   2.767   4.633   3.477
  111TCM     h1  721   2.650   4.841   3.473
  111TCM    cl3  722   2.754   4.835   3.689
  112TCM     c1  723   3.437   3.418   4.825
  112TCM    cl1  724   3.412   3.573   4.738
  112TCM    cl2  725   3.316   3.405   4.958
  112TCM     h1  726   3.425   3.334   4.756
  112TCM    cl3  727   3.601   3.415   4.896
  113TCM     c1  728   1.381   0.096   4.448
  113TCM    cl1  729   1.251   0.092   4.572
  113TCM    cl2  730   1.339  -0.018   4.316
  113TCM     h1  731   1.389   0.197   4.407
  113TCM    cl3  732   1.537   0.048   4.522
  114TCM     c1  733   3.225   3.494   1.678
  114TCM    cl1  734   3.156   3.629   1.774
  114TCM    cl2  735   3.333   3.561   1.552
  114TCM     h1  736   3.282   3.428   1.744
  114TCM    cl3  737   3.092   3.403   1.599
  115TCM     c1  738   4.976   2.409   1.927
  115TCM    cl1  739   4.819   2.496   1.918
  115TCM    cl2  740   4.992   2.328   2.086
  115TCM     h1  741   4.982   2.334   1.847
  115TCM    cl3  742   5.111   2.526   1.908
  116TCM     c1  743   1.838   0.691   3.555
  116TCM    cl1  744   1.721   0.770   3.444
  116TCM    cl2  745   1.749   0.580   3.664
  116TCM     h1  746   1.912   0.634   3.498
  116TCM    cl3  747   1.921   0.816   3.653
  117TCM     c1  748   1.686   4.850   3.641
  117TCM    cl1  749   1.520   4.792   3.675
  117TCM    cl2  750   1.793   4.710   3.607
  117TCM     h1  751   1.685   4.917   3.554
  117TCM    cl3  752   1.749   4.939   3.784
  118TCM     c1  753   1.455   2.997   3.279
  118TCM    cl1  754   1.518   3.041   3.441
  118TCM    cl2  755   1.359   2.846   3.292
  118TCM     h1  756   1.393   3.078   3.240
  118TCM    cl3  757   1.593   2.969   3.167
  119TCM     c1  758   4.661   2.150   2.366
  119TCM    cl1  759   4.841   2.144   2.366
  119TCM    cl2  760   4.602   2.198   2.529
  119TCM     h1  761   4.626   2.221   2.292
  119TCM    cl3  762   4.599   1.986   2.327
  120TCM     c1  763   2.326   1.142   1.668
  120TCM    cl1  764   2.323   1.184   1.842
  120TCM    cl2  765   2.474   1.047   1.633
  120TCM     h1  766   2.238   1.083   1.642
  120TCM    cl3  767   2.327   1.294   1.571
  121TCM     c1  768   1.276   0.070   3.495
  121TCM    cl1  769   1.434   0.037   3.415
  121TCM    cl2  770   1.199   0.211   3.415
  121TCM     h1  771   1.211  -0.018   3.486
  121TCM    cl3  772   1.304   0.106   3.669
  122TCM     c1  773   4.267   4.080   2.734
  122TCM    cl1  774   4.191   3.917   2.737
  122TCM    cl2  775   4.444   4.062   2.759
  122TCM     h1  776   4.248   4.128   2.638
  122TCM    cl3  777   4.200   4.181   2.867
  123TCM     c1  778   4.427   0.984   3.876
  123TCM    cl1  779   4.266   1.040   3.819
  123TCM    cl2  780   4.546   1.117   3.861
  123TCM     h1  781   4.420   0.952   3.980
  123TCM    cl3  782   4.479   0.846   3.773
  124TCM     c1  783   3.542   1.691   2.486
  124TCM    cl1  784   3.643   1.831   2.436
  124TCM    cl2  785   3.373   1.717   2.433
  124TCM     h1  786   3.581   1.600   2.440
  124TCM    cl3  787   3.548   1.677   2.664
  125TCM     c1  788   4.862   3.932   3.357
  125TCM    cl1  789   4.718   3.970   3.458
  125TCM    cl2  790   4.993   3.873   3.464
  125TCM     h1  791   4.837   3.856   3.284
  125TCM    cl3  792   4.915   4.082   3.273
  126TCM     c1  793   0.233   1.798   0.339
  126TCM    cl1  794   0.214   1.974   0.308
  126TCM    cl2  795   0.089   1.710   0.279
  126TCM     h1  796   0.322   1.761   0.287
  126TCM    cl3  797   0.250   1.771   0.515
  127TCM     c1  798   3.380   1.726   3.306
  127TCM    cl1  799   3.370   1.732   3.127
  127TCM    cl2  800   3.415   1.558   3.359
  127TCM     h1  801   3.460   1.793   3.341
  127TCM    cl3  802   3.224   1.780   3.376
  128TCM     c1  803   1.402   2.360   2.633
  128TCM    cl1  804   1.518   2.300   2.756
  128TCM    cl2  805   1.427   2.537   2.611
  128TCM     h1  806   1.420   2.309   2.538
  128TCM    cl3  807   1.234   2.331   2.687
  129TCM     c1  808   0.253   2.713   4.935
  129TCM    cl1  809   0.315   2.667   5.097
  129TCM    cl2  810   0.334   2.614   4.810
  129TCM     h1  811   0.145   2.696   4.932
  129TCM    cl3  812   0.287   2.887   4.907
  130TCM     c1  813   0.626   4.593   4.968
  130TCM    cl1  814   0.480   4.689   5.010
  130TCM    cl2  815   0.716   4.679   4.839
  130TCM     h1  816   0.690   4.581   5.056
  130TCM    cl3  817   0.574   4.432   4.907
  131TCM     c1  818   4.689   4.567   4.871
  131TCM    cl1  819   4.798   4.434   4.923
  131TCM    cl2  820   4.558   4.587   4.993
  131TCM     h1  821   4.745   4.660   4.863
  131TCM    cl3  822   4.618   4.527   4.711
  132TCM     c1  823   0.591   1.395   0.393
  132TCM    cl1  824   0.555   1.245   0.301
  132TCM    cl2  825   0.578   1.363   0.569
  132TCM     h1  826   0.692   1.429   0.370
  132TCM    cl3  827   0.473   1.523   0.348
  133TCM     c1  828   2.396   0.421   3.204
  133TCM    cl1  829   2.304   0.318   3.319
  133TCM    cl2  830   2.384   0.352   3.039
  133TCM     h1  831   2.355   0.522   3.204
  133TCM    cl3  832   2.569   0.427   3.254
  134TCM     c1  833   0.368   1.302   3.258
  134TCM    cl1  834   0.435   1.459   3.314
  134TCM    cl2  835   0.312   1.208   3.400
  134TCM     h1  836   0.284   1.320   3.190
  134TCM    cl3  837   0.496   1.209   3.173
  135TCM     c1  838   0.163   4.269   4.932
  135TCM    cl1  839   0.195   4.443   4.905
  135TCM    cl2  840   0.260   4.213   5.072
  135TCM     h1  841   0.057   4.253   4.952
  135TCM    cl3  842   0.213   4.177   4.786
  136TCM     c1  843   4.150   1.262   2.337
  136TCM    cl1  844   4.220   1.124   2.245
  136TCM    cl2  845   3.976   1.277   2.296
  136TCM     h1  846   4.161   1.243   2.444
  136TCM    cl3  847   4.236   1.413   2.292
  137TCM     c1  848   1.320   0.685   1.802
  137TCM    cl1  849   1.145   0.720   1.817
  137TCM    cl2  850   1.410   0.766   1.934
  137TCM     h1  851   1.336   0.577   1.808
  137TCM    cl3  852   1.379   0.746   1.644
  138TCM     c1  853   2.049   1.503   3.233
  138TCM    cl1  854   2.073   1.655   3.325
  138TCM    cl2  855   2.141   1.370   3.311
  138TCM     h1  856   1.942   1.477   3.232
  138TCM    cl3  857   2.106   1.525   3.064
  139TCM     c1  858   2.399   3.202   3.527
  139TCM    cl1  859   2.307   3.316   3.425
  139TCM    cl2  860   2.330   3.037   3.510
  139TCM     h1  861   2.504   3.201   3.496
  139TCM    cl3  862   2.387   3.253   3.699
  140TCM     c1  863   0.652   1.307   3.597
  140TCM    cl1  864   0.670   1.150   3.513
  140TCM    cl2  865   0.794   1.335   3.703
  140TCM     h1  866   0.644   1.388   3.524
  140TCM    cl3  867   0.503   1.303   3.698
  141TCM     c1  868   0.568   4.551   2.016
  141TCM    cl1  869   0.633   4.618   2.170
  141TCM    cl2  870   0.486   4.681   1.924
  141TCM     h1  871   0.650   4.509   1.957
  141TCM    cl3  872   0.449   4.421   2.054
  142TCM     c1  873   3.329   4.024   2.395
  142TCM    cl1  874   3.494   4.032   2.324
  142TCM    cl2  875   3.275   4.189   2.441
  142TCM     h1  876   3.260   3.982   2.321
  142TCM    cl3  877   3.332   3.919   2.540
  143TCM     c1  878   0.190   2.394   3.332
  143TCM    cl1  879   0.145   2.448   3.497
  143TCM    cl2  880   0.366   2.416   3.308
  143TCM     h1  881   0.164   2.288   3.320
  143TCM    cl3  882   0.101   2.491   3.209
  144TCM     c1  883   1.574   3.632   1.683
  144TCM    cl1  884   1.719   3.716   1.747
  144TCM    cl2  885   1.601   3.455   1.694
  144TCM     h1  886   1.486   3.660   1.742
  144TCM    cl3  887   1.551   3.678   1.511
  145TCM     c1  888   1.543   1.520   2.472
  145TCM    cl1  889   1.413   1.642   2.457
  145TCM    cl2  890   1.477   1.372   2.548
  145TCM     h1  891   1.583   1.496   2.373
  145TCM    cl3  892   1.674   1.585   2.576
  146TCM     c1  893   3.562   0.118   3.779
  146TCM    cl1  894   3.562  -0.050   3.716
  146TCM    cl2  895   3.567   0.233   3.642
  146TCM     h1  896   3.470   0.135   3.837
  146TCM    cl3  897   3.704   0.143   3.885
  147TCM     c1  898   0.041   4.511   4.543
  147TCM    cl1  899  -0.078   4.638   4.500
  147TCM    cl2  900   0.133   4.464   4.397
  147TCM     h1  901   0.110   4.549   4.619
  147TCM    cl3  902  -0.046   4.368   4.608
  148TCM     c1  903   0.780   1.739   0.639
  148TCM    cl1  904   0.607   1.773   0.611
  148TCM    cl2  905   0.840   1.632   0.508
  148TCM     h1  906   0.837   1.833   0.640
  148TCM    cl3  907   0.800   1.656   0.797
  149TCM     c1  908   2.571   2.761   0.264
  149TCM    cl1  909   2.480   2.737   0.111
  149TCM    cl2  910   2.456   2.788   0.398
  149TCM     h1  911   2.631   2.672   0.284
  149TCM    cl3  912   2.678   2.904   0.250
  150TCM     c1  913   3.429   1.337   3.057
  150TCM    cl1  914   3.446   1.158   3.052
  150TCM    cl2  915   3.255   1.380   3.066
  150TCM     h1  916   3.481   1.376   3.145
  150TCM    cl3  917   3.500   1.406   2.908
  151TCM     c1  918   3.403   0.332   1.841
  151TCM    cl1  919   3.564   0.399   1.800
  151TCM    cl2  920   3.379   0.339   2.019
  151TCM     h1  921   3.325   0.390   1.791
  151TCM    cl3  922   3.394   0.161   1.787
  152TCM     c1  923   3.792   2.483   1.100
  152TCM    cl1  924   3.801   2.631   0.999
  152TCM    cl2  925   3.939   2.474   1.203
  152TCM     h1  926   3.703   2.487   1.164
  152TCM    cl3  927   3.785   2.338   0.995
  153TCM     c1  928   2.894   4.040   2.509
  153TCM    cl1  929   2.983   4.024   2.664
  153TCM    cl2  930   2.979   3.948   2.380
  153TCM     h1  931   2.792   4.001   2.520
  153TCM    cl3  932   2.888   4.213   2.462
  154TCM     c1  933   4.279   0.920   2.756
  154TCM    cl1  934   4.414   0.969   2.863
  154TCM    cl2  935   4.299   0.747   2.711
  154TCM     h1  936   4.183   0.933   2.808
  154TCM    cl3  937   4.280   1.021   2.607
  155TCM     c1  938   0.841   2.025   4.755
  155TCM    cl1  939   0.956   2.148   4.817
  155TCM    cl2  940   0.934   1.879   4.706
  155TCM     h1  941   0.770   1.998   4.834
  155TCM    cl3  942   0.753   2.090   4.613
  156TCM     c1  943   1.969   4.546   4.733
  156TCM    cl1  944   2.093   4.516   4.859
  156TCM    cl2  945   2.047   4.625   4.593
  156TCM     h1  946   1.924   4.452   4.702
  156TCM    cl3  947   1.843   4.655   4.800
  157TCM     c1  948   2.105   4.858   4.965
  157TCM    cl1  949   2.270   4.815   5.018
  157TCM    cl2  950   2.113   4.918   4.796
  157TCM     h1  951   2.040   4.770   4.970
  157TCM    cl3  952   2.039   4.986   5.072
  158TCM     c1  953   1.969   1.219   2.865
  158TCM    cl1  954   1.800   1.270   2.835
  158TCM    cl2  955   2.009   1.076   2.764
  158TCM     h1  956   2.037   1.301   2.839
  158TCM    cl3  957   1.988   1.177   3.038
  159TCM     c1  958   1.677   2.246   0.138
  159TCM    cl1  959   1.750   2.140   0.263
  159TCM    cl2  960   1.808   2.312   0.035
  159TCM     h1  961   1.608   2.188   0.077
  159TCM    cl3  962   1.589   2.381   0.217
  160TCM     c1  963   2.135   1.644   1.658
  160TCM    cl1  964   2.076   1.804   1.714
  160TCM    cl2  965   2.043   1.594   1.512
  160TCM     h1  966   2.242   1.651   1.634
  160TCM    cl3  967   2.110   1.522   1.787
  161TCM     c1  968   2.640   2.649   0.785
  161TCM    cl1  969   2.718   2.758   0.665
  161TCM    cl2  970   2.737   2.498   0.800
  161TCM     h1  971   2.634   2.699   0.882
  161TCM    cl3  972   2.475   2.608   0.728
  162TCM     c1  973   2.906   1.656   2.067
  162TCM    cl1  974   2.905   1.544   1.927
  162TCM    cl2  975   2.865   1.566   2.217
  162TCM     h1  976   3.005   1.701   2.078
  162TCM    cl3  977   2.784   1.784   2.041
  163TCM     c1  978   4.495   4.387   2.982
  163TCM    cl1  979   4.657   4.419   3.052
  163TCM    cl2  980   4.487   4.456   2.817
  163TCM     h1  981   4.478   4.279   2.977
  163TCM    cl3  982   4.368   4.463   3.084
  164TCM     c1  983   2.996   0.207   4.566
  164TCM    cl1  984   2.830   0.276   4.553
  164TCM    cl2  985   3.097   0.272   4.433
  164TCM     h1  986   3.040   0.235   4.662
  164TCM    cl3  987   2.986   0.029   4.552
  165TCM     c1  988   3.587   4.007   3.915
  165TCM    cl1  989   3.438   4.105   3.935
  165TCM    cl2  990   3.714   4.107   3.837
  165TCM     h1  991   3.622   3.973   4.013
  165TCM    cl3  992   3.552   3.865   3.811
  166TCM     c1  993   1.945   1.299   2.351
  166TCM    cl1  994   1.911   1.467   2.299
  166TCM    cl2  995   1.824   1.250   2.473
  166TCM     h1  996   1.940   1.232   2.265
  166TCM    cl3  997   2.109   1.292   2.424
  167TCM     c1  998   2.533   0.175   4.898
  167TCM    cl1  999   2.522   0.165   4.719
  167TCM    cl2 1000   2.367   0.161   4.966
  167TCM     h1 1001   2.594   0.093   4.936
  167TCM    cl3 1002   2.606   0.331   4.946
  168TCM     c1 1003   2.483   2.826   1.760
  168TCM    cl1 1004   2.346   2.893   1.665
  168TCM    cl2 1005   2.420   2.723   1.892
  168TCM     h1 1006   2.547   2.766   1.694
  168TCM    cl3 1007   2.579   2.961   1.830
  169TCM     c1 1008   1.075   4.988   1.649
  169TCM    cl1 1009   0.899   5.022   1.660
  169TCM    cl2 1010   1.143   5.075   1.508
  169TCM     h1 1011   1.125   5.021   1.741
  169TCM    cl3 1012   1.102   4.812   1.628
  170TCM     c1 1013   3.803   2.450   4.625
  170TCM    cl1 1014   3.896   2.516   4.486
  170TCM    cl2 1015   3.853   2.535   4.775
  170TCM     h1 1016   3.696   2.465   4.607
  170TCM    cl3 1017   3.837   2.274   4.641
  171TCM     c1 1018   1.474   4.761   4.754
  171TCM    cl1 1019   1.383   4.721   4.605
  171TCM    cl2 1020   1.478   4.619   4.862
  171TCM     h1 1021   1.576   4.790   4.727
  171TCM    cl3 1022   1.393   4.897   4.838
  172TCM     c1 1023   3.384   3.477   0.361
  172TCM    cl1 1024   3.527   3.481   0.253
  172TCM    cl2 1025   3.351   3.307   0.410
  172TCM     h1 1026   3.403   3.537   0.450
  172TCM    cl3 1027   3.243   3.543   0.273
  173TCM     c1 1028   4.681   1.357   0.436
  173TCM    cl1 1029   4.660   1.281   0.597
  173TCM    cl2 1030   4.651   1.533   0.449
  173TCM     h1 1031   4.783   1.339   0.400
  173TCM    cl3 1032   4.564   1.285   0.320
  174TCM     c1 1033   4.235   1.717   2.052
  174TCM    cl1 1034   4.069   1.708   2.118
  174TCM    cl2 1035   4.305   1.879   2.087
  174TCM     h1 1036   4.297   1.640   2.098
  174TCM    cl3 1037   4.229   1.693   1.874
  175TCM     c1 1038   3.764   1.740   0.078
  175TCM    cl1 1039   3.932   1.724   0.140
  175TCM    cl2 1040   3.648   1.682   0.202
  175TCM     h1 1041   3.744   1.845   0.054
  175TCM    cl3 1042   3.746   1.640  -0.070
  176TCM     c1 1043   3.914   3.111   4.934
  176TCM    cl1 1044   4.065   3.039   4.867
  176TCM    cl2 1045   3.785   3.102   4.810
  176TCM     h1 1046   3.884   3.055   5.023
  176TCM    cl3 1047   3.944   3.282   4.978
  177TCM     c1 1048   0.971   0.397   3.690
  177TCM    cl1 1049   0.946   0.223   3.725
  177TCM    cl2 1050   0.911   0.434   3.524
  177TCM     h1 1051   0.917   0.457   3.762
  177TCM    cl3 1052   1.146   0.435   3.700
  178TCM     c1 1053   3.251   0.283   1.383
  178TCM    cl1 1054   3.318   0.404   1.497
  178TCM    cl2 1055   3.317   0.121   1.423
  178TCM     h1 1056   3.142   0.281   1.392
  178TCM    cl3 1057   3.297   0.327   1.215
  179TCM     c1 1058   1.142   0.279   4.144
  179TCM    cl1 1059   1.068   0.281   4.308
  179TCM    cl2 1060   1.317   0.320   4.157
  179TCM     h1 1061   1.131   0.180   4.100
  179TCM    cl3 1062   1.061   0.401   4.041
  180TCM     c1 1063   3.307   0.127   3.320
  180TCM    cl1 1064   3.422  -0.001   3.372
  180TCM    cl2 1065   3.394   0.283   3.303
  180TCM     h1 1066   3.261   0.099   3.225
  180TCM    cl3 1067   3.180   0.144   3.446
  181TCM     c1 1068   2.313   1.004   3.989
  181TCM    cl1 1069   2.230   1.033   4.145
  181TCM    cl2 1070   2.204   0.909   3.882
  181TCM     h1 1071   2.336   1.099   3.941
  181TCM    cl3 1072   2.464   0.912   4.017
  182TCM     c1 1073   3.184   0.604   0.111
  182TCM    cl1 1074   3.142   0.492   0.245
  182TCM    cl2 1075   3.321   0.535   0.017
  182TCM     h1 1076   3.098   0.617   0.046
  182TCM    cl3 1077   3.233   0.762   0.180
  183TCM     c1 1078   1.526   1.981   2.467
  183TCM    cl1 1079   1.675   1.963   2.565
  183TCM    cl2 1080   1.544   2.120   2.355
  183TCM     h1 1081   1.510   1.890   2.409
  183TCM    cl3 1082   1.386   2.008   2.575
  184TCM     c1 1083   4.816   4.030   4.657
  184TCM    cl1 1084   4.862   4.077   4.824
  184TCM    cl2 1085   4.672   4.123   4.606
  184TCM     h1 1086   4.899   4.050   4.588
  184TCM    cl3 1087   4.778   3.854   4.654
  185TCM     c1 1088   0.560   0.918   2.817
  185TCM    cl1 1089   0.389   0.929   2.867
  185TCM    cl2 1090   0.583   0.772   2.715
  185TCM     h1 1091   0.587   1.007   2.759
  185TCM    cl3 1092   0.666   0.907   2.962
  186TCM     c1 1093   4.652   0.659   3.531
  186TCM    cl1 1094   4.568   0.526   3.617
  186TCM    cl2 1095   4.661   0.621   3.356
  186TCM     h1 1096   4.598   0.753   3.545
  186TCM    cl3 1097   4.819   0.676   3.595
  187TCM     c1 1098   4.902   4.512   0.377
  187TCM    cl1 1099   4.981   4.670   0.405
  187TCM    cl2 1100   4.927   4.406   0.519
  187TCM     h1 1101   4.795   4.527   0.361
  187TCM    cl3 1102   4.975   4.435   0.232
  188TCM     c1 1103   0.535   3.086   0.089
  188TCM    cl1 1104   0.518   3.226  -0.022
  188TCM    cl2 1105   0.435   3.114   0.235
  188TCM     h1 1106   0.501   2.995   0.038
  188TCM    cl3 1107   0.706   3.066   0.138
  189TCM     c1 1108   1.103   2.450   4.602
  189TCM    cl1 1109   1.221   2.314   4.603
  189TCM    cl2 1110   1.088   2.517   4.768
  189TCM     h1 1111   1.138   2.528   4.534
  189TCM    cl3 1112   0.943   2.390   4.547
  190TCM     c1 1113   0.737   3.040   0.507
  190TCM    cl1 1114   0.652   3.193   0.548
  190TCM    cl2 1115   0.715   2.925   0.643
  190TCM     h1 1116   0.694   2.998   0.416
  190TCM    cl3 1117   0.912   3.073   0.484
  191TCM     c1 1118   4.031   1.606   2.631
  191TCM    cl1 1119   3.904   1.632   2.755
  191TCM    cl2 1120   3.961   1.633   2.468
  191TCM     h1 1121   4.114   1.676   2.647
  191TCM    cl3 1122   4.091   1.437   2.643
  192TCM     c1 1123   2.073   0.545   4.285
  192TCM    cl1 1124   2.159   0.400   4.345
  192TCM    cl2 1125   1.944   0.494   4.171
  192TCM     h1 1126   2.029   0.599   4.369
  192TCM    cl3 1127   2.190   0.653   4.200
  193TCM     c1 1128   0.243   0.159   2.600
  193TCM    cl1 1129   0.234  -0.015   2.557
  193TCM    cl2 1130   0.083   0.235   2.575
  193TCM     h1 1131   0.272   0.169   2.705
  193TCM    cl3 1132   0.364   0.240   2.496
  194TCM     c1 1133   1.693   4.442   4.454
  194TCM    cl1 1134   1.703   4.621   4.450
  194TCM    cl2 1135   1.646   4.389   4.619
  194TCM     h1 1136   1.618   4.408   4.382
  194TCM    cl3 1137   1.853   4.372   4.413
  195TCM     c1 1138   4.010   4.284   1.083
  195TCM    cl1 1139   4.003   4.141   0.974
  195TCM    cl2 1140   4.152   4.386   1.040
  195TCM     h1 1141   3.919   4.343   1.072
  195TCM    cl3 1142   4.027   4.229   1.253
  196TCM     c1 1143   0.834   2.423   0.429
  196TCM    cl1 1144   0.764   2.392   0.592
  196TCM    cl2 1145   0.993   2.342   0.417
  196TCM     h1 1146   0.766   2.385   0.352
  196TCM    cl3 1147   0.857   2.600   0.407
  197TCM     c1 1148   1.260   0.700   4.107
  197TCM    cl1 1149   1.131   0.784   4.015
  197TCM    cl2 1150   1.199   0.661   4.272
  197TCM     h1 1151   1.289   0.608   4.056
  197TCM    cl3 1152   1.402   0.809   4.120
  198TCM     c1 1153   1.462   1.511   0.855
  198TCM    cl1 1154   1.436   1.505   0.677
  198TCM    cl2 1155   1.340   1.408   0.936
  198TCM     h1 1156   1.562   1.474   0.879
  198TCM    cl3 1157   1.447   1.680   0.913
  199TCM     c1 1158   0.869   4.632   1.294
  199TCM    cl1 1159   1.027   4.570   1.352
  199TCM    cl2 1160   0.876   4.655   1.116
  199TCM     h1 1161   0.790   4.560   1.319
  199TCM    cl3 1162   0.833   4.789   1.373
  200TCM     c1 1163   4.795   2.579   2.452
  200TCM    cl1 1164   4.668   2.680   2.529
  200TCM    cl2 1165   4.725   2.497   2.308
  200TCM     h1 1166   4.879   2.642   2.422
  200TCM    cl3 1167   4.850   2.456   2.569
  201TCM     c1 1168   0.467   2.173   0.087
  201TCM    cl1 1169   0.610   2.228   0.179
  201TCM    cl2 1170   0.522   2.106  -0.070
  201TCM     h1 1171   0.413   2.096   0.143
  201TCM    cl3 1172   0.358   2.313   0.058
  202TCM     c1 1173   3.490   4.500   3.165
  202TCM    cl1 1174   3.530   4.378   3.290
  202TCM    cl2 1175   3.474   4.661   3.243
  202TCM     h1 1176   3.570   4.504   3.090
  202TCM    cl3 1177   3.335   4.455   3.086
  203TCM     c1 1178   2.150   0.886   2.285
  203TCM    cl1 1179   2.016   0.940   2.391
  203TCM    cl2 1180   2.203   1.023   2.181
  203TCM     h1 1181   2.233   0.852   2.346
  203TCM    cl3 1182   2.091   0.753   2.181
  204TCM     c1 1183   0.476   4.586   4.561
  204TCM    cl1 1184   0.449   4.642   4.393
  204TCM    cl2 1185   0.461   4.407   4.567
  204TCM     h1 1186   0.576   4.616   4.595
  204TCM    cl3 1187   0.352   4.659   4.669
  205TCM     c1 1188   2.145   4.772   3.871
  205TCM    cl1 1189   2.316   4.811   3.912
  205TCM    cl2 1190   2.127   4.595   3.850
  205TCM     h1 1191   2.079   4.807   3.951
  205TCM    cl3 1192   2.102   4.853   3.717
  206TCM     c1 1193   0.884   0.112   1.233
  206TCM    cl1 1194   0.844   0.037   1.075
  206TCM    cl2 1195   0.732   0.156   1.318
  206TCM     h1 1196   0.941   0.042   1.294
  206TCM    cl3 1197   0.982   0.259   1.204
  207TCM     c1 1198   2.302   2.985   0.863
  207TCM    cl1 1199   2.292   3.164   0.851
  207TCM    cl2 1200   2.467   2.938   0.916
  207TCM     h1 1201   2.229   2.949   0.935
  207TCM    cl3 1202   2.269   2.913   0.702
  208TCM     c1 1203   0.628   3.468   0.875
  208TCM    cl1 1204   0.583   3.580   1.008
  208TCM    cl2 1205   0.543   3.515   0.724
  208TCM     h1 1206   0.736   3.471   0.859
  208TCM    cl3 1207   0.580   3.300   0.919
  209TCM     c1 1208   3.509   2.510   2.030
  209TCM    cl1 1209   3.425   2.352   2.035
  209TCM    cl2 1210   3.686   2.483   2.030
  209TCM     h1 1211   3.479   2.565   1.941
  209TCM    cl3 1212   3.463   2.603   2.177
  210TCM     c1 1213   2.289   2.198   0.994
  210TCM    cl1 1214   2.417   2.300   0.920
  210TCM    cl2 1215   2.254   2.257   1.160
  210TCM     h1 1216   2.198   2.204   0.934
  210TCM    cl3 1217   2.345   2.027   1.000
  211TCM     c1 1218   2.564   3.483   3.940
  211TCM    cl1 1219   2.539   3.492   4.118
  211TCM    cl2 1220   2.675   3.347   3.902
  211TCM     h1 1221   2.468   3.467   3.891
  211TCM    cl3 1222   2.636   3.637   3.882
  212TCM     c1 1223   1.254   2.654   4.184
  212TCM    cl1 1224   1.429   2.691   4.184
  212TCM    cl2 1225   1.167   2.782   4.275
  212TCM     h1 1226   1.217   2.650   4.082
  212TCM    cl3 1227   1.227   2.496   4.265
  213TCM     c1 1228   1.640   2.647   3.444
  213TCM    cl1 1229   1.704   2.479   3.444
  213TCM    cl2 1230   1.767   2.757   3.382
  213TCM     h1 1231   1.552   2.653   3.380
  213TCM    cl3 1232   1.596   2.694   3.612
  214TCM     c1 1233   3.684   4.447   3.623
  214TCM    cl1 1234   3.668   4.611   3.552
  214TCM    cl2 1235   3.561   4.428   3.753
  214TCM     h1 1236   3.667   4.372   3.545
  214TCM    cl3 1237   3.848   4.427   3.692
  215TCM     c1 1238   0.068   3.080   0.324
  215TCM    cl1 1239  -0.031   3.046   0.470
  215TCM    cl2 1240  -0.033   3.165   0.202
  215TCM     h1 1241   0.154   3.143   0.351
  215TCM    cl3 1242   0.125   2.925   0.254
  216TCM     c1 1243   1.261   2.196   0.174
  216TCM    cl1 1244   1.379   2.072   0.226
  216TCM    cl2 1245   1.099   2.120   0.163
  216TCM     h1 1246   1.258   2.278   0.247
  216TCM    cl3 1247   1.307   2.260   0.013
  217TCM     c1 1248   0.377   1.839   2.807
  217TCM    cl1 1249   0.481   1.979   2.846
  217TCM    cl2 1250   0.206   1.882   2.836
  217TCM     h1 1251   0.390   1.810   2.703
  217TCM    cl3 1252   0.422   1.701   2.913
  218TCM     c1 1253   3.369   0.094   4.736
  218TCM    cl1 1254   3.232   0.014   4.820
  218TCM    cl2 1255   3.340   0.271   4.732
  218TCM     h1 1256   3.462   0.073   4.789
  218TCM    cl3 1257   3.380   0.033   4.568
  219TCM     c1 1258   1.608   2.684   1.923
  219TCM    cl1 1259   1.697   2.780   2.045
  219TCM    cl2 1260   1.601   2.512   1.974
  219TCM     h1 1261   1.506   2.723   1.913
  219TCM    cl3 1262   1.692   2.697   1.765
  220TCM     c1 1263   4.211   0.240   4.054
  220TCM    cl1 1264   4.110   0.370   3.983
  220TCM    cl2 1265   4.273   0.295   4.214
  220TCM     h1 1266   4.151   0.150   4.067
  220TCM    cl3 1267   4.349   0.205   3.945
  221TCM     c1 1268   0.304   3.664   1.343
  221TCM    cl1 1269   0.460   3.753   1.352
  221TCM    cl2 1270   0.337   3.488   1.325
  221TCM     h1 1271   0.246   3.681   1.434
  221TCM    cl3 1272   0.212   3.721   1.200
  222TCM     c1 1273   0.193   1.402   0.553
  222TCM    cl1 1274   0.225   1.226   0.545
  222TCM    cl2 1275   0.236   1.463   0.717
  222TCM     h1 1276   0.253   1.454   0.478
  222TCM    cl3 1277   0.019   1.434   0.521
  223TCM     c1 1278   3.190   2.341   2.636
  223TCM    cl1 1279   3.315   2.386   2.756
  223TCM    cl2 1280   3.130   2.489   2.554
  223TCM     h1 1281   3.233   2.274   2.561
  223TCM    cl3 1282   3.054   2.258   2.719
  224TCM     c1 1283   0.257   4.679   2.894
  224TCM    cl1 1284   0.275   4.602   3.055
  224TCM    cl2 1285   0.148   4.579   2.792
  224TCM     h1 1286   0.215   4.779   2.906
  224TCM    cl3 1287   0.418   4.689   2.815
  225TCM     c1 1288   0.175   4.580   2.369
  225TCM    cl1 1289   0.048   4.667   2.461
  225TCM    cl2 1290   0.326   4.574   2.466
  225TCM     h1 1291   0.141   4.478   2.348
  225TCM    cl3 1292   0.208   4.667   2.216
  226TCM     c1 1293   0.313   2.381   2.335
  226TCM    cl1 1294   0.446   2.417   2.449
  226TCM    cl2 1295   0.366   2.417   2.167
  226TCM     h1 1296   0.286   2.275   2.343
  226TCM    cl3 1297   0.170   2.482   2.376
  227TCM     c1 1298   0.379   3.737   2.869
  227TCM    cl1 1299   0.221   3.744   2.785
  227TCM    cl2 1300   0.363   3.633   3.015
  227TCM     h1 1301   0.455   3.695   2.802
  227TCM    cl3 1302   0.428   3.903   2.918
  228TCM     c1 1303   2.277   0.457   3.871
  228TCM    cl1 1304   2.246   0.326   3.989
  228TCM    cl2 1305   2.414   0.558   3.928
  228TCM     h1 1306   2.302   0.413   3.774
  228TCM    cl3 1307   2.129   0.558   3.853
  229TCM     c1 1308   1.767   1.832   2.101
  229TCM    cl1 1309   1.874   1.714   2.020
  229TCM    cl2 1310   1.698   1.757   2.249
  229TCM     h1 1311   1.823   1.921   2.128
  229TCM    cl3 1312   1.632   1.876   1.992
  230TCM     c1 1313   0.823   2.987   2.278
  230TCM    cl1 1314   0.901   2.930   2.429
  230TCM    cl2 1315   0.787   3.163   2.292
  230TCM     h1 1316   0.891   2.971   2.194
  230TCM    cl3 1317   0.670   2.897   2.251
  231TCM     c1 1318   4.585   3.907   3.052
  231TCM    cl1 1319   4.552   4.063   3.136
  231TCM    cl2 1320   4.592   3.775   3.173
  231TCM     h1 1321   4.505   3.887   2.980
  231TCM    cl3 1322   4.741   3.919   2.966
  232TCM     c1 1323   4.116   0.647   4.448
  232TCM    cl1 1324   4.276   0.570   4.472
  232TCM    cl2 1325   4.025   0.557   4.323
  232TCM     h1 1326   4.060   0.646   4.542
  232TCM    cl3 1327   4.140   0.817   4.394
  233TCM     c1 1328   0.251   3.007   4.485
  233TCM    cl1 1329   0.317   3.118   4.610
  233TCM    cl2 1330   0.140   3.097   4.377
  233TCM     h1 1331   0.333   2.964   4.427
  233TCM    cl3 1332   0.160   2.875   4.566
  234TCM     c1 1333   0.754   1.880   0.256
  234TCM    cl1 1334   0.799   1.999   0.383
  234TCM    cl2 1335   0.815   1.935   0.097
  234TCM     h1 1336   0.799   1.783   0.280
  234TCM    cl3 1337   0.576   1.864   0.249
  235TCM     c1 1338   1.589   2.044   1.692
  235TCM    cl1 1339   1.764   2.078   1.718
  235TCM    cl2 1340   1.553   2.054   1.516
  235TCM     h1 1341   1.566   1.943   1.728
  235TCM    cl3 1342   1.490   2.163   1.781
  236TCM     c1 1343   2.429   4.408   3.797
  236TCM    cl1 1344   2.332   4.276   3.869
  236TCM    cl2 1345   2.550   4.337   3.686
  236TCM     h1 1346   2.364   4.475   3.741
  236TCM    cl3 1347   2.513   4.500   3.927
  237TCM     c1 1348   2.961   0.374   1.716
  237TCM    cl1 1349   3.035   0.216   1.675
  237TCM    cl2 1350   2.969   0.483   1.574
  237TCM     h1 1351   2.857   0.359   1.745
  237TCM    cl3 1352   3.051   0.448   1.853
  238TCM     c1 1353   2.512   4.808   4.709
  238TCM    cl1 1354   2.631   4.822   4.575
  238TCM    cl2 1355   2.598   4.819   4.866
  238TCM     h1 1356   2.439   4.889   4.701
  238TCM    cl3 1357   2.427   4.651   4.699
  239TCM     c1 1358   2.588   1.816   3.310
  239TCM    cl1 1359   2.683   1.694   3.402
  239TCM    cl2 1360   2.414   1.799   3.352
  239TCM     h1 1361   2.622   1.916   3.336
  239TCM    cl3 1362   2.609   1.787   3.134
  240TCM     c1 1363   0.684   1.572   4.904
  240TCM    cl1 1364   0.631   1.740   4.871
  240TCM    cl2 1365   0.701   1.549   5.081
  240TCM     h1 1366   0.611   1.502   4.864
  240TCM    cl3 1367   0.843   1.544   4.826
  241TCM     c1 1368   2.917   1.004   2.960
  241TCM    cl1 1369   3.023   1.147   2.947
  241TCM    cl2 1370   2.902   0.927   2.798
  241TCM     h1 1371   2.961   0.932   3.030
  241TCM    cl3 1372   2.756   1.055   3.019
  242TCM     c1 1373   3.350   0.763   1.441
  242TCM    cl1 1374   3.181   0.802   1.486
  242TCM    cl2 1375   3.453   0.909   1.458
  242TCM     h1 1376   3.388   0.684   1.506
  242TCM    cl3 1377   3.354   0.707   1.270
  243TCM     c1 1378   0.213   4.968   0.361
  243TCM    cl1 1379   0.251   5.018   0.530
  243TCM    cl2 1380   0.345   5.022   0.252
  243TCM     h1 1381   0.204   4.860   0.357
  243TCM    cl3 1382   0.060   5.045   0.308
  244TCM     c1 1383   0.561   3.769   3.725
  244TCM    cl1 1384   0.596   3.625   3.624
  244TCM    cl2 1385   0.701   3.881   3.723
  244TCM     h1 1386   0.473   3.821   3.686
  244TCM    cl3 1387   0.528   3.716   3.894
  245TCM     c1 1388   0.039   4.058   4.309
  245TCM    cl1 1389   0.146   4.098   4.447
  245TCM    cl2 1390  -0.092   4.181   4.296
  245TCM     h1 1391   0.097   4.058   4.216
  245TCM    cl3 1392  -0.034   3.897   4.335
  246TCM     c1 1393   1.516   2.639   4.671
  246TCM    cl1 1394   1.457   2.538   4.807
  246TCM    cl2 1395   1.578   2.795   4.735
  246TCM     h1 1396   1.595   2.586   4.617
  246TCM    cl3 1397   1.380   2.673   4.558
  247TCM     c1 1398   3.301   4.175   3.564
  247TCM    cl1 1399   3.228   4.197   3.402
  247TCM    cl2 1400   3.476   4.137   3.547
  247TCM     h1 1401   3.290   4.267   3.622
  247TCM    cl3 1402   3.219   4.040   3.648
  248TCM     c1 1403   1.786   4.863   3.110
  248TCM    cl1 1404   1.961   4.903   3.109
  248TCM    cl2 1405   1.728   4.854   3.279
  248TCM     h1 1406   1.730   4.941   3.056
  248TCM    cl3 1407   1.760   4.705   3.029
  249TCM     c1 1408   2.441   0.447   2.385
  249TCM    cl1 1409   2.407   0.620   2.348
  249TCM    cl2 1410   2.294   0.351   2.350
  249TCM     h1 1411   2.524   0.412   2.324
  249TCM    cl3 1412   2.482   0.431   2.559
  250TCM     c1 1413   3.065   2.030   3.942
  250TCM    cl1 1414   2.917   2.127   3.910
  250TCM    cl2 1415   3.084   2.009   4.120
  250TCM     h1 1416   3.057   1.933   3.894
  250TCM    cl3 1417   3.208   2.118   3.878
  251TCM     c1 1418   2.597   2.343   0.412
  251TCM    cl1 1419   2.528   2.291   0.569
  251TCM    cl2 1420   2.730   2.461   0.439
  251TCM     h1 1421   2.637   2.256   0.359
  251TCM    cl3 1422   2.470   2.420   0.312
  252TCM     c1 1423   1.546   0.337   4.746
  252TCM    cl1 1424   1.462   0.420   4.611
  252TCM    cl2 1425   1.425   0.273   4.862
  252TCM     h1 1426   1.605   0.254   4.706
  252TCM    cl3 1427   1.654   0.452   4.831
  253TCM     c1 1428   0.535   1.480   1.718
  253TCM    cl1 1429   0.397   1.547   1.810
  253TCM    cl2 1430   0.544   1.303   1.746
  253TCM     h1 1431   0.522   1.500   1.612
  253TCM    cl3 1432   0.688   1.555   1.776
  254TCM     c1 1433   4.698   2.922   0.268
  254TCM    cl1 1434   4.612   2.958   0.421
  254TCM    cl2 1435   4.579   2.910   0.134
  254TCM     h1 1436   4.769   3.002   0.246
  254TCM    cl3 1437   4.787   2.767   0.285
  255TCM     c1 1438   0.498   1.599   3.943
  255TCM    cl1 1439   0.536   1.657   3.777
  255TCM    cl2 1440   0.486   1.740   4.053
  255TCM     h1 1441   0.403   1.545   3.942
  255TCM    cl3 1442   0.629   1.490   4.000
  256TCM     c1 1443   0.673   0.680   0.233
  256TCM    cl1 1444   0.626   0.712   0.063
  256TCM    cl2 1445   0.727   0.509   0.250
  256TCM     h1 1446   0.754   0.746   0.262
  256TCM    cl3 1447   0.531   0.708   0.340
  257TCM     c1 1448   3.383   4.404   4.579
  257TCM    cl1 1449   3.307   4.385   4.740
  257TCM    cl2 1450   3.460   4.249   4.532
  257TCM     h1 1451   3.307   4.431   4.506
  257TCM    cl3 1452   3.508   4.532   4.588
  258TCM     c1 1453   2.897   3.862   3.574
  258TCM    cl1 1454   2.859   3.881   3.400
  258TCM    cl2 1455   2.910   3.687   3.614
  258TCM     h1 1456   2.992   3.911   3.597
  258TCM    cl3 1457   2.766   3.936   3.673
  259TCM     c1 1458   2.728   4.353   3.242
  259TCM    cl1 1459   2.767   4.183   3.200
  259TCM    cl2 1460   2.579   4.360   3.340
  259TCM     h1 1461   2.811   4.397   3.298
  259TCM    cl3 1462   2.701   4.446   3.090
  260TCM     c1 1463   3.245   1.249   2.679
  260TCM    cl1 1464   3.336   1.100   2.721
  260TCM    cl2 1465   3.090   1.202   2.601
  260TCM     h1 1466   3.224   1.307   2.770
  260TCM    cl3 1467   3.343   1.346   2.565
  261TCM     c1 1468   4.369   2.073   4.933
  261TCM    cl1 1469   4.544   2.032   4.926
  261TCM    cl2 1470   4.286   1.965   5.050
  261TCM     h1 1471   4.358   2.177   4.964
  261TCM    cl3 1472   4.298   2.051   4.770
  262TCM     c1 1473   2.923   2.308   0.124
  262TCM    cl1 1474   3.028   2.453   0.128
  262TCM    cl2 1475   2.981   2.193  -0.001
  262TCM     h1 1476   2.925   2.259   0.222
  262TCM    cl3 1477   2.755   2.357   0.086
  263TCM     c1 1478   4.486   4.339   1.287
  263TCM    cl1 1479   4.560   4.431   1.152
  263TCM    cl2 1480   4.417   4.186   1.225
  263TCM     h1 1481   4.563   4.317   1.362
  263TCM    cl3 1482   4.356   4.438   1.362
  264TCM     c1 1483   4.555   0.611   2.979
  264TCM    cl1 1484   4.410   0.662   3.071
  264TCM    cl2 1485   4.613   0.452   3.040
  264TCM     h1 1486   4.529   0.602   2.873
  264TCM    cl3 1487   4.684   0.734   2.999
  265TCM     c1 1488   3.345   2.161   0.089
  265TCM    cl1 1489   3.240   2.166   0.235
  265TCM    cl2 1490   3.506   2.094   0.134
  265TCM     h1 1491   3.300   2.099   0.012
  265TCM    cl3 1492   3.367   2.328   0.027
  266TCM     c1 1493   1.677   0.225   2.685
  266TCM    cl1 1494   1.518   0.222   2.604
  266TCM    cl2 1495   1.693   0.084   2.796
  266TCM     h1 1496   1.757   0.221   2.610
  266TCM    cl3 1497   1.692   0.376   2.781
  267TCM     c1 1498   1.108   4.332   4.823
  267TCM    cl1 1499   1.176   4.430   4.689
  267TCM    cl2 1500   0.943   4.391   4.863
  267TCM     h1 1501   1.103   4.227   4.793
  267TCM    cl3 1502   1.212   4.349   4.968
  268TCM     c1 1503   4.942   0.193   4.594
  268TCM    cl1 1504   5.098   0.271   4.636
  268TCM    cl2 1505   4.956   0.015   4.615
  268TCM     h1 1506   4.864   0.231   4.659
  268TCM    cl3 1507   4.903   0.229   4.423
  269TCM     c1 1508   4.209   4.616   0.092
  269TCM    cl1 1509   4.034   4.604   0.057
  269TCM    cl2 1510   4.261   4.475   0.190
  269TCM     h1 1511   4.265   4.617  -0.002
  269TCM    cl3 1512   4.241   4.768   0.182
  270TCM     c1 1513   0.331   2.701   3.745
  270TCM    cl1 1514   0.483   2.605   3.746
  270TCM    cl2 1515   0.307   2.773   3.582
  270TCM     h1 1516   0.246   2.635   3.769
  270TCM    cl3 1517   0.341   2.832   3.867
  271TCM     c1 1518   3.967   1.257   1.864
  271TCM    cl1 1519   4.064   1.370   1.963
  271TCM    cl2 1520   4.001   1.089   1.917
  271TCM     h1 1521   3.860   1.278   1.878
  271TCM    cl3 1522   4.010   1.277   1.692
  272TCM     c1 1523   1.094   4.756   0.070
  272TCM    cl1 1524   1.250   4.704   0.141
  272TCM    cl2 1525   0.960   4.666   0.148
  272TCM     h1 1526   1.080   4.864   0.086
  272TCM    cl3 1527   1.093   4.721  -0.106
  273TCM     c1 1528   3.194   0.805   3.862
  273TCM    cl1 1529   3.194   0.983   3.885
  273TCM    cl2 1530   3.051   0.759   3.764
  273TCM     h1 1531   3.285   0.774   3.810
  273TCM    cl3 1532   3.185   0.724   4.021
  274TCM     c1 1533   4.240   3.358   3.478
  274TCM    cl1 1534   4.139   3.484   3.556
  274TCM    cl2 1535   4.146   3.275   3.350
  274TCM     h1 1536   4.329   3.405   3.434
  274TCM    cl3 1537   4.291   3.238   3.601
  275TCM     c1 1538   1.061   0.640   0.521
  275TCM    cl1 1539   1.197   0.723   0.439
  275TCM    cl2 1540   1.041   0.475   0.452
  275TCM     h1 1541   1.082   0.632   0.628
  275TCM    cl3 1542   0.910   0.734   0.496
  276TCM     c1 1543   1.138   1.821   1.063
  276TCM    cl1 1544   1.196   1.870   1.225
  276TCM    cl2 1545   0.999   1.924   1.015
  276TCM     h1 1546   1.219   1.833   0.990
  276TCM    cl3 1547   1.086   1.650   1.068
  277TCM     c1 1548   3.140   2.758   2.239
  277TCM    cl1 1549   3.113   2.809   2.068
  277TCM    cl2 1550   2.984   2.761   2.328
  277TCM     h1 1551   3.182   2.657   2.241
  277TCM    cl3 1552   3.253   2.873   2.317
  278TCM     c1 1553   2.898   3.558   2.561
  278TCM    cl1 1554   2.791   3.693   2.612
  278TCM    cl2 1555   2.961   3.591   2.396
  278TCM     h1 1556   2.981   3.549   2.631
  278TCM    cl3 1557   2.804   3.405   2.559
  279TCM     c1 1558   0.973   1.081   0.096
  279TCM    cl1 1559   0.833   1.001   0.174
  279TCM    cl2 1560   1.118   1.059   0.200
  279TCM     h1 1561   0.991   1.036  -0.002
  279TCM    cl3 1562   0.939   1.256   0.078
  280TCM     c1 1563   2.874   0.008   0.578
  280TCM    cl1 1564   3.019   0.109   0.547
  280TCM    cl2 1565   2.877  -0.053   0.747
  280TCM     h1 1566   2.784   0.068   0.562
  280TCM    cl3 1567   2.874  -0.131   0.465
  281TCM     c1 1568   1.975   3.554   0.983
  281TCM    cl1 1569   2.082   3.697   0.964
  281TCM    cl2 1570   1.991   3.488   1.149
  281TCM     h1 1571   1.872   3.584   0.965
  281TCM    cl3 1572   2.023   3.429   0.863
  282TCM     c1 1573   2.724   3.475   1.672
  282TCM    cl1 1574   2.598   3.601   1.647
  282TCM    cl2 1575   2.646   3.314   1.678
  282TCM     h1 1576   2.795   3.478   1.590
  282TCM    cl3 1577   2.808   3.507   1.827
  283TCM     c1 1578   4.709   0.272   3.832
  283TCM    cl1 1579   4.704   0.093   3.838
  283TCM    cl2 1580   4.847   0.324   3.729
  283TCM     h1 1581   4.616   0.310   3.791
  283TCM    cl3 1582   4.732   0.337   3.998
  284TCM     c1 1583   4.430   2.786   4.737
  284TCM    cl1 1584   4.478   2.956   4.770
  284TCM    cl2 1585   4.537   2.718   4.610
  284TCM     h1 1586   4.440   2.727   4.828
  284TCM    cl3 1587   4.260   2.780   4.680
  285TCM     c1 1588   0.980   4.778   2.055
  285TCM    cl1 1589   1.133   4.853   1.997
  285TCM    cl2 1590   0.866   4.761   1.917
  285TCM     h1 1591   1.002   4.680   2.097
  285TCM    cl3 1592   0.906   4.883   2.180
  286TCM     c1 1593   4.808   0.278   0.026
  286TCM    cl1 1594   4.667   0.327  -0.074
  286TCM    cl2 1595   4.892   0.143  -0.056
  286TCM     h1 1596   4.877   0.363   0.037
  286TCM    cl3 1597   4.752   0.224   0.187
  287TCM     c1 1598   4.488   0.214   3.388
  287TCM    cl1 1599   4.391   0.352   3.327
  287TCM    cl2 1600   4.441   0.180   3.558
  287TCM     h1 1601   4.470   0.126   3.326
  287TCM    cl3 1602   4.662   0.256   3.382
  288TCM     c1 1603   3.354   0.007   4.197
  288TCM    cl1 1604   3.347   0.173   4.130
  288TCM    cl2 1605   3.415  -0.105   4.070
  288TCM     h1 1606   3.422   0.005   4.283
  288TCM    cl3 1607   3.190  -0.044   4.248
  289TCM     c1 1608   1.209   1.798   1.595
  289TCM    cl1 1609   1.195   1.976   1.603
  289TCM    cl2 1610   1.066   1.722   1.673
  289TCM     h1 1611   1.215   1.766   1.490
  289TCM    cl3 1612   1.358   1.745   1.681
  290TCM     c1 1613   0.133   4.965   1.160
  290TCM    cl1 1614   0.160   4.788   1.154
  290TCM    cl2 1615  -0.007   5.000   1.267
  290TCM     h1 1616   0.222   5.015   1.199
  290TCM    cl3 1617   0.097   5.025   0.995
  291TCM     c1 1618   3.046   1.611   2.733
  291TCM    cl1 1619   3.037   1.554   2.564
  291TCM    cl2 1620   3.218   1.625   2.782
  291TCM     h1 1621   2.997   1.709   2.742
  291TCM    cl3 1622   2.964   1.493   2.840
  292TCM     c1 1623   3.421   0.127   0.276
  292TCM    cl1 1624   3.598   0.154   0.286
  292TCM    cl2 1625   3.361   0.184   0.117
  292TCM     h1 1626   3.399   0.021   0.288
  292TCM    cl3 1627   3.339   0.219   0.405
  293TCM     c1 1628   0.582   1.482   2.125
  293TCM    cl1 1629   0.677   1.596   2.226
  293TCM    cl2 1630   0.436   1.430   2.216
  293TCM     h1 1631   0.551   1.533   2.033
  293TCM    cl3 1632   0.682   1.339   2.085
  294TCM     c1 1633   2.779   3.605   1.157
  294TCM    cl1 1634   2.748   3.541   0.992
  294TCM    cl2 1635   2.659   3.538   1.272
  294TCM     h1 1636   2.880   3.576   1.188
  294TCM    cl3 1637   2.766   3.784   1.156
  295TCM     c1 1638   2.456   2.616   4.477
  295TCM    cl1 1639   2.386   2.468   4.550
  295TCM    cl2 1640   2.343   2.683   4.355
  295TCM     h1 1641   2.473   2.691   4.555
  295TCM    cl3 1642   2.612   2.574   4.398
  296TCM     c1 1643   0.334   2.133   0.627
  296TCM    cl1 1644   0.302   2.297   0.691
  296TCM    cl2 1645   0.367   2.021   0.763
  296TCM     h1 1646   0.247   2.097   0.571
  296TCM    cl3 1647   0.477   2.138   0.518
  297TCM     c1 1648   2.486   0.321   1.483
  297TCM    cl1 1649   2.450   0.205   1.351
  297TCM    cl2 1650   2.652   0.288   1.545
  297TCM     h1 1651   2.480   0.423   1.445
  297TCM    cl3 1652   2.368   0.299   1.617
  298TCM     c1 1653   2.392   3.557   0.048
  298TCM    cl1 1654   2.417   3.465  -0.104
  298TCM    cl2 1655   2.310   3.452   0.168
  298TCM     h1 1656   2.489   3.590   0.088
  298TCM    cl3 1657   2.290   3.701   0.014
  299TCM     c1 1658   4.894   3.292   4.852
  299TCM    cl1 1659   4.754   3.186   4.890
  299TCM    cl2 1660   4.870   3.369   4.692
  299TCM     h1 1661   4.904   3.369   4.929
  299TCM    cl3 1662   5.044   3.193   4.848
  300TCM     c1 1663   3.765   1.977   1.942
  300TCM    cl1 1664   3.664   2.119   1.901
  300TCM    cl2 1665   3.688   1.884   2.075
  300TCM     h1 1666   3.774   1.913   1.854
  300TCM    cl3 1667   3.929   2.031   1.992
  301TCM     c1 1668   2.042   2.688   2.519
  301TCM    cl1 1669   2.072   2.532   2.602
  301TCM    cl2 1670   2.174   2.720   2.402
  301TCM     h1 1671   1.946   2.684   2.466
  301TCM    cl3 1672   2.035   2.820   2.641
  302TCM     c1 1673   4.447   2.643   0.683
  302TCM    cl1 1674   4.382   2.810   0.676
  302TCM    cl2 1675   4.590   2.628   0.576
  302TCM     h1 1676   4.475   2.620   0.786
  302TCM    cl3 1677   4.320   2.529   0.628
  303TCM     c1 1678   4.848   4.045   1.233
  303TCM    cl1 1679   4.849   4.208   1.157
  303TCM    cl2 1680   4.731   4.044   1.368
  303TCM     h1 1681   4.819   3.970   1.159
  303TCM    cl3 1682   5.012   4.008   1.295
  304TCM     c1 1683   2.955   1.537   3.611
  304TCM    cl1 1684   2.972   1.714   3.640
  304TCM    cl2 1685   2.906   1.456   3.763
  304TCM     h1 1686   2.879   1.520   3.534
  304TCM    cl3 1687   3.112   1.470   3.557
  305TCM     c1 1688   0.799   3.445   2.522
  305TCM    cl1 1689   0.842   3.316   2.640
  305TCM    cl2 1690   0.949   3.531   2.472
  305TCM     h1 1691   0.752   3.400   2.434
  305TCM    cl3 1692   0.686   3.561   2.599
  306TCM     c1 1693   2.835   3.866   1.920
  306TCM    cl1 1694   2.758   4.011   1.994
  306TCM    cl2 1695   2.927   3.777   2.045
  306TCM     h1 1696   2.758   3.801   1.878
  306TCM    cl3 1697   2.947   3.919   1.790
  307TCM     c1 1698   1.267   2.594   2.285
  307TCM    cl1 1699   1.336   2.702   2.159
  307TCM    cl2 1700   1.348   2.433   2.274
  307TCM     h1 1701   1.284   2.637   2.384
  307TCM    cl3 1702   1.091   2.575   2.257
  308TCM     c1 1703   4.486   4.967   4.863
  308TCM    cl1 1704   4.637   4.908   4.786
  308TCM    cl2 1705   4.512   4.981   5.040
  308TCM     h1 1706   4.460   5.065   4.822
  308TCM    cl3 1707   4.353   4.851   4.831
  309TCM     c1 1708   4.354   4.681   2.580
  309TCM    cl1 1709   4.369   4.806   2.453
  309TCM    cl2 1710   4.300   4.526   2.506
  309TCM     h1 1711   4.451   4.666   2.629
  309TCM    cl3 1712   4.233   4.734   2.702
  310TCM     c1 1713   1.347   0.109   3.075
  310TCM    cl1 1714   1.372   0.224   2.940
  310TCM    cl2 1715   1.442  -0.040   3.045
  310TCM     h1 1716   1.380   0.156   3.169
  310TCM    cl3 1717   1.173   0.068   3.087
  311TCM     c1 1718   3.281   4.705   3.602
  311TCM    cl1 1719   3.301   4.687   3.779
  311TCM    cl2 1720   3.119   4.775   3.568
  311TCM     h1 1721   3.358   4.770   3.562
  311TCM    cl3 1722   3.292   4.543   3.526
  312TCM     c1 1723   3.401   2.151   4.657
  312TCM    cl1 1724   3.505   2.060   4.771
  312TCM    cl2 1725   3.459   2.321   4.648
  312TCM     h1 1726   3.406   2.105   4.558
  312TCM    cl3 1727   3.232   2.150   4.717
  313TCM     c1 1728   4.853   4.360   2.668
  313TCM    cl1 1729   5.010   4.304   2.602
  313TCM    cl2 1730   4.771   4.224   2.751
  313TCM     h1 1731   4.869   4.442   2.738
  313TCM    cl3 1732   4.749   4.416   2.533
  314TCM     c1 1733   4.837   2.871   2.133
  314TCM    cl1 1734   4.959   2.741   2.156
  314TCM    cl2 1735   4.799   2.943   2.293
  314TCM     h1 1736   4.878   2.948   2.067
  314TCM    cl3 1737   4.688   2.802   2.061
  315TCM     c1 1738   1.208   2.187   0.779
  315TCM    cl1 1739   1.087   2.103   0.677
  315TCM    cl2 1740   1.322   2.067   0.848
  315TCM     h1 1741   1.263   2.260   0.718
  315TCM    cl3 1742   1.123   2.272   0.912
  316TCM     c1 1743   0.858   1.784   3.974
  316TCM    cl1 1744   1.007   1.818   4.068
  316TCM    cl2 1745   0.899   1.681   3.833
  316TCM     h1 1746   0.786   1.732   4.037
  316TCM    cl3 1747   0.787   1.938   3.916
  317TCM     c1 1748   4.050   3.443   1.207
  317TCM    cl1 1749   3.937   3.304   1.208
  317TCM    cl2 1750   4.109   3.474   1.373
  317TCM     h1 1751   4.135   3.422   1.141
  317TCM    cl3 1752   3.963   3.589   1.148
  318TCM     c1 1753   4.946   4.988   2.320
  318TCM    cl1 1754   4.826   4.985   2.453
  318TCM    cl2 1755   4.953   5.153   2.250
  318TCM     h1 1756   5.044   4.960   2.358
  318TCM    cl3 1757   4.896   4.872   2.192
  319TCM     c1 1758   1.141   2.283   1.795
  319TCM    cl1 1759   1.164   2.400   1.929
  319TCM    cl2 1760   1.183   2.362   1.639
  319TCM     h1 1761   1.206   2.196   1.810
  319TCM    cl3 1762   0.970   2.229   1.790
  320TCM     c1 1763   0.528   2.151   4.063
  320TCM    cl1 1764   0.378   2.096   3.982
  320TCM    cl2 1765   0.489   2.215   4.226
  320TCM     h1 1766   0.598   2.068   4.072
  320TCM    cl3 1767   0.603   2.282   3.965
  321TCM     c1 1768   0.722   0.701   4.704
  321TCM    cl1 1769   0.639   0.825   4.604
  321TCM    cl2 1770   0.857   0.778   4.794
  321TCM     h1 1771   0.651   0.657   4.775
  321TCM    cl3 1772   0.787   0.572   4.597
  322TCM     c1 1773   3.572   2.892   0.523
  322TCM    cl1 1774   3.632   3.060   0.541
  322TCM    cl2 1775   3.574   2.810   0.683
  322TCM     h1 1776   3.470   2.894   0.484
  322TCM    cl3 1777   3.677   2.802   0.409
  323TCM     c1 1778   3.409   4.790   2.832
  323TCM    cl1 1779   3.505   4.639   2.828
  323TCM    cl2 1780   3.463   4.893   2.968
  323TCM     h1 1781   3.423   4.844   2.738
  323TCM    cl3 1782   3.235   4.750   2.853
  324TCM     c1 1783   4.393   3.207   0.047
  324TCM    cl1 1784   4.523   3.279   0.149
  324TCM    cl2 1785   4.328   3.332  -0.064
  324TCM     h1 1786   4.434   3.125  -0.011
  324TCM    cl3 1787   4.262   3.145   0.153
  325TCM     c1 1788   4.370   2.444   2.662
  325TCM    cl1 1789   4.362   2.480   2.486
  325TCM    cl2 1790   4.266   2.301   2.696
  325TCM     h1 1791   4.473   2.422   2.691
  325TCM    cl3 1792   4.308   2.584   2.755
  326TCM     c1 1793   2.076   4.527   3.476
  326TCM    cl1 1794   2.026   4.580   3.312
  326TCM    cl2 1795   2.251   4.485   3.475
  326TCM     h1 1796   2.058   4.607   3.548
  326TCM    cl3 1797   1.982   4.382   3.524
  327TCM     c1 1798   3.488   2.367   0.404
  327TCM    cl1 1799   3.524   2.214   0.490
  327TCM    cl2 1800   3.635   2.423   0.317
  327TCM     h1 1801   3.408   2.350   0.331
  327TCM    cl3 1802   3.435   2.493   0.521
  328TCM     c1 1803   2.392   1.812   2.366
  328TCM    cl1 1804   2.338   1.661   2.447
  328TCM    cl2 1805   2.402   1.943   2.489
  328TCM     h1 1806   2.490   1.797   2.320
  328TCM    cl3 1807   2.273   1.857   2.240
  329TCM     c1 1808   2.573   2.604   3.431
  329TCM    cl1 1809   2.543   2.478   3.307
  329TCM    cl2 1810   2.510   2.761   3.372
  329TCM     h1 1811   2.522   2.577   3.524
  329TCM    cl3 1812   2.749   2.620   3.461
  330TCM     c1 1813   4.795   1.813   1.623
  330TCM    cl1 1814   4.776   1.661   1.530
  330TCM    cl2 1815   4.644   1.909   1.612
  330TCM     h1 1816   4.816   1.789   1.728
  330TCM    cl3 1817   4.931   1.908   1.555
  331TCM     c1 1818   1.619   1.134   3.354
  331TCM    cl1 1819   1.551   1.222   3.496
  331TCM    cl2 1820   1.797   1.156   3.349
  331TCM     h1 1821   1.595   1.028   3.362
  331TCM    cl3 1822   1.547   1.201   3.204
  332TCM     c1 1823   3.242   4.021   1.980
  332TCM    cl1 1824   3.391   4.120   1.970
  332TCM    cl2 1825   3.117   4.112   2.071
  332TCM     h1 1826   3.205   3.999   1.879
  332TCM    cl3 1827   3.279   3.867   2.065
  333TCM     c1 1828   1.987   3.612   0.451
  333TCM    cl1 1829   2.122   3.521   0.527
  333TCM    cl2 1830   1.851   3.500   0.417
  333TCM     h1 1831   1.953   3.691   0.519
  333TCM    cl3 1832   2.043   3.686   0.298
  334TCM     c1 1833   4.421   2.035   2.893
  334TCM    cl1 1834   4.548   2.162   2.893
  334TCM    cl2 1835   4.465   1.907   3.010
  334TCM     h1 1836   4.325   2.079   2.921
  334TCM    cl3 1837   4.409   1.963   2.729
  335TCM     c1 1838   2.384   3.774   1.348
  335TCM    cl1 1839   2.353   3.911   1.460
  335TCM    cl2 1840   2.417   3.837   1.184
  335TCM     h1 1841   2.469   3.716   1.384
  335TCM    cl3 1842   2.238   3.670   1.340
  336TCM     c1 1843   0.882   4.728   4.460
  336TCM    cl1 1844   0.843   4.563   4.519
  336TCM    cl2 1845   1.024   4.791   4.550
  336TCM     h1 1846   0.905   4.724   4.354
  336TCM    cl3 1847   0.742   4.836   4.488
  337TCM     c1 1848   3.563   3.080   3.467
  337TCM    cl1 1849   3.614   3.120   3.299
  337TCM    cl2 1850   3.464   2.931   3.465
  337TCM     h1 1851   3.651   3.064   3.529
  337TCM    cl3 1852   3.467   3.216   3.535
  338TCM     c1 1853   3.319   3.879   0.940
  338TCM    cl1 1854   3.495   3.878   0.977
  338TCM    cl2 1855   3.292   3.950   0.778
  338TCM     h1 1856   3.281   3.777   0.943
  338TCM    cl3 1857   3.233   3.978   1.063
  339TCM     c1 1858   2.586   1.262   3.697
  339TCM    cl1 1859   2.448   1.155   3.656
  339TCM    cl2 1860   2.542   1.361   3.839
  339TCM     h1 1861   2.674   1.202   3.720
  339TCM    cl3 1862   2.623   1.367   3.556
  340TCM     c1 1863   1.900   3.468   4.549
  340TCM    cl1 1864   1.746   3.504   4.633
  340TCM    cl2 1865   1.940   3.294   4.567
  340TCM     h1 1866   1.891   3.493   4.443
  340TCM    cl3 1867   2.032   3.567   4.621
  341TCM     c1 1868   4.141   3.737   3.143
  341TCM    cl1 1869   4.240   3.876   3.090
  341TCM    cl2 1870   4.247   3.617   3.224
  341TCM     h1 1871   4.064   3.771   3.213
  341TCM    cl3 1872   4.065   3.662   2.999
  342TCM     c1 1873   2.850   1.811   4.789
  342TCM    cl1 1874   2.752   1.890   4.917
  342TCM    cl2 1875   3.021   1.865   4.803
  342TCM     h1 1876   2.845   1.703   4.801
  342TCM    cl3 1877   2.786   1.856   4.628
  343TCM     c1 1878   0.323   0.549   3.801
  343TCM    cl1 1879   0.371   0.575   3.972
  343TCM    cl2 1880   0.180   0.441   3.797
  343TCM     h1 1881   0.298   0.645   3.755
  343TCM    cl3 1882   0.459   0.473   3.713
  344TCM     c1 1883   3.273   0.848   1.878
  344TCM    cl1 1884   3.355   0.984   1.796
  344TCM    cl2 1885   3.331   0.692   1.809
  344TCM     h1 1886   3.294   0.851   1.985
  344TCM    cl3 1887   3.096   0.862   1.851
  345TCM     c1 1888   2.588   4.399   2.745
  345TCM    cl1 1889   2.413   4.364   2.734
  345TCM    cl2 1890   2.646   4.463   2.588
  345TCM     h1 1891   2.606   4.473   2.824
  345TCM    cl3 1892   2.677   4.248   2.784
  346TCM     c1 1893   0.635   1.005   2.331
  346TCM    cl1 1894   0.536   1.021   2.182
  346TCM    cl2 1895   0.667   0.832   2.361
  346TCM     h1 1896   0.729   1.059   2.318
  346TCM    cl3 1897   0.545   1.074   2.470
  347TCM     c1 1898   2.296   4.288   3.156
  347TCM    cl1 1899   2.317   4.455   3.092
  347TCM    cl2 1900   2.406   4.176   3.068
  347TCM     h1 1901   2.320   4.287   3.263
  347TCM    cl3 1902   2.126   4.237   3.132
  348TCM     c1 1903   3.957   1.928   4.741
  348TCM    cl1 1904   3.804   1.887   4.656
  348TCM    cl2 1905   4.048   1.777   4.776
  348TCM     h1 1906   4.017   1.994   4.678
  348TCM    cl3 1907   3.918   2.012   4.895
  349TCM     c1 1908   0.244   0.398   0.130
  349TCM    cl1 1909   0.212   0.291  -0.011
  349TCM    cl2 1910   0.091   0.422   0.221
  349TCM     h1 1911   0.319   0.352   0.194
  349TCM    cl3 1912   0.304   0.556   0.070
  350TCM     c1 1913   3.700   3.745   0.016
  350TCM    cl1 1914   3.711   3.762  -0.163
  350TCM    cl2 1915   3.694   3.908   0.090
  350TCM     h1 1916   3.610   3.690   0.042
  350TCM    cl3 1917   3.844   3.656   0.076
  351TCM     c1 1918   2.070   2.115   2.426
  351TCM    cl1 1919   2.161   2.260   2.370
  351TCM    cl2 1920   1.931   2.088   2.316
  351TCM     h1 1921   2.136   2.028   2.424
  351TCM    cl3 1922   2.010   2.142   2.593
  352TCM     c1 1923   1.866   3.866   1.445
  352TCM    cl1 1924   1.750   4.002   1.460
  352TCM    cl2 1925   2.001   3.889   1.561
  352TCM     h1 1926   1.815   3.772   1.467
  352TCM    cl3 1927   1.931   3.860   1.278
  353TCM     c1 1928   3.986   3.535   1.743
  353TCM    cl1 1929   3.942   3.369   1.691
  353TCM    cl2 1930   4.163   3.560   1.723
  353TCM     h1 1931   3.931   3.608   1.683
  353TCM    cl3 1932   3.943   3.555   1.917
  354TCM     c1 1933   2.459   4.447   0.587
  354TCM    cl1 1934   2.324   4.375   0.493
  354TCM    cl2 1935   2.470   4.364   0.745
  354TCM     h1 1936   2.553   4.435   0.533
  354TCM    cl3 1937   2.425   4.622   0.612
  355TCM     c1 1938   2.767   2.254   4.549
  355TCM    cl1 1939   2.631   2.183   4.456
  355TCM    cl2 1940   2.923   2.194   4.486
  355TCM     h1 1941   2.763   2.363   4.541
  355TCM    cl3 1942   2.752   2.206   4.722
  356TCM     c1 1943   1.529   3.008   2.410
  356TCM    cl1 1944   1.511   3.172   2.480
  356TCM    cl2 1945   1.524   3.023   2.231
  356TCM     h1 1946   1.624   2.964   2.441
  356TCM    cl3 1947   1.394   2.904   2.465
  357TCM     c1 1948   0.559   4.090   4.746
  357TCM    cl1 1949   0.733   4.119   4.713
  357TCM    cl2 1950   0.541   3.995   4.897
  357TCM     h1 1951   0.507   4.186   4.757
  357TCM    cl3 1952   0.486   3.999   4.609
  358TCM     c1 1953   4.850   2.254   1.512
  358TCM    cl1 1954   4.820   2.376   1.383
  358TCM    cl2 1955   4.730   2.276   1.644
  358TCM     h1 1956   4.840   2.154   1.470
  358TCM    cl3 1957   5.015   2.275   1.579
  359TCM     c1 1958   4.343   0.647   4.104
  359TCM    cl1 1959   4.451   0.770   4.176
  359TCM    cl2 1960   4.433   0.553   3.981
  359TCM     h1 1961   4.306   0.580   4.182
  359TCM    cl3 1962   4.205   0.729   4.024
  360TCM     c1 1963   3.790   0.850   0.133
  360TCM    cl1 1964   3.828   0.989   0.240
  360TCM    cl2 1965   3.612   0.834   0.116
  360TCM     h1 1966   3.835   0.866   0.035
  360TCM    cl3 1967   3.856   0.699   0.206
  361TCM     c1 1968   1.772   1.611   3.606
  361TCM    cl1 1969   1.763   1.517   3.453
  361TCM    cl2 1970   1.734   1.783   3.572
  361TCM     h1 1971   1.700   1.571   3.678
  361TCM    cl3 1972   1.937   1.599   3.673
  362TCM     c1 1973   0.003   1.508   1.946
  362TCM    cl1 1974  -0.172   1.501   1.988
  362TCM    cl2 1975   0.100   1.509   2.097
  362TCM     h1 1976   0.030   1.421   1.886
  362TCM    cl3 1977   0.035   1.658   1.853
  363TCM     c1 1978   1.413   0.539   3.374
  363TCM    cl1 1979   1.242   0.591   3.388
  363TCM    cl2 1980   1.431   0.444   3.223
  363TCM     h1 1981   1.478   0.627   3.371
  363TCM    cl3 1982   1.458   0.436   3.513
  364TCM     c1 1983   2.162   4.036   1.039
  364TCM    cl1 1984   2.183   4.143   1.182
  364TCM    cl2 1985   2.282   4.081   0.914
  364TCM     h1 1986   2.177   3.932   1.070
  364TCM    cl3 1987   1.997   4.056   0.972
  365TCM     c1 1988   3.314   1.700   3.925
  365TCM    cl1 1989   3.319   1.769   3.759
  365TCM    cl2 1990   3.143   1.672   3.972
  365TCM     h1 1991   3.368   1.606   3.927
  365TCM    cl3 1992   3.389   1.816   4.040
  366TCM     c1 1993   2.179   3.640   4.234
  366TCM    cl1 1994   2.017   3.710   4.263
  366TCM    cl2 1995   2.217   3.644   4.058
  366TCM     h1 1996   2.254   3.698   4.288
  366TCM    cl3 1997   2.182   3.470   4.291
  367TCM     c1 1998   2.899   0.603   4.710
  367TCM    cl1 1999   3.069   0.553   4.687
  367TCM    cl2 2000   2.865   0.749   4.611
  367TCM     h1 2001   2.832   0.522   4.679
  367TCM    cl3 2002   2.870   0.639   4.884
  368TCM     c1 2003   2.695   2.553   2.058
  368TCM    cl1 2004   2.778   2.704   2.006
  368TCM    cl2 2005   2.774   2.489   2.206
  368TCM     h1 2006   2.590   2.575   2.080
  368TCM    cl3 2007   2.706   2.431   1.927
  369TCM     c1 2008   4.742   4.011   0.571
  369TCM    cl1 2009   4.835   4.061   0.425
  369TCM    cl2 2010   4.770   3.836   0.602
  369TCM     h1 2011   4.775   4.070   0.657
  369TCM    cl3 2012   4.568   4.040   0.542
  370TCM     c1 2013   1.917   2.857   4.389
  370TCM    cl1 2014   1.907   3.013   4.300
  370TCM    cl2 2015   1.755   2.781   4.397
  370TCM     h1 2016   1.987   2.790   4.339
  370TCM    cl3 2017   1.974   2.889   4.556
  371TCM     c1 2018   2.525   3.955   4.188
  371TCM    cl1 2019   2.457   3.923   4.026
  371TCM    cl2 2020   2.646   3.829   4.228
  371TCM     h1 2021   2.573   4.054   4.190
  371TCM    cl3 2022   2.392   3.950   4.309
  372TCM     c1 2023   4.425   4.963   2.909
  372TCM    cl1 2024   4.470   5.095   3.022
  372TCM    cl2 2025   4.489   4.807   2.971
  372TCM     h1 2026   4.316   4.957   2.900
  372TCM    cl3 2027   4.498   4.995   2.749
  373TCM     c1 2028   1.744   3.447   2.042
  373TCM    cl1 2029   1.599   3.553   2.052
  373TCM    cl2 2030   1.737   3.325   2.173
  373TCM     h1 2031   1.746   3.397   1.945
  373TCM    cl3 2032   1.892   3.547   2.060
  374TCM     c1 2033   3.488   0.655   0.423
  374TCM    cl1 2034   3.630   0.706   0.521
  374TCM    cl2 2035   3.357   0.599   0.533
  374TCM     h1 2036   3.452   0.740   0.365
  374TCM    cl3 2037   3.535   0.522   0.314
  375TCM     c1 2038   4.976   3.556   3.008
  375TCM    cl1 2039   5.001   3.703   3.109
  375TCM    cl2 2040   4.803   3.545   2.962
  375TCM     h1 2041   5.038   3.563   2.918
  375TCM    cl3 2042   5.022   3.410   3.102
  376TCM     c1 2043   2.742   2.698   4.797
  376TCM    cl1 2044   2.659   2.541   4.777
  376TCM    cl2 2045   2.808   2.710   4.963
  376TCM     h1 2046   2.824   2.706   4.725
  376TCM    cl3 2047   2.624   2.830   4.768
  377TCM     c1 2048   2.131   0.319   0.173
  377TCM    cl1 2049   2.038   0.360   0.025
  377TCM    cl2 2050   2.021   0.325   0.315
  377TCM     h1 2051   2.172   0.218   0.164
  377TCM    cl3 2052   2.265   0.436   0.194
  378TCM     c1 2053   2.877   0.219   2.287
  378TCM    cl1 2054   2.780   0.263   2.431
  378TCM    cl2 2055   2.857   0.346   2.162
  378TCM     h1 2056   2.983   0.211   2.315
  378TCM    cl3 2057   2.820   0.062   2.222
  379TCM     c1 2058   1.547   3.422   4.228
  379TCM    cl1 2059   1.566   3.600   4.232
  379TCM    cl2 2060   1.695   3.347   4.298
  379TCM     h1 2061   1.460   3.393   4.287
  379TCM    cl3 2062   1.527   3.367   4.059
  380TCM     c1 2063   0.421   2.648   0.442
  380TCM    cl1 2064   0.527   2.774   0.370
  380TCM    cl2 2065   0.429   2.657   0.621
  380TCM     h1 2066   0.318   2.663   0.409
  380TCM    cl3 2067   0.477   2.486   0.389
  381TCM     c1 2068   2.822   0.128   3.253
  381TCM    cl1 2069   2.858   0.012   3.386
  381TCM    cl2 2070   2.663   0.086   3.181
  381TCM     h1 2071   2.818   0.229   3.293
  381TCM    cl3 2072   2.950   0.116   3.128
  382TCM     c1 2073   1.959   3.111   1.012
  382TCM    cl1 2074   2.011   2.978   1.120
  382TCM    cl2 2075   1.805   3.181   1.073
  382TCM     h1 2076   2.036   3.189   1.009
  382TCM    cl3 2077   1.934   3.046   0.846
  383TCM     c1 2078   3.068   0.041   3.908
  383TCM    cl1 2079   3.210   0.053   3.799
  383TCM    cl2 2080   3.030  -0.133   3.935
  383TCM     h1 2081   3.091   0.088   4.004
  383TCM    cl3 2082   2.928   0.124   3.833
  384TCM     c1 2083   2.706   3.246   4.922
  384TCM    cl1 2084   2.755   3.293   4.755
  384TCM    cl2 2085   2.754   3.375   5.036
  384TCM     h1 2086   2.598   3.231   4.925
  384TCM    cl3 2087   2.789   3.093   4.967
  385TCM     c1 2088   0.148   0.316   4.121
  385TCM    cl1 2089   0.223   0.255   4.272
  385TCM    cl2 2090   0.044   0.458   4.158
  385TCM     h1 2091   0.226   0.346   4.052
  385TCM    cl3 2092   0.049   0.186   4.047
  386TCM     c1 2093   2.251   2.474   4.001
  386TCM    cl1 2094   2.172   2.633   4.026
  386TCM    cl2 2095   2.429   2.493   4.012
  386TCM     h1 2096   2.217   2.405   4.078
  386TCM    cl3 2097   2.207   2.410   3.840
  387TCM     c1 2098   0.518   1.099   4.953
  387TCM    cl1 2099   0.442   1.262   4.945
  387TCM    cl2 2100   0.673   1.103   4.862
  387TCM     h1 2101   0.537   1.073   5.057
  387TCM    cl3 2102   0.409   0.978   4.878
  388TCM     c1 2103   4.579   2.732   1.717
  388TCM    cl1 2104   4.654   2.889   1.673
  388TCM    cl2 2105   4.586   2.621   1.576
  388TCM     h1 2106   4.634   2.688   1.801
  388TCM    cl3 2107   4.408   2.759   1.765
  389TCM     c1 2108   2.946   3.206   0.302
  389TCM    cl1 2109   2.942   3.365   0.386
  389TCM    cl2 2110   2.972   3.075   0.421
  389TCM     h1 2111   2.851   3.190   0.250
  389TCM    cl3 2112   3.080   3.206   0.182
  390TCM     c1 2113   2.397   4.574   1.399
  390TCM    cl1 2114   2.227   4.620   1.436
  390TCM    cl2 2115   2.489   4.557   1.553
  390TCM     h1 2116   2.398   4.479   1.345
  390TCM    cl3 2117   2.473   4.702   1.299
  391TCM     c1 2118   2.645   3.893   4.879
  391TCM    cl1 2119   2.786   3.968   4.799
  391TCM    cl2 2120   2.678   3.720   4.912
  391TCM     h1 2121   2.625   3.945   4.974
  391TCM    cl3 2122   2.501   3.909   4.772
  392TCM     c1 2123   3.801   3.869   2.807
  392TCM    cl1 2124   3.868   4.021   2.876
  392TCM    cl2 2125   3.809   3.876   2.628
  392TCM     h1 2126   3.861   3.784   2.842
  392TCM    cl3 2127   3.631   3.849   2.859
  393TCM     c1 2128   2.402   1.416   2.198
  393TCM    cl1 2129   2.490   1.263   2.165
  393TCM    cl2 2130   2.244   1.415   2.113
  393TCM     h1 2131   2.385   1.426   2.306
  393TCM    cl3 2132   2.501   1.554   2.139
  394TCM     c1 2133   4.998   2.331   0.485
  394TCM    cl1 2134   4.973   2.156   0.514
  394TCM    cl2 2135   4.849   2.401   0.413
  394TCM     h1 2136   5.020   2.381   0.580
  394TCM    cl3 2137   5.137   2.354   0.373
  395TCM     c1 2138   3.895   0.376   3.262
  395TCM    cl1 2139   3.864   0.383   3.086
  395TCM    cl2 2140   3.762   0.458   3.350
  395TCM     h1 2141   3.902   0.271   3.294
  395TCM    cl3 2142   4.050   0.459   3.299
  396TCM     c1 2143   4.871   2.343   0.064
  396TCM    cl1 2144   4.995   2.473   0.053
  396TCM    cl2 2145   4.949   2.192   0.122
  396TCM     h1 2146   4.793   2.372   0.134
  396TCM    cl3 2147   4.800   2.313  -0.098
  397TCM     c1 2148   2.076   2.344   4.423
  397TCM    cl1 2149   2.187   2.271   4.302
  397TCM    cl2 2150   1.929   2.242   4.439
  397TCM     h1 2151   2.127   2.351   4.520
  397TCM    cl3 2152   2.028   2.508   4.368
  398TCM     c1 2153   2.696   4.329   4.546
  398TCM    cl1 2154   2.629   4.472   4.460
  398TCM    cl2 2155   2.588   4.187   4.521
  398TCM     h1 2156   2.795   4.306   4.507
  398TCM    cl3 2157   2.706   4.365   4.721
  399TCM     c1 2158   1.147   0.118   0.303
  399TCM    cl1 2159   1.008   0.196   0.221
  399TCM    cl2 2160   1.274   0.079   0.183
  399TCM     h1 2161   1.188   0.186   0.379
  399TCM    cl3 2162   1.090  -0.033   0.382
  400TCM     c1 2163   1.470   3.016   4.382
  400TCM    cl1 2164   1.579   3.085   4.507
  400TCM    cl2 2165   1.545   3.030   4.220
  400TCM     h1 2166   1.450   2.911   4.404
  400TCM    cl3 2167   1.315   3.107   4.383
  401TCM     c1 2168   0.874   2.210   2.286
  401TCM    cl1 2169   0.975   2.254   2.428
  401TCM    cl2 2170   0.980   2.163   2.150
  401TCM     h1 2171   0.809   2.126   2.313
  401TCM    cl3 2172   0.773   2.350   2.238
  402TCM     c1 2173   1.077   1.308   0.495
  402TCM    cl1 2174   0.912   1.253   0.448
  402TCM    cl2 2175   1.071   1.380   0.659
  402TCM     h1 2176   1.145   1.222   0.494
  402TCM    cl3 2177   1.134   1.432   0.378
  403TCM     c1 2178   0.457   0.359   3.285
  403TCM    cl1 2179   0.316   0.365   3.174
  403TCM    cl2 2180   0.498   0.525   3.341
  403TCM     h1 2181   0.432   0.297   3.372
  403TCM    cl3 2182   0.597   0.288   3.198
  404TCM     c1 2183   2.579   3.761   0.361
  404TCM    cl1 2184   2.430   3.682   0.422
  404TCM    cl2 2185   2.536   3.882   0.235
  404TCM     h1 2186   2.630   3.811   0.444
  404TCM    cl3 2187   2.688   3.637   0.290
  405TCM     c1 2188   4.892   1.808   0.752
  405TCM    cl1 2189   4.932   1.648   0.823
  405TCM    cl2 2190   4.887   1.794   0.573
  405TCM     h1 2191   4.794   1.840   0.788
  405TCM    cl3 2192   5.017   1.928   0.799
  406TCM     c1 2193   3.241   4.569   4.128
  406TCM    cl1 2194   3.067   4.523   4.132
  406TCM    cl2 2195   3.339   4.427   4.079
  406TCM     h1 2196   3.256   4.651   4.058
  406TCM    cl3 2197   3.293   4.619   4.292
  407TCM     c1 2198   0.130   3.078   3.505
  407TCM    cl1 2199   0.281   3.174   3.498
  407TCM    cl2 2200   0.007   3.153   3.397
  407TCM     h1 2201   0.150   2.976   3.472
  407TCM    cl3 2202   0.068   3.076   3.673
  408TCM     c1 2203   2.572   0.252   1.916
  408TCM    cl1 2204   2.632   0.418   1.886
  408TCM    cl2 2205   2.521   0.236   2.087
  408TCM     h1 2206   2.486   0.231   1.851
  408TCM    cl3 2207   2.703   0.135   1.880
  409TCM     c1 2208   4.708   4.975   4.267
  409TCM    cl1 2209   4.592   5.109   4.238
  409TCM    cl2 2210   4.704   4.862   4.127
  409TCM     h1 2211   4.809   5.015   4.278
  409TCM    cl3 2212   4.661   4.886   4.415
  410TCM     c1 2213   3.712   0.867   1.998
  410TCM    cl1 2214   3.618   0.753   2.099
  410TCM    cl2 2215   3.661   1.035   2.035
  410TCM     h1 2216   3.819   0.855   2.020
  410TCM    cl3 2217   3.683   0.830   1.825
  411TCM     c1 2218   2.205   4.892   2.240
  411TCM    cl1 2219   2.314   4.785   2.147
  411TCM    cl2 2220   2.044   4.813   2.255
  411TCM     h1 2221   2.246   4.910   2.339
  411TCM    cl3 2222   2.187   5.048   2.153
  412TCM     c1 2223   2.119   2.599   0.787
  412TCM    cl1 2224   2.092   2.422   0.777
  412TCM    cl2 2225   2.160   2.645   0.955
  412TCM     h1 2226   2.202   2.626   0.721
  412TCM    cl3 2227   1.970   2.685   0.734
  413TCM     c1 2228   2.046   4.540   0.286
  413TCM    cl1 2229   2.120   4.401   0.199
  413TCM    cl2 2230   1.924   4.617   0.180
  413TCM     h1 2231   1.999   4.505   0.378
  413TCM    cl3 2232   2.173   4.661   0.326
  414TCM     c1 2233   3.294   0.977   2.382
  414TCM    cl1 2234   3.129   0.909   2.399
  414TCM    cl2 2235   3.332   1.005   2.209
  414TCM     h1 2236   3.301   1.072   2.436
  414TCM    cl3 2237   3.413   0.861   2.451
  415TCM     c1 2238   3.567   3.821   0.505
  415TCM    cl1 2239   3.711   3.752   0.422
  415TCM    cl2 2240   3.516   3.708   0.635
  415TCM     h1 2241   3.592   3.918   0.549
  415TCM    cl3 2242   3.434   3.839   0.387
  416TCM     c1 2243   1.581   4.129   1.770
  416TCM    cl1 2244   1.691   4.046   1.885
  416TCM    cl2 2245   1.488   4.255   1.858
  416TCM     h1 2246   1.641   4.176   1.691
  416TCM    cl3 2247   1.468   4.010   1.699
  417TCM     c1 2248   4.809   2.596   2.948
  417TCM    cl1 2249   4.655   2.528   2.885
  417TCM    cl2 2250   4.783   2.657   3.115
  417TCM     h1 2251   4.886   2.518   2.949
  417TCM    cl3 2252   4.862   2.732   2.844
  418TCM     c1 2253   1.429   1.262   2.122
  418TCM    cl1 2254   1.599   1.278   2.177
  418TCM    cl2 2255   1.328   1.382   2.209
  418TCM     h1 2256   1.423   1.281   2.014
  418TCM    cl3 2257   1.369   1.097   2.159
  419TCM     c1 2258   1.039   4.046   0.099
  419TCM    cl1 2259   1.040   3.986  -0.070
  419TCM    cl2 2260   1.056   3.909   0.214
  419TCM     h1 2261   1.122   4.116   0.114
  419TCM    cl3 2262   0.883   4.131   0.130
  420TCM     c1 2263   3.078   2.698   0.627
  420TCM    cl1 2264   3.218   2.786   0.557
  420TCM    cl2 2265   3.099   2.682   0.804
  420TCM     h1 2266   2.986   2.755   0.606
  420TCM    cl3 2267   3.066   2.535   0.553
  421TCM     c1 2268   0.528   1.873   2.420
  421TCM    cl1 2269   0.354   1.832   2.439
  421TCM    cl2 2270   0.622   1.788   2.547
  421TCM     h1 2271   0.563   1.842   2.321
  421TCM    cl3 2272   0.549   2.050   2.439
  422TCM     c1 2273   2.375   0.520   4.643
  422TCM    cl1 2274   2.311   0.666   4.561
  422TCM    cl2 2275   2.320   0.519   4.814
  422TCM     h1 2276   2.339   0.430   4.592
  422TCM    cl3 2277   2.554   0.524   4.639
  423TCM     c1 2278   0.259   4.332   3.990
  423TCM    cl1 2279   0.316   4.501   4.013
  423TCM    cl2 2280   0.081   4.331   3.970
  423TCM     h1 2281   0.306   4.289   3.901
  423TCM    cl3 2282   0.304   4.234   4.134
  424TCM     c1 2283   4.761   3.578   1.206
  424TCM    cl1 2284   4.622   3.511   1.298
  424TCM    cl2 2285   4.876   3.655   1.321
  424TCM     h1 2286   4.811   3.498   1.152
  424TCM    cl3 2287   4.703   3.702   1.090
  425TCM     c1 2288   2.190   2.209   0.384
  425TCM    cl1 2289   2.303   2.069   0.390
  425TCM    cl2 2290   2.052   2.181   0.495
  425TCM     h1 2291   2.243   2.300   0.415
  425TCM    cl3 2292   2.129   2.230   0.216
  426TCM     c1 2293   0.188   4.918   3.322
  426TCM    cl1 2294   0.115   4.909   3.159
  426TCM    cl2 2295   0.351   4.992   3.310
  426TCM     h1 2296   0.125   4.979   3.387
  426TCM    cl3 2297   0.203   4.752   3.391
  427TCM     c1 2298   3.069   2.230   2.113
  427TCM    cl1 2299   3.077   2.247   2.291
  427TCM    cl2 2300   3.071   2.393   2.039
  427TCM     h1 2301   3.153   2.171   2.077
  427TCM    cl3 2302   2.915   2.149   2.069
  428TCM     c1 2303   3.830   1.293   4.959
  428TCM    cl1 2304   3.870   1.130   4.896
  428TCM    cl2 2305   3.960   1.349   5.069
  428TCM     h1 2306   3.820   1.363   4.876
  428TCM    cl3 2307   3.675   1.285   5.050
  429TCM     c1 2308   0.759   1.770   4.399
  429TCM    cl1 2309   0.624   1.738   4.513
  429TCM    cl2 2310   0.711   1.901   4.286
  429TCM     h1 2311   0.848   1.801   4.455
  429TCM    cl3 2312   0.794   1.621   4.306
  430TCM     c1 2313   0.382   0.377   2.154
  430TCM    cl1 2314   0.496   0.516   2.165
  430TCM    cl2 2315   0.361   0.331   1.982
  430TCM     h1 2316   0.422   0.292   2.210
  430TCM    cl3 2317   0.223   0.424   2.220
  431TCM     c1 2318   3.487   0.305   0.809
  431TCM    cl1 2319   3.314   0.296   0.764
  431TCM    cl2 2320   3.588   0.315   0.661
  431TCM     h1 2321   3.504   0.393   0.872
  431TCM    cl3 2322   3.532   0.157   0.901
  432TCM     c1 2323   2.850   2.159   3.558
  432TCM    cl1 2324   3.024   2.114   3.551
  432TCM    cl2 2325   2.751   2.011   3.583
  432TCM     h1 2326   2.834   2.229   3.641
  432TCM    cl3 2327   2.802   2.237   3.404
  433TCM     c1 2328   3.813   2.746   3.405
  433TCM    cl1 2329   3.908   2.615   3.484
  433TCM    cl2 2330   3.836   2.738   3.228
  433TCM     h1 2331   3.707   2.733   3.429
  433TCM    cl3 2332   3.871   2.905   3.466
  434TCM     c1 2333   3.079   4.388   1.792
  434TCM    cl1 2334   3.134   4.246   1.696
  434TCM    cl2 2335   3.015   4.515   1.682
  434TCM     h1 2336   3.001   4.357   1.862
  434TCM    cl3 2337   3.218   4.455   1.884
  435TCM     c1 2338   0.328   0.963   4.202
  435TCM    cl1 2339   0.213   0.825   4.205
  435TCM    cl2 2340   0.427   0.960   4.351
  435TCM     h1 2341   0.393   0.954   4.114
  435TCM    cl3 2342   0.237   1.117   4.194
  436TCM     c1 2343   0.296   1.806   1.520
  436TCM    cl1 2344   0.276   1.881   1.681
  436TCM    cl2 2345   0.189   1.662   1.507
  436TCM     h1 2346   0.270   1.878   1.442
  436TCM    cl3 2347   0.467   1.754   1.498
  437TCM     c1 2348   4.804   2.732   1.241
  437TCM    cl1 2349   4.843   2.880   1.334
  437TCM    cl2 2350   4.905   2.724   1.094
  437TCM     h1 2351   4.822   2.644   1.303
  437TCM    cl3 2352   4.631   2.736   1.193
  438TCM     c1 2353   0.900   3.611   4.942
  438TCM    cl1 2354   0.814   3.454   4.929
  438TCM    cl2 2355   1.050   3.588   5.038
  438TCM     h1 2356   0.925   3.647   4.842
  438TCM    cl3 2357   0.795   3.731   5.024
  439TCM     c1 2358   3.544   1.262   1.596
  439TCM    cl1 2359   3.662   1.164   1.690
  439TCM    cl2 2360   3.632   1.397   1.517
  439TCM     h1 2361   3.497   1.199   1.520
  439TCM    cl3 2362   3.420   1.329   1.707
  440TCM     c1 2363   3.327   1.655   4.893
  440TCM    cl1 2364   3.335   1.808   4.987
  440TCM    cl2 2365   3.385   1.520   4.996
  440TCM     h1 2366   3.224   1.636   4.863
  440TCM    cl3 2367   3.430   1.670   4.748
  441TCM     c1 2368   0.172   3.890   3.931
  441TCM    cl1 2369   0.012   3.968   3.956
  441TCM    cl2 2370   0.249   3.860   4.091
  441TCM     h1 2371   0.159   3.796   3.878
  441TCM    cl3 2372   0.276   4.001   3.836
  442TCM     c1 2373   3.457   3.111   0.126
  442TCM    cl1 2374   3.450   3.064  -0.047
  442TCM    cl2 2375   3.629   3.130   0.174
  442TCM     h1 2376   3.404   3.205   0.142
  442TCM    cl3 2377   3.382   2.981   0.225
  443TCM     c1 2378   0.627   2.215   1.376
  443TCM    cl1 2379   0.515   2.319   1.282
  443TCM    cl2 2380   0.531   2.105   1.481
  443TCM     h1 2381   0.688   2.156   1.307
  443TCM    cl3 2382   0.733   2.317   1.478
  444TCM     c1 2383   3.990   4.954   4.958
  444TCM    cl1 2384   3.887   4.980   5.103
  444TCM    cl2 2385   4.084   5.103   4.923
  444TCM     h1 2386   4.058   4.871   4.976
  444TCM    cl3 2387   3.885   4.916   4.818
  445TCM     c1 2388   4.236   1.088   0.057
  445TCM    cl1 2389   4.149   0.933   0.031
  445TCM    cl2 2390   4.411   1.064   0.025
  445TCM     h1 2391   4.197   1.164  -0.011
  445TCM    cl3 2392   4.213   1.141   0.227
  446TCM     c1 2393   2.958   0.641   3.199
  446TCM    cl1 2394   2.956   0.743   3.346
  446TCM    cl2 2395   2.819   0.687   3.095
  446TCM     h1 2396   3.051   0.657   3.145
  446TCM    cl3 2397   2.944   0.468   3.245
  447TCM     c1 2398   4.239   1.241   4.655
  447TCM    cl1 2399   4.131   1.353   4.744
  447TCM    cl2 2400   4.190   1.072   4.690
  447TCM     h1 2401   4.232   1.259   4.548
  447TCM    cl3 2402   4.409   1.266   4.709
  448TCM     c1 2403   4.671   2.243   3.343
  448TCM    cl1 2404   4.843   2.284   3.373
  448TCM    cl2 2405   4.661   2.081   3.267
  448TCM     h1 2406   4.616   2.243   3.438
  448TCM    cl3 2407   4.599   2.365   3.233
  449TCM     c1 2408   4.760   4.701   3.399
  449TCM    cl1 2409   4.884   4.584   3.343
  449TCM    cl2 2410   4.618   4.698   3.288
  449TCM     h1 2411   4.727   4.674   3.499
  449TCM    cl3 2412   4.829   4.867   3.401
  450TCM     c1 2413   3.272   0.441   3.640
  450TCM    cl1 2414   3.243   0.411   3.815
  450TCM    cl2 2415   3.386   0.578   3.621
  450TCM     h1 2416   3.314   0.351   3.594
  450TCM    cl3 2417   3.116   0.480   3.561
  451TCM     c1 2418   3.648   3.498   1.315
  451TCM    cl1 2419   3.524   3.609   1.248
  451TCM    cl2 2420   3.569   3.348   1.376
  451TCM     h1 2421   3.719   3.471   1.237
  451TCM    cl3 2422   3.733   3.579   1.451
  452TCM     c1 2423   0.519   4.912   0.965
  452TCM    cl1 2424   0.467   5.067   1.040
  452TCM    cl2 2425   0.392   4.857   0.850
  452TCM     h1 2426   0.613   4.926   0.912
  452TCM    cl3 2427   0.538   4.788   1.093
  453TCM     c1 2428   2.169   3.596   3.612
  453TCM    cl1 2429   2.100   3.754   3.565
  453TCM    cl2 2430   2.057   3.512   3.723
  453TCM     h1 2431   2.186   3.534   3.523
  453TCM    cl3 2432   2.324   3.622   3.699
  454TCM     c1 2433   4.289   3.768   1.244
  454TCM    cl1 2434   4.442   3.838   1.306
  454TCM    cl2 2435   4.328   3.646   1.118
  454TCM     h1 2436   4.234   3.721   1.326
  454TCM    cl3 2437   4.189   3.898   1.171
  455TCM     c1 2438   3.058   4.087   4.504
  455TCM    cl1 2439   2.906   4.016   4.439
  455TCM    cl2 2440   3.019   4.195   4.641
  455TCM     h1 2441   3.123   4.006   4.538
  455TCM    cl3 2442   3.140   4.181   4.376
  456TCM     c1 2443   1.692   2.092   4.735
  456TCM    cl1 2444   1.682   1.993   4.585
  456TCM    cl2 2445   1.572   2.032   4.854
  456TCM     h1 2446   1.793   2.085   4.777
  456TCM    cl3 2447   1.655   2.263   4.696
  457TCM     c1 2448   1.473   3.134   1.849
  457TCM    cl1 2449   1.650   3.119   1.876
  457TCM    cl2 2450   1.408   3.260   1.959
  457TCM     h1 2451   1.454   3.163   1.746
  457TCM    cl3 2452   1.393   2.978   1.884
  458TCM     c1 2453   3.881   4.215   3.229
  458TCM    cl1 2454   3.816   4.180   3.392
  458TCM    cl2 2455   4.048   4.149   3.216
  458TCM     h1 2456   3.818   4.168   3.153
  458TCM    cl3 2457   3.886   4.393   3.203
  459TCM     c1 2458   0.408   0.936   3.675
  459TCM    cl1 2459   0.297   0.845   3.568
  459TCM    cl2 2460   0.550   0.834   3.714
  459TCM     h1 2461   0.441   1.028   3.625
  459TCM    cl3 2462   0.322   0.977   3.828
  460TCM     c1 2463   1.649   3.924   0.387
  460TCM    cl1 2464   1.667   3.791   0.268
  460TCM    cl2 2465   1.807   3.951   0.469
  460TCM     h1 2466   1.619   4.015   0.336
  460TCM    cl3 2467   1.526   3.880   0.510
  461TCM     c1 2468   2.970   0.151   0.012
  461TCM    cl1 2469   2.875   0.175   0.162
  461TCM    cl2 2470   3.025   0.310  -0.051
  461TCM     h1 2471   3.057   0.088   0.034
  461TCM    cl3 2472   2.868   0.073  -0.113
  462TCM     c1 2473   3.477   0.670   3.247
  462TCM    cl1 2474   3.528   0.589   3.095
  462TCM    cl2 2475   3.303   0.639   3.275
  462TCM     h1 2476   3.535   0.631   3.331
  462TCM    cl3 2477   3.504   0.846   3.231
  463TCM     c1 2478   4.887   4.600   3.792
  463TCM    cl1 2479   4.786   4.745   3.762
  463TCM    cl2 2480   5.055   4.633   3.737
  463TCM     h1 2481   4.887   4.576   3.899
  463TCM    cl3 2482   4.821   4.462   3.699
  464TCM     c1 2483   4.247   1.574   0.029
  464TCM    cl1 2484   4.359   1.434   0.029
  464TCM    cl2 2485   4.361   1.620  -0.103
  464TCM     h1 2486   4.266   1.678   0.057
  464TCM    cl3 2487   4.278   1.554   0.204
  465TCM     c1 2488   0.067   0.641   2.793
  465TCM    cl1 2489   0.033   0.799   2.872
  465TCM    cl2 2490  -0.076   0.535   2.811
  465TCM     h1 2491   0.087   0.658   2.686
  465TCM    cl3 2492   0.209   0.564   2.869
  466TCM     c1 2493   0.228   1.921   2.070
  466TCM    cl1 2494   0.292   2.065   2.155
  466TCM    cl2 2495   0.078   1.868   2.153
  466TCM     h1 2496   0.206   1.947   1.966
  466TCM    cl3 2497   0.351   1.790   2.075
  467TCM     c1 2498   3.558   2.420   1.503
  467TCM    cl1 2499   3.697   2.333   1.431
  467TCM    cl2 2500   3.568   2.594   1.457
  467TCM     h1 2501   3.464   2.378   1.466
  467TCM    cl3 2502   3.566   2.405   1.681
  468TCM     c1 2503   2.778   0.620   4.106
  468TCM    cl1 2504   2.839   0.528   3.964
  468TCM    cl2 2505   2.823   0.792   4.089
  468TCM     h1 2506   2.669   0.611   4.111
  468TCM    cl3 2507   2.851   0.552   4.255
  469TCM     c1 2508   4.215   2.450   4.832
  469TCM    cl1 2509   4.205   2.393   4.662
  469TCM    cl2 2510   4.386   2.449   4.885
  469TCM     h1 2511   4.174   2.552   4.838
  469TCM    cl3 2512   4.119   2.341   4.937
  470TCM     c1 2513   3.256   0.674   2.860
  470TCM    cl1 2514   3.223   0.817   2.963
  470TCM    cl2 2515   3.183   0.699   2.698
  470TCM     h1 2516   3.364   0.659   2.850
  470TCM    cl3 2517   3.182   0.529   2.936
  471TCM     c1 2518   2.979   1.989   3.093
  471TCM    cl1 2519   2.922   1.931   3.253
  471TCM    cl2 2520   2.848   2.080   3.012
  471TCM     h1 2521   3.066   2.055   3.107
  471TCM    cl3 2522   3.026   1.848   2.993
  472TCM     c1 2523   3.213   1.217   1.292
  472TCM    cl1 2524   3.191   1.172   1.464
  472TCM    cl2 2525   3.236   1.069   1.193
  472TCM     h1 2526   3.125   1.271   1.257
  472TCM    cl3 2527   3.359   1.321   1.278
  473TCM     c1 2528   0.136   3.188   1.234
  473TCM    cl1 2529   0.106   3.067   1.104
  473TCM    cl2 2530   0.126   3.108   1.395
  473TCM     h1 2531   0.235   3.231   1.221
  473TCM    cl3 2532   0.012   3.317   1.225
  474TCM     c1 2533   2.521   3.581   4.478
  474TCM    cl1 2534   2.496   3.405   4.506
  474TCM    cl2 2535   2.669   3.635   4.563
  474TCM     h1 2536   2.532   3.600   4.371
  474TCM    cl3 2537   2.379   3.670   4.541
  475TCM     c1 2538   1.733   1.530   1.749
  475TCM    cl1 2539   1.592   1.502   1.856
  475TCM    cl2 2540   1.719   1.693   1.674
  475TCM     h1 2541   1.825   1.524   1.807
  475TCM    cl3 2542   1.736   1.406   1.619
  476TCM     c1 2543   4.450   2.409   0.290
  476TCM    cl1 2544   4.532   2.271   0.210
  476TCM    cl2 2545   4.273   2.396   0.264
  476TCM     h1 2546   4.472   2.409   0.397
  476TCM    cl3 2547   4.509   2.561   0.216
  477TCM     c1 2548   2.984   4.439   3.696
  477TCM    cl1 2549   2.911   4.310   3.594
  477TCM    cl2 2550   3.113   4.368   3.797
  477TCM     h1 2551   3.025   4.517   3.631
  477TCM    cl3 2552   2.859   4.511   3.803
  478TCM     c1 2553   4.836   3.708   0.224
  478TCM    cl1 2554   4.991   3.745   0.307
  478TCM    cl2 2555   4.844   3.543   0.152
  478TCM     h1 2556   4.754   3.713   0.295
  478TCM    cl3 2557   4.809   3.829   0.094
  479TCM     c1 2558   1.455   2.602   2.963
  479TCM    cl1 2559   1.558   2.595   3.109
  479TCM    cl2 2560   1.436   2.772   2.910
  479TCM     h1 2561   1.502   2.544   2.883
  479TCM    cl3 2562   1.294   2.533   3.000
  480TCM     c1 2563   2.564   2.484   1.207
  480TCM    cl1 2564   2.741   2.479   1.172
  480TCM    cl2 2565   2.492   2.626   1.125
  480TCM     h1 2566   2.517   2.393   1.170
  480TCM    cl3 2567   2.539   2.497   1.384
  481TCM     c1 2568   4.718   3.375   3.337
  481TCM    cl1 2569   4.672   3.304   3.496
  481TCM    cl2 2570   4.792   3.537   3.362
  481TCM     h1 2571   4.790   3.309   3.288
  481TCM    cl3 2572   4.571   3.390   3.236
  482TCM     c1 2573   2.321   4.819   3.220
  482TCM    cl1 2574   2.488   4.755   3.232
  482TCM    cl2 2575   2.323   4.974   3.129
  482TCM     h1 2576   2.257   4.747   3.169
  482TCM    cl3 2577   2.258   4.849   3.385
  483TCM     c1 2578   4.902   2.804   3.983
  483TCM    cl1 2579   5.022   2.908   4.068
  483TCM    cl2 2580   4.977   2.733   3.836
  483TCM     h1 2581   4.870   2.724   4.050
  483TCM    cl3 2582   4.761   2.904   3.937
  484TCM     c1 2583   2.400   2.203   3.623
  484TCM    cl1 2584   2.523   2.328   3.661
  484TCM    cl2 2585   2.417   2.065   3.736
  484TCM     h1 2586   2.300   2.246   3.634
  484TCM    cl3 2587   2.423   2.146   3.455
  485TCM     c1 2588   1.881   0.847   4.038
  485TCM    cl1 2589   1.742   0.744   3.991
  485TCM    cl2 2590   1.889   0.857   4.217
  485TCM     h1 2591   1.974   0.803   3.999
  485TCM    cl3 2592   1.860   1.012   3.971
  486TCM     c1 2593   0.718   4.928   0.419
  486TCM    cl1 2594   0.671   4.831   0.275
  486TCM    cl2 2595   0.615   4.881   0.558
  486TCM     h1 2596   0.823   4.909   0.443
  486TCM    cl3 2597   0.695   5.102   0.383
  487TCM     c1 2598   3.759   1.077   3.352
  487TCM    cl1 2599   3.935   1.083   3.386
  487TCM    cl2 2600   3.702   1.241   3.304
  487TCM     h1 2601   3.740   1.007   3.270
  487TCM    cl3 2602   3.672   1.023   3.499
  488TCM     c1 2603   3.035   4.683   3.148
  488TCM    cl1 2604   3.146   4.812   3.205
  488TCM    cl2 2605   2.868   4.749   3.140
  488TCM     h1 2606   3.066   4.649   3.049
  488TCM    cl3 2607   3.039   4.545   3.264
  489TCM     c1 2608   1.916   2.640   2.940
  489TCM    cl1 2609   1.786   2.594   2.825
  489TCM    cl2 2610   1.924   2.520   3.074
  489TCM     h1 2611   2.012   2.644   2.888
  489TCM    cl3 2612   1.880   2.801   3.010
  490TCM     c1 2613   1.100   0.515   0.044
  490TCM    cl1 2614   1.143   0.541  -0.128
  490TCM    cl2 2615   1.027   0.665   0.110
  490TCM     h1 2616   1.028   0.433   0.051
  490TCM    cl3 2617   1.247   0.474   0.137
  491TCM     c1 2618   2.255   4.295   4.274
  491TCM    cl1 2619   2.251   4.362   4.441
  491TCM    cl2 2620   2.423   4.303   4.212
  491TCM     h1 2621   2.221   4.191   4.275
  491TCM    cl3 2622   2.148   4.393   4.169
  492TCM     c1 2623   0.457   3.635   4.753
  492TCM    cl1 2624   0.624   3.664   4.694
  492TCM    cl2 2625   0.458   3.621   4.932
  492TCM     h1 2626   0.393   3.719   4.723
  492TCM    cl3 2627   0.394   3.483   4.682
  493TCM     c1 2628   0.053   2.789   1.625
  493TCM    cl1 2629  -0.046   2.642   1.594
  493TCM    cl2 2630   0.226   2.743   1.637
  493TCM     h1 2631   0.039   2.860   1.543
  493TCM    cl3 2632   0.000   2.863   1.780
  494TCM     c1 2633   3.212   1.078   3.414
  494TCM    cl1 2634   3.263   0.937   3.514
  494TCM    cl2 2635   3.162   1.021   3.252
  494TCM     h1 2636   3.129   1.129   3.462
  494TCM    cl3 2637   3.350   1.192   3.399
  495TCM     c1 2638   1.240   4.917   1.046
  495TCM    cl1 2639   1.128   4.873   0.913
  495TCM    cl2 2640   1.165   4.875   1.204
  495TCM     h1 2641   1.334   4.862   1.035
  495TCM    cl3 2642   1.271   5.093   1.041
  496TCM     c1 2643   2.476   2.822   3.771
  496TCM    cl1 2644   2.347   2.720   3.702
  496TCM    cl2 2645   2.623   2.722   3.795
  496TCM     h1 2646   2.498   2.905   3.703
  496TCM    cl3 2647   2.423   2.889   3.929
  497TCM     c1 2648   4.812   3.056   0.889
  497TCM    cl1 2649   4.716   2.919   0.825
  497TCM    cl2 2650   4.745   3.108   1.047
  497TCM     h1 2651   4.916   3.026   0.901
  497TCM    cl3 2652   4.803   3.194   0.773
  498TCM     c1 2653   1.652   0.044   0.014
  498TCM    cl1 2654   1.733   0.049  -0.146
  498TCM    cl2 2655   1.720   0.173   0.118
  498TCM     h1 2656   1.545   0.060   0.002
  498TCM    cl3 2657   1.680  -0.116   0.089
  499TCM     c1 2658   0.781   1.682   3.063
  499TCM    cl1 2659   0.714   1.516   3.056
  499TCM    cl2 2660   0.678   1.781   3.172
  499TCM     h1 2661   0.883   1.680   3.101
  499TCM    cl3 2662   0.779   1.754   2.898
  500TCM     c1 2663   2.636   3.632   2.208
  500TCM    cl1 2664   2.558   3.649   2.047
  500TCM    cl2 2665   2.540   3.519   2.309
  500TCM     h1 2666   2.738   3.593   2.195
  500TCM    cl3 2667   2.644   3.793   2.288
  501TCM     c1 2668   1.338   0.543   2.787
  501TCM    cl1 2669   1.426   0.675   2.704
  501TCM    cl2 2670   1.213   0.476   2.677
  501TCM     h1 2671   1.409   0.464   2.815
  501TCM    cl3 2672   1.259   0.607   2.935
  502TCM     c1 2673   4.879   0.224   2.966
  502TCM    cl1 2674   4.793   0.197   2.811
  502TCM    cl2 2675   5.056   0.207   2.941
  502TCM     h1 2676   4.857   0.324   3.003
  502TCM    cl3 2677   4.824   0.103   3.086
  503TCM     c1 2678   2.616   3.862   3.054
  503TCM    cl1 2679   2.605   3.898   2.879
  503TCM    cl2 2680   2.749   3.743   3.081
  503TCM     h1 2681   2.638   3.954   3.109
  503TCM    cl3 2682   2.461   3.791   3.111
  504TCM     c1 2683   0.016   4.815  -0.000
  504TCM    cl1 2684   0.004   4.734  -0.160
  504TCM    cl2 2685   0.143   4.736   0.098
  504TCM     h1 2686   0.041   4.920  -0.015
  504TCM    cl3 2687  -0.142   4.802   0.085
  505TCM     c1 2688   1.445   3.953   4.956
  505TCM    cl1 2689   1.418   4.041   5.109
  505TCM    cl2 2690   1.383   4.051   4.819
  505TCM     h1 2691   1.552   3.934   4.942
  505TCM    cl3 2692   1.358   3.796   4.962
  506TCM     c1 2693   0.328   1.940   3.205
  506TCM    cl1 2694   0.169   2.020   3.182
  506TCM    cl2 2695   0.323   1.834   3.349
  506TCM     h1 2696   0.352   1.881   3.116
  506TCM    cl3 2697   0.454   2.066   3.228
  507TCM     c1 2698   4.402   0.222   4.559
  507TCM    cl1 2699   4.578   0.212   4.592
  507TCM    cl2 2700   4.319   0.288   4.704
  507TCM     h1 2701   4.384   0.288   4.473
  507TCM    cl3 2702   4.339   0.058   4.525
  508TCM     c1 2703   4.106   2.133   2.301
  508TCM    cl1 2704   4.027   2.284   2.357
  508TCM    cl2 2705   4.006   1.992   2.346
  508TCM     h1 2706   4.119   2.136   2.192
  508TCM    cl3 2707   4.267   2.119   2.379
  509TCM     c1 2708   3.329   4.694   1.609
  509TCM    cl1 2709   3.468   4.803   1.645
  509TCM    cl2 2710   3.389   4.543   1.532
  509TCM     h1 2711   3.277   4.670   1.702
  509TCM    cl3 2712   3.216   4.777   1.496
  510TCM     c1 2713   0.087   4.665   0.816
  510TCM    cl1 2714  -0.023   4.542   0.885
  510TCM    cl2 2715  -0.009   4.794   0.736
  510TCM     h1 2716   0.148   4.709   0.895
  510TCM    cl3 2717   0.194   4.587   0.695
  511TCM     c1 2718   3.571   4.737   0.105
  511TCM    cl1 2719   3.537   4.879   0.000
  511TCM    cl2 2720   3.524   4.587   0.019
  511TCM     h1 2721   3.678   4.734   0.129
  511TCM    cl3 2722   3.476   4.752   0.257
  512TCM     c1 2723   0.463   4.941   2.187
  512TCM    cl1 2724   0.307   5.028   2.197
  512TCM    cl2 2725   0.545   4.945   2.346
  512TCM     h1 2726   0.446   4.838   2.157
  512TCM    cl3 2727   0.568   5.022   2.065
  513TCM     c1 2728   2.748   4.925   4.216
  513TCM    cl1 2729   2.847   4.786   4.271
  513TCM    cl2 2730   2.686   4.893   4.050
  513TCM     h1 2731   2.664   4.940   4.284
  513TCM    cl3 2732   2.850   5.073   4.214
  514TCM     c1 2733   4.048   4.002   1.542
  514TCM    cl1 2734   4.006   4.025   1.715
  514TCM    cl2 2735   4.021   3.830   1.498
  514TCM     h1 2736   3.985   4.066   1.480
  514TCM    cl3 2737   4.221   4.043   1.517
  515TCM     c1 2738   2.986   3.598   4.754
  515TCM    cl1 2739   3.031   3.741   4.655
  515TCM    cl2 2740   3.036   3.625   4.924
  515TCM     h1 2741   2.878   3.582   4.749
  515TCM    cl3 2742   3.070   3.454   4.688
  516TCM     c1 2743   2.584   0.310   4.266
  516TCM    cl1 2744   2.598   0.284   4.089
  516TCM    cl2 2745   2.490   0.176   4.340
  516TCM     h1 2746   2.684   0.313   4.311
  516TCM    cl3 2747   2.501   0.466   4.294
  517TCM     c1 2748   3.112   3.173   1.929
  517TCM    cl1 2749   3.134   3.339   1.994
  517TCM    cl2 2750   3.242   3.141   1.810
  517TCM     h1 2751   3.117   3.100   2.010
  517TCM    cl3 2752   2.953   3.162   1.847
  518TCM     c1 2753   4.780   2.779   3.456
  518TCM    cl1 2754   4.958   2.771   3.434
  518TCM    cl2 2755   4.740   2.920   3.559
  518TCM     h1 2756   4.731   2.789   3.359
  518TCM    cl3 2757   4.723   2.628   3.536
  519TCM     c1 2758   1.679   3.128   2.796
  519TCM    cl1 2759   1.701   2.963   2.727
  519TCM    cl2 2760   1.799   3.154   2.927
  519TCM     h1 2761   1.695   3.203   2.718
  519TCM    cl3 2762   1.513   3.144   2.862
  520TCM     c1 2763   2.845   4.092   1.493
  520TCM    cl1 2764   2.718   3.966   1.506
  520TCM    cl2 2765   2.788   4.243   1.571
  520TCM     h1 2766   2.936   4.058   1.544
  520TCM    cl3 2767   2.880   4.122   1.320
  521TCM     c1 2768   0.201   1.360   2.751
  521TCM    cl1 2769   0.241   1.506   2.655
  521TCM    cl2 2770   0.274   1.375   2.915
  521TCM     h1 2771   0.093   1.350   2.759
  521TCM    cl3 2772   0.270   1.215   2.672
  522TCM     c1 2773   4.388   3.395   2.876
  522TCM    cl1 2774   4.274   3.335   3.001
  522TCM    cl2 2775   4.538   3.297   2.882
  522TCM     h1 2776   4.342   3.385   2.778
  522TCM    cl3 2777   4.427   3.568   2.907
  523TCM     c1 2778   2.553   4.858   2.408
  523TCM    cl1 2779   2.501   5.030   2.405
  523TCM    cl2 2780   2.433   4.763   2.502
  523TCM     h1 2781   2.558   4.820   2.306
  523TCM    cl3 2782   2.714   4.844   2.485
  524TCM     c1 2783   2.866   3.182   2.268
  524TCM    cl1 2784   2.838   3.041   2.161
  524TCM    cl2 2785   2.828   3.332   2.178
  524TCM     h1 2786   2.802   3.175   2.357
  524TCM    cl3 2787   3.038   3.185   2.318
  525TCM     c1 2788   1.953   3.288   4.059
  525TCM    cl1 2789   1.899   3.457   4.031
  525TCM    cl2 2790   2.119   3.266   3.992
  525TCM     h1 2791   1.954   3.267   4.166
  525TCM    cl3 2792   1.839   3.176   3.977
  526TCM     c1 2793   4.749   1.817   0.200
  526TCM    cl1 2794   4.723   1.972   0.286
  526TCM    cl2 2795   4.844   1.847   0.050
  526TCM     h1 2796   4.804   1.748   0.265
  526TCM    cl3 2797   4.591   1.746   0.157
  527TCM     c1 2798   2.060   2.962   1.893
  527TCM    cl1 2799   1.993   3.085   2.006
  527TCM    cl2 2800   1.969   2.969   1.738
  527TCM     h1 2801   2.165   2.982   1.875
  527TCM    cl3 2802   2.043   2.799   1.966
  528TCM     c1 2803   1.964   0.330   4.679
  528TCM    cl1 2804   1.982   0.505   4.646
  528TCM    cl2 2805   2.124   0.250   4.670
  528TCM     h1 2806   1.921   0.315   4.779
  528TCM    cl3 2807   1.854   0.258   4.556
  529TCM     c1 2808   0.219   0.038   3.714
  529TCM    cl1 2809   0.053  -0.002   3.662
  529TCM    cl2 2810   0.284   0.169   3.608
  529TCM     h1 2811   0.218   0.072   3.818
  529TCM    cl3 2812   0.325  -0.105   3.698
  530TCM     c1 2813   1.415   4.484   1.530
  530TCM    cl1 2814   1.570   4.396   1.515
  530TCM    cl2 2815   1.428   4.603   1.664
  530TCM     h1 2816   1.393   4.536   1.437
  530TCM    cl3 2817   1.283   4.367   1.566
  531TCM     c1 2818   4.914   0.781   4.012
  531TCM    cl1 2819   4.877   0.955   4.035
  531TCM    cl2 2820   5.037   0.762   3.883
  531TCM     h1 2821   4.952   0.739   4.105
  531TCM    cl3 2822   4.764   0.695   3.964
  532TCM     c1 2823   2.236   3.038   0.054
  532TCM    cl1 2824   2.183   2.942   0.196
  532TCM    cl2 2825   2.245   2.933  -0.091
  532TCM     h1 2826   2.165   3.119   0.036
  532TCM    cl3 2827   2.399   3.106   0.086
  533TCM     c1 2828   2.574   4.275   1.175
  533TCM    cl1 2829   2.600   4.129   1.073
  533TCM    cl2 2830   2.513   4.225   1.336
  533TCM     h1 2831   2.669   4.327   1.186
  533TCM    cl3 2832   2.454   4.383   1.097
  534TCM     c1 2833   1.407   0.880   3.709
  534TCM    cl1 2834   1.379   0.894   3.532
  534TCM    cl2 2835   1.564   0.955   3.750
  534TCM     h1 2836   1.326   0.931   3.763
  534TCM    cl3 2837   1.409   0.707   3.756
  535TCM     c1 2838   1.570   1.049   2.655
  535TCM    cl1 2839   1.466   1.071   2.800
  535TCM    cl2 2840   1.468   1.005   2.514
  535TCM     h1 2841   1.622   1.143   2.634
  535TCM    cl3 2842   1.690   0.919   2.685
  536TCM     c1 2843   1.990   2.990   3.668
  536TCM    cl1 2844   2.031   3.164   3.655
  536TCM    cl2 2845   1.812   2.973   3.668
  536TCM     h1 2846   2.032   2.936   3.582
  536TCM    cl3 2847   2.057   2.923   3.820
  537TCM     c1 2848   3.503   4.243   2.803
  537TCM    cl1 2849   3.585   4.172   2.661
  537TCM    cl2 2850   3.626   4.282   2.929
  537TCM     h1 2851   3.451   4.335   2.773
  537TCM    cl3 2852   3.384   4.127   2.871
  538TCM     c1 2853   2.447   4.922   0.352
  538TCM    cl1 2854   2.563   4.953   0.218
  538TCM    cl2 2855   2.302   5.025   0.328
  538TCM     h1 2856   2.418   4.816   0.351
  538TCM    cl3 2857   2.524   4.963   0.509
  539TCM     c1 2858   1.717   3.571   3.730
  539TCM    cl1 2859   1.568   3.633   3.810
  539TCM    cl2 2860   1.739   3.656   3.574
  539TCM     h1 2861   1.803   3.590   3.795
  539TCM    cl3 2862   1.701   3.395   3.700
  540TCM     c1 2863   2.010   2.043   1.446
  540TCM    cl1 2864   1.909   2.142   1.336
  540TCM    cl2 2865   2.124   2.149   1.536
  540TCM     h1 2866   1.946   1.991   1.517
  540TCM    cl3 2867   2.102   1.923   1.350
  541TCM     c1 2868   1.968   1.145   1.926
  541TCM    cl1 2869   1.901   1.304   1.975
  541TCM    cl2 2870   1.959   1.129   1.748
  541TCM     h1 2871   2.072   1.138   1.959
  541TCM    cl3 2872   1.873   1.015   2.004
  542TCM     c1 2873   2.038   2.617   0.333
  542TCM    cl1 2874   2.174   2.572   0.440
  542TCM    cl2 2875   1.896   2.513   0.371
  542TCM     h1 2876   2.012   2.722   0.348
  542TCM    cl3 2877   2.086   2.591   0.162
  543TCM     c1 2878   3.215   2.350   4.184
  543TCM    cl1 2879   3.038   2.380   4.180
  543TCM    cl2 2880   3.258   2.273   4.340
  543TCM     h1 2881   3.243   2.284   4.102
  543TCM    cl3 2882   3.302   2.506   4.169
  544TCM     c1 2883   0.647   0.490   1.814
  544TCM    cl1 2884   0.777   0.613   1.802
  544TCM    cl2 2885   0.708   0.349   1.906
  544TCM     h1 2886   0.560   0.532   1.864
  544TCM    cl3 2887   0.601   0.436   1.649
  545TCM     c1 2888   4.161   4.667   0.599
  545TCM    cl1 2889   4.073   4.664   0.755
  545TCM    cl2 2890   4.213   4.835   0.563
  545TCM     h1 2891   4.249   4.603   0.606
  545TCM    cl3 2892   4.054   4.608   0.468
  546TCM     c1 2893   0.081   4.026   0.827
  546TCM    cl1 2894  -0.001   3.904   0.930
  546TCM    cl2 2895  -0.023   4.172   0.812
  546TCM     h1 2896   0.177   4.055   0.873
  546TCM    cl3 2897   0.111   3.957   0.665
  547TCM     c1 2898   1.987   2.054   3.680
  547TCM    cl1 2899   1.982   2.218   3.608
  547TCM    cl2 2900   2.054   2.065   3.846
  547TCM     h1 2901   1.887   2.012   3.683
  547TCM    cl3 2902   2.094   1.949   3.580
  548TCM     c1 2903   0.461   3.944   1.027
  548TCM    cl1 2904   0.387   3.854   0.891
  548TCM    cl2 2905   0.340   4.056   1.098
  548TCM     h1 2906   0.495   3.874   1.103
  548TCM    cl3 2907   0.601   4.039   0.966
  549TCM     c1 2908   1.176   3.607   0.385
  549TCM    cl1 2909   1.190   3.431   0.420
  549TCM    cl2 2910   1.324   3.660   0.298
  549TCM     h1 2911   1.088   3.625   0.322
  549TCM    cl3 2912   1.161   3.698   0.538
  550TCM     c1 2913   2.959   1.861   2.404
  550TCM    cl1 2914   3.079   1.888   2.274
  550TCM    cl2 2915   2.805   1.943   2.362
  550TCM     h1 2916   2.940   1.754   2.415
  550TCM    cl3 2917   3.023   1.928   2.557
  551TCM     c1 2918   1.730   2.491   2.327
  551TCM    cl1 2919   1.671   2.653   2.376
  551TCM    cl2 2920   1.751   2.390   2.473
  551TCM     h1 2921   1.658   2.444   2.259
  551TCM    cl3 2922   1.888   2.509   2.243
  552TCM     c1 2923   3.171   4.944   1.987
  552TCM    cl1 2924   3.103   5.109   2.013
  552TCM    cl2 2925   3.102   4.875   1.836
  552TCM     h1 2926   3.279   4.951   1.978
  552TCM    cl3 2927   3.127   4.840   2.126
  553TCM     c1 2928   0.687   2.541   4.220
  553TCM    cl1 2929   0.857   2.584   4.259
  553TCM    cl2 2930   0.618   2.667   4.113
  553TCM     h1 2931   0.685   2.444   4.169
  553TCM    cl3 2932   0.592   2.531   4.372
  554TCM     c1 2933   4.478   3.678   4.937
  554TCM    cl1 2934   4.475   3.659   5.116
  554TCM    cl2 2935   4.613   3.581   4.870
  554TCM     h1 2936   4.383   3.644   4.895
  554TCM    cl3 2937   4.503   3.851   4.896
  555TCM     c1 2938   4.960   1.919   3.545
  555TCM    cl1 2939   5.080   2.051   3.530
  555TCM    cl2 2940   4.934   1.841   3.385
  555TCM     h1 2941   4.996   1.844   3.616
  555TCM    cl3 2942   4.804   1.987   3.604
  556TCM     c1 2943   3.957   2.129   2.692
  556TCM    cl1 2944   3.948   2.207   2.853
  556TCM    cl2 2945   3.792   2.105   2.628
  556TCM     h1 2946   4.014   2.194   2.624
  556TCM    cl3 2947   4.040   1.971   2.707
  557TCM     c1 2948   1.235   2.658   0.073
  557TCM    cl1 2949   1.370   2.776   0.076
  557TCM    cl2 2950   1.079   2.746   0.061
  557TCM     h1 2951   1.246   2.592  -0.014
  557TCM    cl3 2952   1.237   2.561   0.223
  558TCM     c1 2953   3.400   1.962   2.839
  558TCM    cl1 2954   3.379   2.016   2.669
  558TCM    cl2 2955   3.304   2.068   2.947
  558TCM     h1 2956   3.366   1.859   2.849
  558TCM    cl3 2957   3.573   1.973   2.884
  559TCM     c1 2958   2.782   4.598   0.870
  559TCM    cl1 2959   2.626   4.671   0.920
  559TCM    cl2 2960   2.784   4.577   0.691
  559TCM     h1 2961   2.864   4.664   0.900
  559TCM    cl3 2962   2.800   4.438   0.948
  560TCM     c1 2963   1.596   3.602   0.758
  560TCM    cl1 2964   1.618   3.481   0.889
  560TCM    cl2 2965   1.535   3.520   0.610
  560TCM     h1 2966   1.525   3.678   0.790
  560TCM    cl3 2967   1.755   3.679   0.724
  561TCM     c1 2968   4.825   2.758   4.832
  561TCM    cl1 2969   4.918   2.857   4.949
  561TCM    cl2 2970   4.706   2.658   4.921
  561TCM     h1 2971   4.773   2.823   4.761
  561TCM    cl3 2972   4.937   2.650   4.742
  562TCM     c1 2973   2.692   4.918   2.865
  562TCM    cl1 2974   2.863   4.909   2.810
  562TCM    cl2 2975   2.612   4.760   2.839
  562TCM     h1 2976   2.690   4.942   2.971
  562TCM    cl3 2977   2.607   5.047   2.773
  563TCM     c1 2978   4.430   3.796   3.575
  563TCM    cl1 2979   4.312   3.776   3.708
  563TCM    cl2 2980   4.356   3.890   3.441
  563TCM     h1 2981   4.518   3.849   3.612
  563TCM    cl3 2982   4.479   3.635   3.514
  564TCM     c1 2983   1.582   0.817   3.028
  564TCM    cl1 2984   1.640   0.648   3.013
  564TCM    cl2 2985   1.724   0.924   3.053
  564TCM     h1 2986   1.528   0.846   2.937
  564TCM    cl3 2987   1.472   0.830   3.170
  565TCM     c1 2988   3.098   2.503   4.592
  565TCM    cl1 2989   3.233   2.620   4.596
  565TCM    cl2 2990   2.962   2.571   4.497
  565TCM     h1 2991   3.131   2.409   4.547
  565TCM    cl3 2992   3.041   2.472   4.760
  566TCM     c1 2993   2.239   4.025   0.559
  566TCM    cl1 2994   2.196   4.039   0.385
  566TCM    cl2 2995   2.418   4.013   0.574
  566TCM     h1 2996   2.204   4.113   0.613
  566TCM    cl3 2997   2.162   3.878   0.627
  567TCM     c1 2998   3.025   1.687   0.216
  567TCM    cl1 2999   3.035   1.864   0.188
  567TCM    cl2 3000   3.010   1.603   0.059
  567TCM     h1 3001   3.115   1.652   0.268
  567TCM    cl3 3002   2.881   1.651   0.317
  568TCM     c1 3003   2.343   1.692   3.684
  568TCM    cl1 3004   2.519   1.699   3.720
  568TCM    cl2 3005   2.251   1.709   3.837
  568TCM     h1 3006   2.316   1.773   3.617
  568TCM    cl3 3007   2.303   1.534   3.608
  569TCM     c1 3008   0.970   0.865   2.690
  569TCM    cl1 3009   1.139   0.921   2.709
  569TCM    cl2 3010   0.963   0.745   2.556
  569TCM     h1 3011   0.937   0.818   2.783
  569TCM    cl3 3012   0.864   1.004   2.652
  570TCM     c1 3013   2.370   4.236   4.963
  570TCM    cl1 3014   2.268   4.094   5.001
  570TCM    cl2 3015   2.355   4.276   4.789
  570TCM     h1 3016   2.337   4.322   5.023
  570TCM    cl3 3017   2.541   4.198   5.000
  571TCM     c1 3018   2.028   4.330   1.554
  571TCM    cl1 3019   1.934   4.241   1.679
  571TCM    cl2 3020   1.943   4.318   1.397
  571TCM     h1 3021   2.036   4.435   1.583
  571TCM    cl3 3022   2.192   4.258   1.540
  572TCM     c1 3023   0.793   2.517   4.977
  572TCM    cl1 3024   0.671   2.582   5.093
  572TCM    cl2 3025   0.708   2.422   4.851
  572TCM     h1 3026   0.847   2.600   4.931
  572TCM    cl3 3027   0.908   2.412   5.066
  573TCM     c1 3028   1.424   1.109   1.702
  573TCM    cl1 3029   1.406   1.258   1.603
  573TCM    cl2 3030   1.274   1.082   1.797
  573TCM     h1 3031   1.442   1.024   1.637
  573TCM    cl3 3032   1.563   1.129   1.814
  574TCM     c1 3033   0.212   3.531   3.549
  574TCM    cl1 3034   0.239   3.685   3.638
  574TCM    cl2 3035   0.208   3.565   3.373
  574TCM     h1 3036   0.294   3.461   3.571
  574TCM    cl3 3037   0.056   3.460   3.602
  575TCM     c1 3038   4.988   0.425   3.372
  575TCM    cl1 3039   4.966   0.483   3.203
  575TCM    cl2 3040   5.124   0.516   3.448
  575TCM     h1 3041   4.896   0.442   3.429
  575TCM    cl3 3042   5.026   0.250   3.371
  576TCM     c1 3043   4.140   4.903   3.202
  576TCM    cl1 3044   4.106   5.065   3.132
  576TCM    cl2 3045   4.301   4.905   3.281
  576TCM     h1 3046   4.063   4.879   3.276
  576TCM    cl3 3047   4.139   4.782   3.070
  577TCM     c1 3048   3.054   3.795   1.365
  577TCM    cl1 3049   3.159   3.890   1.474
  577TCM    cl2 3050   2.942   3.696   1.465
  577TCM     h1 3051   2.996   3.863   1.301
  577TCM    cl3 3052   3.152   3.686   1.262
  578TCM     c1 3053   4.462   4.233   3.458
  578TCM    cl1 3054   4.310   4.321   3.423
  578TCM    cl2 3055   4.469   4.191   3.632
  578TCM     h1 3056   4.465   4.142   3.398
  578TCM    cl3 3057   4.603   4.337   3.416
  579TCM     c1 3058   0.732   3.484   0.352
  579TCM    cl1 3059   0.591   3.494   0.243
  579TCM    cl2 3060   0.806   3.647   0.371
  579TCM     h1 3061   0.700   3.448   0.450
  579TCM    cl3 3062   0.854   3.372   0.284
  580TCM     c1 3063   0.080   2.043   4.828
  580TCM    cl1 3064   0.185   1.973   4.956
  580TCM    cl2 3065   0.084   1.933   4.686
  580TCM     h1 3066  -0.022   2.051   4.865
  580TCM    cl3 3067   0.142   2.205   4.781
  581TCM     c1 3068   0.892   0.209   2.340
  581TCM    cl1 3069   0.735   0.273   2.283
  581TCM    cl2 3070   0.866   0.105   2.483
  581TCM     h1 3071   0.938   0.150   2.260
  581TCM    cl3 3072   1.001   0.345   2.384
  582TCM     c1 3073   0.787   1.117   3.995
  582TCM    cl1 3074   0.851   1.062   4.153
  582TCM    cl2 3075   0.608   1.121   4.001
  582TCM     h1 3076   0.825   1.216   3.972
  582TCM    cl3 3077   0.838   1.001   3.868
  583TCM     c1 3078   3.681   2.623   3.870
  583TCM    cl1 3079   3.621   2.691   3.715
  583TCM    cl2 3080   3.624   2.454   3.888
  583TCM     h1 3081   3.790   2.625   3.871
  583TCM    cl3 3082   3.619   2.722   4.006
  584TCM     c1 3083   1.979   3.398   0.056
  584TCM    cl1 3084   2.067   3.341  -0.090
  584TCM    cl2 3085   1.971   3.263   0.174
  584TCM     h1 3086   2.033   3.482   0.100
  584TCM    cl3 3087   1.814   3.450   0.011
  585TCM     c1 3088   1.024   0.204   0.784
  585TCM    cl1 3089   0.890   0.119   0.700
  585TCM    cl2 3090   0.980   0.376   0.810
  585TCM     h1 3091   1.042   0.156   0.881
  585TCM    cl3 3092   1.172   0.195   0.683
  586TCM     c1 3093   0.204   3.466   0.386
  586TCM    cl1 3094   0.213   3.435   0.209
  586TCM    cl2 3095   0.331   3.369   0.468
  586TCM     h1 3096   0.220   3.572   0.406
  586TCM    cl3 3097   0.044   3.415   0.447
  587TCM     c1 3098   2.880   1.402   3.174
  587TCM    cl1 3099   2.703   1.428   3.156
  587TCM    cl2 3100   2.910   1.282   3.304
  587TCM     h1 3101   2.921   1.365   3.080
  587TCM    cl3 3102   2.961   1.557   3.217
  588TCM     c1 3103   2.627   4.599   0.153
  588TCM    cl1 3104   2.460   4.537   0.130
  588TCM    cl2 3105   2.744   4.486   0.078
  588TCM     h1 3106   2.636   4.697   0.106
  588TCM    cl3 3107   2.660   4.612   0.328
  589TCM     c1 3108   3.736   3.459   3.211
  589TCM    cl1 3109   3.718   3.526   3.045
  589TCM    cl2 3110   3.590   3.496   3.307
  589TCM     h1 3111   3.750   3.350   3.205
  589TCM    cl3 3112   3.880   3.533   3.289
  590TCM     c1 3113   2.860   3.845   0.728
  590TCM    cl1 3114   2.727   3.949   0.789
  590TCM    cl2 3115   2.791   3.693   0.662
  590TCM     h1 3116   2.915   3.898   0.650
  590TCM    cl3 3117   2.971   3.806   0.864
  591TCM     c1 3118   4.463   3.988   0.933
  591TCM    cl1 3119   4.376   4.133   0.873
  591TCM    cl2 3120   4.640   4.019   0.928
  591TCM     h1 3121   4.432   3.966   1.035
  591TCM    cl3 3122   4.425   3.848   0.827
  592TCM     c1 3123   4.143   2.751   0.206
  592TCM    cl1 3124   4.005   2.865   0.196
  592TCM    cl2 3125   4.256   2.802   0.336
  592TCM     h1 3126   4.105   2.650   0.228
  592TCM    cl3 3127   4.231   2.749   0.049
  593TCM     c1 3128   2.732   0.841   1.973
  593TCM    cl1 3129   2.648   0.725   2.081
  593TCM    cl2 3130   2.634   0.991   1.960
  593TCM     h1 3131   2.831   0.865   2.014
  593TCM    cl3 3132   2.750   0.767   1.811
  594TCM     c1 3133   3.016   4.382   2.788
  594TCM    cl1 3134   2.933   4.540   2.811
  594TCM    cl2 3135   3.026   4.298   2.947
  594TCM     h1 3136   2.960   4.320   2.718
  594TCM    cl3 3137   3.182   4.411   2.726
  595TCM     c1 3138   3.775   3.388   3.688
  595TCM    cl1 3139   3.889   3.377   3.826
  595TCM    cl2 3140   3.835   3.286   3.553
  595TCM     h1 3141   3.676   3.353   3.719
  595TCM    cl3 3142   3.762   3.559   3.634
  596TCM     c1 3143   3.691   0.364   0.014
  596TCM    cl1 3144   3.854   0.356   0.087
  596TCM    cl2 3145   3.665   0.218  -0.087
  596TCM     h1 3146   3.615   0.368   0.093
  596TCM    cl3 3147   3.678   0.511  -0.089
  597TCM     c1 3148   2.789   3.030   3.401
  597TCM    cl1 3149   2.712   3.016   3.563
  597TCM    cl2 3150   2.928   3.143   3.411
  597TCM     h1 3151   2.824   2.932   3.368
  597TCM    cl3 3152   2.669   3.095   3.285
  598TCM     c1 3153   0.398   2.346   1.799
  598TCM    cl1 3154   0.565   2.284   1.822
  598TCM    cl2 3155   0.281   2.214   1.829
  598TCM     h1 3156   0.380   2.428   1.868
  598TCM    cl3 3157   0.378   2.405   1.630
  599TCM     c1 3158   0.134   4.205   3.006
  599TCM    cl1 3159   0.010   4.335   3.005
  599TCM    cl2 3160   0.283   4.262   2.925
  599TCM     h1 3161   0.157   4.178   3.109
  599TCM    cl3 3162   0.071   4.061   2.919
  600TCM     c1 3163   2.224   3.308   1.365
  600TCM    cl1 3164   2.382   3.346   1.443
  600TCM    cl2 3165   2.133   3.193   1.469
  600TCM     h1 3166   2.167   3.400   1.352
  600TCM    cl3 3167   2.254   3.232   1.205
  601TCM     c1 3168   4.678   1.302   2.518
  601TCM    cl1 3169   4.618   1.231   2.364
  601TCM    cl2 3170   4.856   1.284   2.529
  601TCM     h1 3171   4.651   1.408   2.522
  601TCM    cl3 3172   4.600   1.217   2.656
  602TCM     c1 3173   3.893   3.008   3.871
  602TCM    cl1 3174   3.732   3.036   3.796
  602TCM    cl2 3175   3.957   2.850   3.816
  602TCM     h1 3176   3.962   3.088   3.841
  602TCM    cl3 3177   3.875   3.006   4.049
  603TCM     c1 3178   1.826   3.261   3.374
  603TCM    cl1 3179   1.944   3.396   3.387
  603TCM    cl2 3180   1.908   3.117   3.306
  603TCM     h1 3181   1.786   3.237   3.473
  603TCM    cl3 3182   1.692   3.312   3.266
  604TCM     c1 3183   2.494   2.975   2.196
  604TCM    cl1 3184   2.327   2.981   2.131
  604TCM    cl2 3185   2.528   2.810   2.260
  604TCM     h1 3186   2.565   2.998   2.116
  604TCM    cl3 3187   2.511   3.095   2.329
  605TCM     c1 3188   1.757   2.842   0.054
  605TCM    cl1 3189   1.810   2.881   0.221
  605TCM    cl2 3190   1.738   2.664   0.039
  605TCM     h1 3191   1.661   2.891   0.034
  605TCM    cl3 3192   1.881   2.898  -0.062
  606TCM     c1 3193   4.643   0.847   2.586
  606TCM    cl1 3194   4.644   0.671   2.624
  606TCM    cl2 3195   4.578   0.870   2.420
  606TCM     h1 3196   4.580   0.900   2.657
  606TCM    cl3 3197   4.810   0.910   2.595
  607TCM     c1 3198   4.753   1.856   1.206
  607TCM    cl1 3199   4.676   1.832   1.045
  607TCM    cl2 3200   4.717   2.022   1.264
  607TCM     h1 3201   4.713   1.783   1.277
  607TCM    cl3 3202   4.930   1.835   1.190
  608TCM     c1 3203   3.057   3.870   0.242
  608TCM    cl1 3204   3.129   4.029   0.281
  608TCM    cl2 3205   2.907   3.896   0.145
  608TCM     h1 3206   3.128   3.810   0.185
  608TCM    cl3 3207   3.015   3.786   0.395
  609TCM     c1 3208   2.366   3.982   3.496
  609TCM    cl1 3209   2.404   3.972   3.671
  609TCM    cl2 3210   2.515   4.020   3.404
  609TCM     h1 3211   2.325   3.887   3.462
  609TCM    cl3 3212   2.246   4.112   3.469
  610TCM     c1 3213   2.039   4.644   1.889
  610TCM    cl1 3214   1.892   4.578   1.810
  610TCM    cl2 3215   2.035   4.823   1.882
  610TCM     h1 3216   2.043   4.611   1.994
  610TCM    cl3 3217   2.185   4.584   1.803
  611TCM     c1 3218   1.229   1.762   0.541
  611TCM    cl1 3219   1.152   1.750   0.703
  611TCM    cl2 3220   1.379   1.860   0.552
  611TCM     h1 3221   1.254   1.661   0.505
  611TCM    cl3 3222   1.116   1.841   0.427
  612TCM     c1 3223   0.223   2.546   4.206
  612TCM    cl1 3224   0.276   2.713   4.248
  612TCM    cl2 3225   0.300   2.495   4.052
  612TCM     h1 3226   0.253   2.477   4.286
  612TCM    cl3 3227   0.045   2.542   4.186
  613TCM     c1 3228   0.637   1.228   4.502
  613TCM    cl1 3229   0.623   1.369   4.611
  613TCM    cl2 3230   0.805   1.165   4.508
  613TCM     h1 3231   0.568   1.149   4.535
  613TCM    cl3 3232   0.598   1.279   4.335
  614TCM     c1 3233   4.969   2.725   0.661
  614TCM    cl1 3234   5.069   2.821   0.774
  614TCM    cl2 3235   4.913   2.576   0.743
  614TCM     h1 3236   4.883   2.785   0.629
  614TCM    cl3 3237   5.068   2.681   0.518
  615TCM     c1 3238   2.124   4.062   4.617
  615TCM    cl1 3239   2.126   3.907   4.708
  615TCM    cl2 3240   2.015   4.178   4.700
  615TCM     h1 3241   2.225   4.102   4.613
  615TCM    cl3 3242   2.063   4.033   4.451
  616TCM     c1 3243   2.901   3.397   3.045
  616TCM    cl1 3244   2.980   3.486   2.911
  616TCM    cl2 3245   2.967   3.456   3.202
  616TCM     h1 3246   2.793   3.415   3.042
  616TCM    cl3 3247   2.934   3.222   3.029
  617TCM     c1 3248   2.777   4.192   0.330
  617TCM    cl1 3249   2.791   4.057   0.447
  617TCM    cl2 3250   2.888   4.325   0.379
  617TCM     h1 3251   2.803   4.158   0.230
  617TCM    cl3 3252   2.608   4.251   0.333
  618TCM     c1 3253   3.238   4.369   0.085
  618TCM    cl1 3254   3.075   4.313   0.037
  618TCM    cl2 3255   3.353   4.231   0.087
  618TCM     h1 3256   3.273   4.444   0.014
  618TCM    cl3 3257   3.230   4.441   0.249
  619TCM     c1 3258   2.387   3.552   0.818
  619TCM    cl1 3259   2.438   3.724   0.812
  619TCM    cl2 3260   2.384   3.498   0.989
  619TCM     h1 3261   2.286   3.543   0.775
  619TCM    cl3 3262   2.502   3.452   0.724
  620TCM     c1 3263   3.955   3.933   3.618
  620TCM    cl1 3264   4.003   3.828   3.480
  620TCM    cl2 3265   4.073   4.068   3.632
  620TCM     h1 3266   3.855   3.974   3.600
  620TCM    cl3 3267   3.955   3.837   3.769
  621TCM     c1 3268   0.143   4.784   4.184
  621TCM    cl1 3269   0.015   4.675   4.121
  621TCM    cl2 3270   0.067   4.907   4.289
  621TCM     h1 3271   0.216   4.726   4.241
  621TCM    cl3 3272   0.225   4.865   4.047
  622TCM     c1 3273   4.071   0.212   3.642
  622TCM    cl1 3274   4.050   0.081   3.762
  622TCM    cl2 3275   3.931   0.324   3.649
  622TCM     h1 3276   4.163   0.267   3.663
  622TCM    cl3 3277   4.081   0.140   3.478
  623TCM     c1 3278   2.068   2.591   3.454
  623TCM    cl1 3279   2.128   2.748   3.390
  623TCM    cl2 3280   2.004   2.616   3.620
  623TCM     h1 3281   1.989   2.553   3.389
  623TCM    cl3 3282   2.204   2.474   3.460
  624TCM     c1 3283   4.825   4.820   2.852
  624TCM    cl1 3284   4.977   4.890   2.788
  624TCM    cl2 3285   4.863   4.715   2.993
  624TCM     h1 3286   4.758   4.900   2.883
  624TCM    cl3 3287   4.748   4.720   2.724
  625TCM     c1 3288   2.364   0.724   1.851
  625TCM    cl1 3289   2.413   0.663   1.690
  625TCM    cl2 3290   2.323   0.585   1.957
  625TCM     h1 3291   2.446   0.781   1.895
  625TCM    cl3 3292   2.220   0.831   1.834
  626TCM     c1 3293   0.269   2.342   2.790
  626TCM    cl1 3294   0.238   2.214   2.668
  626TCM    cl2 3295   0.277   2.268   2.953
  626TCM     h1 3296   0.363   2.393   2.768
  626TCM    cl3 3297   0.134   2.461   2.788
  627TCM     c1 3298   0.704   3.921   0.634
  627TCM    cl1 3299   0.819   3.979   0.508
  627TCM    cl2 3300   0.781   3.793   0.732
  627TCM     h1 3301   0.677   4.005   0.698
  627TCM    cl3 3302   0.555   3.857   0.556
  628TCM     c1 3303   2.488   3.152   0.438
  628TCM    cl1 3304   2.582   3.283   0.359
  628TCM    cl2 3305   2.324   3.212   0.478
  628TCM     h1 3306   2.480   3.067   0.369
  628TCM    cl3 3307   2.574   3.100   0.587
  629TCM     c1 3308   0.517   0.370   0.612
  629TCM    cl1 3309   0.685   0.431   0.594
  629TCM    cl2 3310   0.520   0.213   0.698
  629TCM     h1 3311   0.459   0.442   0.670
  629TCM    cl3 3312   0.442   0.350   0.450
  630TCM     c1 3313   4.939   2.106   2.916
  630TCM    cl1 3314   4.890   2.249   3.013
  630TCM    cl2 3315   4.889   2.129   2.746
  630TCM     h1 3316   5.048   2.095   2.921
  630TCM    cl3 3317   4.861   1.958   2.982
  631TCM     c1 3318   2.317   0.780   3.485
  631TCM    cl1 3319   2.423   0.767   3.341
  631TCM    cl2 3320   2.418   0.783   3.633
  631TCM     h1 3321   2.257   0.871   3.479
  631TCM    cl3 3322   2.208   0.637   3.491
  632TCM     c1 3323   0.117   1.100   2.186
  632TCM    cl1 3324   0.201   1.170   2.327
  632TCM    cl2 3325   0.209   1.141   2.037
  632TCM     h1 3326   0.110   0.992   2.197
  632TCM    cl3 3327  -0.049   1.169   2.174
  633TCM     c1 3328   3.908   0.253   4.622
  633TCM    cl1 3329   3.737   0.256   4.565
  633TCM    cl2 3330   3.952   0.415   4.687
  633TCM     h1 3331   3.919   0.178   4.700
  633TCM    cl3 3332   4.015   0.214   4.484
  634TCM     c1 3333   0.011   0.747   4.836
  634TCM    cl1 3334  -0.015   0.571   4.863
  634TCM    cl2 3335   0.061   0.825   4.989
  634TCM     h1 3336   0.088   0.761   4.760
  634TCM    cl3 3337  -0.142   0.821   4.778
  635TCM     c1 3338   2.795   4.987   1.359
  635TCM    cl1 3339   2.773   4.905   1.201
  635TCM    cl2 3340   2.914   5.120   1.341
  635TCM     h1 3341   2.699   5.028   1.392
  635TCM    cl3 3342   2.855   4.869   1.481
  636TCM     c1 3343   2.053   1.253   3.657
  636TCM    cl1 3344   2.138   1.270   3.814
  636TCM    cl2 3345   1.876   1.240   3.687
  636TCM     h1 3346   2.073   1.341   3.595
  636TCM    cl3 3347   2.110   1.105   3.573
  637TCM     c1 3348   3.042   1.253   2.108
  637TCM    cl1 3349   3.162   1.258   1.974
  637TCM    cl2 3350   3.122   1.307   2.259
  637TCM     h1 3351   2.959   1.320   2.085
  637TCM    cl3 3352   2.980   1.086   2.127
  638TCM     c1 3353   3.641   2.206   4.231
  638TCM    cl1 3354   3.618   2.095   4.370
  638TCM    cl2 3355   3.619   2.375   4.287
  638TCM     h1 3356   3.742   2.194   4.190
  638TCM    cl3 3357   3.520   2.169   4.104
  639TCM     c1 3358   1.049   2.179   4.274
  639TCM    cl1 3359   0.885   2.216   4.210
  639TCM    cl2 3360   1.161   2.149   4.137
  639TCM     h1 3361   1.086   2.264   4.332
  639TCM    cl3 3362   1.042   2.035   4.379
  640TCM     c1 3363   1.061   0.352   1.929
  640TCM    cl1 3364   1.018   0.189   1.988
  640TCM    cl2 3365   1.094   0.346   1.753
  640TCM     h1 3366   0.979   0.422   1.949
  640TCM    cl3 3367   1.209   0.408   2.015
   5.00000   5.00000   5.00000
