Great Red Oystrich Makes All Chemists Sane
 3367
    1POM     C1    1   2.676   1.008   1.646
    1POM     O2    2   2.758   1.115   1.604
    1POM     C3    3   2.696   1.225   1.551
    1POM     C4    4   2.571   1.229   1.495
    1POM     C5    5   2.523   1.349   1.438
    1POM     C6    6   2.597   1.471   1.437
    1POM     C7    7   2.524   1.580   1.355
    1POM     C8    8   2.423   1.660   1.410
    1POM     C9    9   2.358   1.759   1.333
    1POM    C10   10   2.395   1.787   1.199
    1POM    C11   11   2.484   1.705   1.135
    1POM    C12   12   2.515   1.723   0.988
    1POM    O13   13   2.556   1.635   0.915
    1POM    C14   14   2.537   1.598   1.213
    1POM    C15   15   2.728   1.469   1.507
    1POM    C16   16   2.832   1.579   1.540
    1POM    C17   17   2.831   1.654   1.658
    1POM    C18   18   2.916   1.770   1.678
    1POM    C19   19   3.000   1.817   1.576
    1POM    C20   20   3.048   1.967   1.558
    1POM    C21   21   3.181   1.999   1.621
    1POM    N22   22   2.946   2.082   1.571
    1POM    C23   23   3.023   1.724   1.473
    1POM    C24   24   2.944   1.604   1.461
    1POM    C25   25   2.772   1.343   1.557
    1POM    H26   26   2.732   0.949   1.719
    1POM    H27   27   2.584   1.042   1.696
    1POM    H28   28   2.652   0.942   1.561
    1POM    H29   29   2.508   1.140   1.488
    1POM    H30   30   2.425   1.346   1.390
    1POM    H31   31   2.398   1.650   1.515
    1POM    H32   32   2.289   1.827   1.383
    1POM    H33   33   2.356   1.875   1.147
    1POM    H34   34   2.602   1.534   1.159
    1POM    H35   35   2.759   1.629   1.736
    1POM    H36   36   2.902   1.830   1.767
    1POM    H37   37   3.066   1.972   1.449
    1POM    H38   38   3.216   2.098   1.588
    1POM    H39   39   3.256   1.926   1.590
    1POM    H40   40   3.175   1.999   1.731
    1POM    H41   41   2.951   2.143   1.490
    1POM    H42   42   3.093   1.745   1.393
    1POM    H43   43   2.963   1.539   1.376
    1POM    H44   44   2.872   1.336   1.602
    2POM    C45   45   2.336   1.844   2.355
    2POM    O46   46   2.281   1.951   2.279
    2POM    C47   47   2.344   1.982   2.162
    2POM    C48   48   2.449   1.911   2.105
    2POM    C49   49   2.507   1.956   1.985
    2POM    C50   50   2.462   2.071   1.920
    2POM    C51   51   2.532   2.115   1.797
    2POM    C52   52   2.461   2.150   1.681
    2POM    C53   53   2.525   2.221   1.580
    2POM    C54   54   2.665   2.240   1.585
    2POM    C55   55   2.743   2.179   1.684
    2POM    C56   56   2.895   2.147   1.682
    2POM    O57   57   2.960   2.164   1.785
    2POM    C58   58   2.673   2.128   1.795
    2POM    C59   59   2.350   2.142   1.976
    2POM    C60   60   2.287   2.258   1.909
    2POM    C61   61   2.153   2.250   1.866
    2POM    C62   62   2.099   2.345   1.780
    2POM    C63   63   2.179   2.450   1.729
    2POM    C64   64   2.127   2.543   1.620
    2POM    C65   65   2.024   2.642   1.673
    2POM    N66   66   2.087   2.467   1.501
    2POM    C67   67   2.309   2.464   1.778
    2POM    C68   68   2.361   2.372   1.870
    2POM    C69   69   2.295   2.096   2.097
    2POM    H70   70   2.283   1.840   2.450
    2POM    H71   71   2.322   1.750   2.303
    2POM    H72   72   2.442   1.862   2.377
    2POM    H73   73   2.489   1.821   2.149
    2POM    H74   74   2.588   1.897   1.942
    2POM    H75   75   2.354   2.130   1.675
    2POM    H76   76   2.466   2.258   1.497
    2POM    H77   77   2.707   2.301   1.507
    2POM    H78   78   2.732   2.096   1.881
    2POM    H79   79   2.091   2.166   1.896
    2POM    H80   80   1.996   2.334   1.748
    2POM    H81   81   2.212   2.603   1.583
    2POM    H82   82   1.990   2.709   1.594
    2POM    H83   83   2.069   2.703   1.752
    2POM    H84   84   1.937   2.592   1.717
    2POM    H85   85   2.165   2.434   1.445
    2POM    H86   86   2.373   2.545   1.743
    2POM    H87   87   2.464   2.382   1.902
    2POM    H88   88   2.212   2.149   2.142
    3POM    C89   89   1.272   1.773   1.289
    3POM    O90   90   1.366   1.810   1.188
    3POM    C91   91   1.475   1.881   1.227
    3POM    C92   92   1.506   1.921   1.356
    3POM    C93   93   1.625   1.991   1.380
    3POM    C94   94   1.717   2.021   1.277
    3POM    C95   95   1.845   2.084   1.314
    3POM    C96   96   1.966   2.016   1.297
    3POM    C97   97   2.088   2.072   1.336
    3POM    C98   98   2.090   2.197   1.395
    3POM    C99   99   1.971   2.270   1.414
    3POM   C100  100   1.968   2.399   1.488
    3POM   O101  101   1.863   2.436   1.541
    3POM   C102  102   1.849   2.212   1.374
    3POM   C103  103   1.685   1.982   1.144
    3POM   C104  104   1.773   2.002   1.027
    3POM   C105  105   1.797   1.894   0.941
    3POM   C106  106   1.882   1.905   0.831
    3POM   C107  107   1.954   2.023   0.809
    3POM   C108  108   2.069   2.024   0.708
    3POM   C109  109   2.022   2.002   0.565
    3POM   N110  110   2.176   1.933   0.757
    3POM   C111  111   1.927   2.134   0.891
    3POM   C112  112   1.836   2.123   0.996
    3POM   C113  113   1.562   1.913   1.123
    3POM   H114  114   1.192   1.717   1.241
    3POM   H115  115   1.319   1.708   1.363
    3POM   H116  116   1.228   1.862   1.334
    3POM   H117  117   1.441   1.899   1.441
    3POM   H118  118   1.648   2.019   1.483
    3POM   H119  119   1.966   1.915   1.254
    3POM   H120  120   2.180   2.017   1.322
    3POM   H121  121   2.185   2.235   1.430
    3POM   H122  122   1.756   2.266   1.391
    3POM   H123  123   1.751   1.796   0.959
    3POM   H124  124   1.898   1.817   0.767
    3POM   H125  125   2.115   2.123   0.711
    3POM   H126  126   2.107   2.009   0.495
    3POM   H127  127   1.949   2.079   0.537
    3POM   H128  128   1.975   1.905   0.550
    3POM   H129  129   2.214   1.964   0.844
    3POM   H130  130   1.978   2.229   0.874
    3POM   H131  131   1.816   2.211   1.058
    3POM   H132  132   1.535   1.883   1.022
    4POM   C133  133   2.114   0.890   1.053
    4POM   O134  134   2.245   0.949   1.057
    4POM   C135  135   2.251   1.083   1.028
    4POM   C136  136   2.140   1.161   1.002
    4POM   C137  137   2.159   1.296   0.979
    4POM   C138  138   2.286   1.360   0.983
    4POM   C139  139   2.264   1.508   0.983
    4POM   C140  140   2.208   1.561   1.102
    4POM   C141  141   2.147   1.686   1.106
    4POM   C142  142   2.144   1.766   0.992
    4POM   C143  143   2.191   1.715   0.869
    4POM   C144  144   2.166   1.793   0.744
    4POM   O145  145   2.136   1.736   0.642
    4POM   C146  146   2.247   1.584   0.866
    4POM   C147  147   2.404   1.278   1.005
    4POM   C148  148   2.549   1.321   1.008
    4POM   C149  149   2.636   1.302   1.118
    4POM   C150  150   2.760   1.374   1.133
    4POM   C151  151   2.800   1.467   1.036
    4POM   C152  152   2.899   1.585   1.055
    4POM   C153  153   3.035   1.545   1.111
    4POM   N154  154   2.852   1.719   1.107
    4POM   C155  155   2.735   1.451   0.912
    4POM   C156  156   2.612   1.381   0.899
    4POM   C157  157   2.379   1.141   1.028
    4POM   H158  158   2.124   0.784   1.076
    4POM   H159  159   2.048   0.934   1.128
    4POM   H160  160   2.071   0.899   0.952
    4POM   H161  161   2.039   1.125   1.003
    4POM   H162  162   2.069   1.357   0.965
    4POM   H163  163   2.213   1.504   1.194
    4POM   H164  164   2.107   1.724   1.200
    4POM   H165  165   2.102   1.866   1.000
    4POM   H166  166   2.273   1.542   0.769
    4POM   H167  167   2.603   1.240   1.202
    4POM   H168  168   2.811   1.369   1.229
    4POM   H169  169   2.922   1.615   0.952
    4POM   H170  170   3.091   1.632   1.149
    4POM   H171  171   3.095   1.502   1.031
    4POM   H172  172   3.030   1.470   1.190
    4POM   H173  173   2.888   1.800   1.058
    4POM   H174  174   2.768   1.509   0.827
    4POM   H175  175   2.560   1.389   0.804
    4POM   H176  176   2.464   1.074   1.047
    5CAP   C177  177   2.505   1.850   0.791
    5CAP   O178  178   2.487   1.847   0.936
    5CAP   H179  179   2.448   1.769   0.742
    5CAP   H180  180   2.610   1.841   0.763
    5CAP   H181  181   2.465   1.944   0.752
    6CAP   C182  182   2.571   1.967   1.329
    6CAP   C183  183   2.719   1.965   1.348
    6CAP   C184  184   2.766   2.106   1.316
    6CAP   C185  185   2.718   1.912   1.492
    6CAP   O186  186   2.789   1.889   1.241
    6CAP   C187  187   2.798   1.756   1.226
    6CAP   O188  188   2.760   1.676   1.309
    6CAP   H189  189   2.515   2.024   1.404
    6CAP   H190  190   2.539   1.996   1.230
    6CAP   H191  191   2.548   1.864   1.351
    6CAP   H192  192   2.691   2.159   1.257
    6CAP   H193  193   2.858   2.106   1.255
    6CAP   H194  194   2.788   2.167   1.400
    6CAP   H195  195   2.698   1.806   1.499
    6CAP   H196  196   2.807   1.931   1.548
    6CAP   H197  197   2.642   1.956   1.557
    1TCM     c1  198   4.336   0.336   2.675
    1TCM    cl1  199   4.461   0.360   2.551
    1TCM    cl2  200   4.240   0.484   2.693
    1TCM     h1  201   4.270   0.252   2.645
    1TCM    cl3  202   4.414   0.296   2.830
    1TCM     c1  203   1.693   2.481   4.345
    1TCM    cl1  204   1.602   2.329   4.354
    1TCM    cl2  205   1.626   2.597   4.462
    1TCM     h1  206   1.799   2.462   4.369
    1TCM    cl3  207   1.680   2.548   4.181
    1TCM     c1  208   1.811   2.430   0.911
    1TCM    cl1  209   1.739   2.272   0.872
    1TCM    cl2  210   1.923   2.477   0.782
    1TCM     h1  211   1.730   2.506   0.920
    1TCM    cl3  212   1.899   2.418   1.065
    1TCM     c1  213   2.709   0.610   3.778
    1TCM    cl1  214   2.779   0.754   3.702
    1TCM    cl2  215   2.835   0.523   3.868
    1TCM     h1  216   2.628   0.641   3.848
    1TCM    cl3  217   2.641   0.503   3.652
    1TCM     c1  218   2.293   1.748   2.858
    1TCM    cl1  219   2.411   1.779   2.729
    1TCM    cl2  220   2.343   1.835   3.005
    1TCM     h1  221   2.193   1.785   2.826
    1TCM    cl3  222   2.285   1.574   2.891
    1TCM     c1  223   5.035   1.290   0.560
    1TCM    cl1  224   5.172   1.234   0.462
    1TCM    cl2  225   5.082   1.290   0.732
    1TCM     h1  226   5.006   1.392   0.530
    1TCM    cl3  227   4.897   1.180   0.537
    1TCM     c1  228   2.900   0.819   2.641
    1TCM    cl1  229   2.785   0.930   2.564
    1TCM    cl2  230   2.867   0.653   2.587
    1TCM     h1  231   3.004   0.847   2.613
    1TCM    cl3  232   2.882   0.829   2.818
    1TCM     c1  233   3.725   4.043   4.689
    1TCM    cl1  234   3.743   3.954   4.537
    1TCM    cl2  235   3.568   4.127   4.691
    1TCM     h1  236   3.730   3.972   4.774
    1TCM    cl3  237   3.855   4.163   4.704
    1TCM     c1  238   0.757   4.174   3.455
    1TCM    cl1  239   0.840   4.030   3.392
    1TCM    cl2  240   0.803   4.315   3.357
    1TCM     h1  241   0.647   4.159   3.449
    1TCM    cl3  242   0.804   4.201   3.624
    1TCM     c1  243   3.894   1.319   2.598
    1TCM    cl1  244   3.874   1.407   2.750
    1TCM    cl2  245   4.063   1.334   2.542
    1TCM     h1  246   3.870   1.211   2.614
    1TCM    cl3  247   3.785   1.386   2.475
    1TCM     c1  248   4.912   3.092   4.465
    1TCM    cl1  249   4.735   3.076   4.465
    1TCM    cl2  250   4.987   2.938   4.418
    1TCM     h1  251   4.942   3.171   4.393
    1TCM    cl3  252   4.968   3.137   4.628
    1TCM     c1  253   0.542   2.841   1.444
    1TCM    cl1  254   0.530   3.015   1.479
    1TCM    cl2  255   0.380   2.768   1.450
    1TCM     h1  256   0.585   2.827   1.343
    1TCM    cl3  257   0.646   2.763   1.565
    1TCM     c1  258   1.493   1.967   2.369
    1TCM    cl1  259   1.338   2.053   2.382
    1TCM    cl2  260   1.522   1.922   2.200
    1TCM     h1  261   1.575   2.032   2.405
    1TCM    cl3  262   1.487   1.820   2.469
    1TCM     c1  263   4.281   4.437   0.719
    1TCM    cl1  264   4.451   4.427   0.770
    1TCM    cl2  265   4.242   4.299   0.614
    1TCM     h1  266   4.216   4.435   0.809
    1TCM    cl3  267   4.254   4.589   0.630
    1TCM     c1  268   2.573   5.252   3.760
    1TCM    cl1  269   2.599   5.240   3.936
    1TCM    cl2  270   2.709   5.340   3.686
    1TCM     h1  271   2.566   5.151   3.716
    1TCM    cl3  272   2.422   5.341   3.728
    1TCM     c1  273   2.826   1.886   3.006
    1TCM    cl1  274   2.996   1.836   2.985
    1TCM    cl2  275   2.748   1.780   3.126
    1TCM     h1  276   2.823   1.991   3.042
    1TCM    cl3  277   2.741   1.874   2.851
    1TCM     c1  278   0.683   3.115   5.017
    1TCM    cl1  279   0.813   3.200   4.931
    1TCM    cl2  280   0.694   2.941   4.984
    1TCM     h1  281   0.693   3.133   5.126
    1TCM    cl3  282   0.526   3.177   4.962
    1TCM     c1  283   4.596   3.538   2.149
    1TCM    cl1  284   4.539   3.650   2.023
    1TCM    cl2  285   4.457   3.457   2.224
    1TCM     h1  286   4.663   3.462   2.103
    1TCM    cl3  287   4.685   3.629   2.273
    1TCM     c1  288   5.263   3.640   4.909
    1TCM    cl1  289   5.090   3.674   4.889
    1TCM    cl2  290   5.340   3.772   5.000
    1TCM     h1  291   5.276   3.545   4.965
    1TCM    cl3  292   5.340   3.625   4.749
    1TCM     c1  293   2.191   1.171   3.483
    1TCM    cl1  294   2.291   1.306   3.540
    1TCM    cl2  295   2.234   1.133   3.315
    1TCM     h1  296   2.209   1.082   3.547
    1TCM    cl3  297   2.020   1.217   3.491
    1TCM     c1  298   1.377   1.928   2.769
    1TCM    cl1  299   1.473   2.078   2.769
    1TCM    cl2  300   1.291   1.913   2.614
    1TCM     h1  301   1.444   1.841   2.782
    1TCM    cl3  302   1.259   1.934   2.901
    1TCM     c1  303   3.115   4.712   4.807
    1TCM    cl1  304   3.178   4.818   4.679
    1TCM    cl2  305   3.180   4.548   4.784
    1TCM     h1  306   3.147   4.750   4.906
    1TCM    cl3  307   2.938   4.707   4.799
    1TCM     c1  308   2.671   2.765   2.080
    1TCM    cl1  309   2.575   2.752   1.931
    1TCM    cl2  310   2.589   2.875   2.193
    1TCM     h1  311   2.681   2.665   2.127
    1TCM    cl3  312   2.832   2.829   2.042
    1TCM     c1  313   2.730   2.027   5.067
    1TCM    cl1  314   2.832   1.934   5.179
    1TCM    cl2  315   2.826   2.077   4.927
    1TCM     h1  316   2.645   1.964   5.033
    1TCM    cl3  317   2.667   2.171   5.150
    1TCM     c1  318   5.031   0.256   1.347
    1TCM    cl1  319   4.900   0.139   1.315
    1TCM    cl2  320   4.971   0.384   1.455
    1TCM     h1  321   5.116   0.203   1.396
    1TCM    cl3  322   5.085   0.328   1.194
    1TCM     c1  323   3.031   0.853   1.251
    1TCM    cl1  324   3.111   0.695   1.229
    1TCM    cl2  325   2.866   0.845   1.187
    1TCM     h1  326   3.028   0.878   1.359
    1TCM    cl3  327   3.123   0.978   1.163
    1TCM     c1  328   3.950   3.227   1.876
    1TCM    cl1  329   3.885   3.062   1.858
    1TCM    cl2  330   3.944   3.275   2.047
    1TCM     h1  331   4.055   3.229   1.840
    1TCM    cl3  332   3.852   3.339   1.779
    1TCM     c1  333   1.105   0.938   3.668
    1TCM    cl1  334   0.988   0.809   3.631
    1TCM    cl2  335   1.037   1.045   3.792
    1TCM     h1  336   1.199   0.892   3.706
    1TCM    cl3  337   1.140   1.031   3.521
    1TCM     c1  338   2.843   3.639   3.461
    1TCM    cl1  339   2.967   3.698   3.348
    1TCM    cl2  340   2.859   3.725   3.616
    1TCM     h1  341   2.743   3.658   3.419
    1TCM    cl3  342   2.865   3.465   3.487
    1TCM     c1  343   0.310   0.914   2.464
    1TCM    cl1  344   0.446   0.835   2.547
    1TCM    cl2  345   0.339   0.910   2.288
    1TCM     h1  346   0.216   0.860   2.487
    1TCM    cl3  347   0.297   1.082   2.518
    1TCM     c1  348   4.956   2.024   2.126
    1TCM    cl1  349   4.791   2.035   2.190
    1TCM    cl2  350   4.976   1.870   2.039
    1TCM     h1  351   4.975   2.108   2.056
    1TCM    cl3  352   5.072   2.031   2.260
    1TCM     c1  353   1.231   3.536   2.267
    1TCM    cl1  354   1.285   3.548   2.436
    1TCM    cl2  355   1.162   3.692   2.216
    1TCM     h1  356   1.317   3.511   2.203
    1TCM    cl3  357   1.107   3.409   2.253
    1TCM     c1  358   3.873   1.444   2.064
    1TCM    cl1  359   3.825   1.273   2.078
    1TCM    cl2  360   3.763   1.528   1.953
    1TCM     h1  361   3.868   1.492   2.164
    1TCM    cl3  362   4.039   1.454   2.001
    1TCM     c1  363   0.857   2.254   2.098
    1TCM    cl1  364   0.757   2.336   1.976
    1TCM    cl2  365   0.888   2.365   2.233
    1TCM     h1  366   0.803   2.165   2.136
    1TCM    cl3  367   1.011   2.204   2.026
    1TCM     c1  368   2.250   3.785   1.773
    1TCM    cl1  369   2.310   3.944   1.823
    1TCM    cl2  370   2.115   3.805   1.659
    1TCM     h1  371   2.332   3.728   1.724
    1TCM    cl3  372   2.194   3.695   1.916
    1TCM     c1  373   1.032   4.554   1.179
    1TCM    cl1  374   1.205   4.520   1.159
    1TCM    cl2  375   0.956   4.572   1.019
    1TCM     h1  376   0.984   4.471   1.234
    1TCM    cl3  377   1.012   4.705   1.271
    1TCM     c1  378   0.236   1.273   4.796
    1TCM    cl1  379   0.108   1.211   4.690
    1TCM    cl2  380   0.314   1.138   4.881
    1TCM     h1  381   0.312   1.327   4.735
    1TCM    cl3  382   0.166   1.385   4.915
    1TCM     c1  383   1.334   3.883   4.786
    1TCM    cl1  384   1.171   3.954   4.800
    1TCM    cl2  385   1.456   4.010   4.811
    1TCM     h1  386   1.347   3.804   4.862
    1TCM    cl3  387   1.354   3.813   4.624
    1TCM     c1  388   0.311   0.754   4.846
    1TCM    cl1  389   0.449   0.866   4.854
    1TCM    cl2  390   0.333   0.625   4.967
    1TCM     h1  391   0.217   0.809   4.867
    1TCM    cl3  392   0.303   0.682   4.684
    1TCM     c1  393   1.097   4.295   2.230
    1TCM    cl1  394   1.087   4.261   2.404
    1TCM    cl2  395   1.119   4.142   2.141
    1TCM     h1  396   1.004   4.344   2.196
    1TCM    cl3  397   1.236   4.401   2.198
    1TCM     c1  398   3.703   4.133   0.162
    1TCM    cl1  399   3.597   4.130   0.305
    1TCM    cl2  400   3.681   4.286   0.076
    1TCM     h1  401   3.808   4.123   0.194
    1TCM    cl3  402   3.660   3.997   0.055
    1TCM     c1  403   1.451   1.490   1.292
    1TCM    cl1  404   1.501   1.394   1.151
    1TCM    cl2  405   1.491   1.401   1.441
    1TCM     h1  406   1.505   1.587   1.291
    1TCM    cl3  407   1.276   1.519   1.285
    1TCM     c1  408   3.472   0.639   2.331
    1TCM    cl1  409   3.572   0.734   2.443
    1TCM    cl2  410   3.549   0.636   2.171
    1TCM     h1  411   3.462   0.535   2.369
    1TCM    cl3  412   3.311   0.713   2.319
    1TCM     c1  413   0.175   0.666   2.015
    1TCM    cl1  414   0.219   0.528   1.912
    1TCM    cl2  415   0.248   0.645   2.176
    1TCM     h1  416   0.213   0.760   1.969
    1TCM    cl3  417  -0.002   0.675   2.031
    1TCM     c1  418   3.883   2.600   1.124
    1TCM    cl1  419   3.740   2.622   1.227
    1TCM    cl2  420   3.966   2.756   1.103
    1TCM     h1  421   3.952   2.527   1.172
    1TCM    cl3  422   3.833   2.538   0.965
    1TCM     c1  423   4.940   1.737   3.400
    1TCM    cl1  424   4.962   1.602   3.514
    1TCM    cl2  425   5.003   1.691   3.240
    1TCM     h1  426   4.832   1.761   3.392
    1TCM    cl3  427   5.029   1.879   3.460
    1TCM     c1  428   1.987   3.595   2.432
    1TCM    cl1  429   1.844   3.519   2.357
    1TCM    cl2  430   2.005   3.761   2.371
    1TCM     h1  431   1.975   3.597   2.542
    1TCM    cl3  432   2.132   3.500   2.390
    1TCM     c1  433   0.579   0.242   4.872
    1TCM    cl1  434   0.467   0.325   4.761
    1TCM    cl2  435   0.492   0.197   5.021
    1TCM     h1  436   0.618   0.151   4.824
    1TCM    cl3  437   0.713   0.351   4.913
    1TCM     c1  438   4.489   0.568   4.491
    1TCM    cl1  439   4.504   0.446   4.620
    1TCM    cl2  440   4.447   0.487   4.338
    1TCM     h1  441   4.409   0.640   4.518
    1TCM    cl3  442   4.643   0.654   4.472
    1TCM     c1  443   3.816   4.692   1.633
    1TCM    cl1  444   3.744   4.649   1.790
    1TCM    cl2  445   3.793   4.558   1.519
    1TCM     h1  446   3.767   4.784   1.594
    1TCM    cl3  447   3.990   4.722   1.654
    1TCM     c1  448   4.489   4.582   4.900
    1TCM    cl1  449   4.620   4.509   4.806
    1TCM    cl2  450   4.531   4.579   5.073
    1TCM     h1  451   4.474   4.687   4.868
    1TCM    cl3  452   4.338   4.491   4.874
    1TCM     c1  453   4.025   4.364   1.771
    1TCM    cl1  454   4.006   4.492   1.893
    1TCM    cl2  455   4.046   4.438   1.610
    1TCM     h1  456   4.114   4.303   1.795
    1TCM    cl3  457   3.881   4.261   1.770
    1TCM     c1  458   3.830   4.052   3.405
    1TCM    cl1  459   3.677   4.074   3.493
    1TCM    cl2  460   3.934   3.939   3.495
    1TCM     h1  461   3.810   4.011   3.304
    1TCM    cl3  462   3.913   4.209   3.389
    1TCM     c1  463   0.380   0.918   3.403
    1TCM    cl1  464   0.269   0.833   3.293
    1TCM    cl2  465   0.510   0.808   3.453
    1TCM     h1  466   0.423   1.006   3.351
    1TCM    cl3  467   0.290   0.973   3.546
    1TCM     c1  468   3.048   2.657   2.848
    1TCM    cl1  469   2.930   2.524   2.844
    1TCM    cl2  470   3.129   2.660   3.006
    1TCM     h1  471   3.124   2.642   2.768
    1TCM    cl3  472   2.964   2.812   2.821
    1TCM     c1  473   3.689   2.372   2.416
    1TCM    cl1  474   3.571   2.504   2.412
    1TCM    cl2  475   3.700   2.306   2.581
    1TCM     h1  476   3.657   2.292   2.346
    1TCM    cl3  477   3.848   2.433   2.366
    1TCM     c1  478   4.983   0.694   2.443
    1TCM    cl1  479   5.087   0.685   2.587
    1TCM    cl2  480   4.820   0.748   2.491
    1TCM     h1  481   5.026   0.766   2.371
    1TCM    cl3  482   4.972   0.533   2.368
    1TCM     c1  483   0.346   0.158   3.106
    1TCM    cl1  484   0.512   0.216   3.082
    1TCM    cl2  485   0.236   0.298   3.122
    1TCM     h1  486   0.315   0.097   3.019
    1TCM    cl3  487   0.338   0.059   3.254
    1TCM     c1  488   5.092   3.653   1.339
    1TCM    cl1  489   5.054   3.711   1.503
    1TCM    cl2  490   5.147   3.789   1.239
    1TCM     h1  491   5.173   3.576   1.345
    1TCM    cl3  492   4.947   3.580   1.266
    1TCM     c1  493   1.532   3.299   0.919
    1TCM    cl1  494   1.647   3.218   0.810
    1TCM    cl2  495   1.366   3.261   0.868
    1TCM     h1  496   1.548   3.263   1.023
    1TCM    cl3  497   1.557   3.475   0.912
    1TCM     c1  498   2.838   4.441   4.163
    1TCM    cl1  499   2.668   4.391   4.173
    1TCM    cl2  500   2.884   4.525   4.313
    1TCM     h1  501   2.902   4.351   4.150
    1TCM    cl3  502   2.860   4.550   4.025
    1TCM     c1  503   4.630   1.677   0.308
    1TCM    cl1  504   4.527   1.821   0.324
    1TCM    cl2  505   4.722   1.687   0.155
    1TCM     h1  506   4.701   1.672   0.393
    1TCM    cl3  507   4.529   1.531   0.306
    1TCM     c1  508   2.938   4.784   4.475
    1TCM    cl1  509   2.911   4.864   4.632
    1TCM    cl2  510   2.794   4.807   4.372
    1TCM     h1  511   3.026   4.828   4.425
    1TCM    cl3  512   2.964   4.610   4.501
    1TCM     c1  513   3.816   4.096   2.116
    1TCM    cl1  514   3.739   4.199   2.239
    1TCM    cl2  515   3.951   4.185   2.040
    1TCM     h1  516   3.855   4.004   2.164
    1TCM    cl3  517   3.696   4.053   1.992
    1TCM     c1  518   0.868   0.192   3.422
    1TCM    cl1  519   0.964   0.091   3.312
    1TCM    cl2  520   0.699   0.194   3.369
    1TCM     h1  521   0.874   0.150   3.525
    1TCM    cl3  522   0.933   0.357   3.422
    1TCM     c1  523   0.953   1.379   2.713
    1TCM    cl1  524   0.822   1.434   2.606
    1TCM    cl2  525   0.888   1.354   2.877
    1TCM     h1  526   0.994   1.284   2.675
    1TCM    cl3  527   1.081   1.502   2.718
    1TCM     c1  528   1.208   0.737   2.343
    1TCM    cl1  529   1.088   0.660   2.450
    1TCM    cl2  530   1.141   0.750   2.179
    1TCM     h1  531   1.232   0.838   2.381
    1TCM    cl3  532   1.355   0.637   2.339
    1TCM     c1  533   2.928   1.231   3.870
    1TCM    cl1  534   2.977   1.389   3.803
    1TCM    cl2  535   3.035   1.188   4.005
    1TCM     h1  536   2.823   1.238   3.907
    1TCM    cl3  537   2.938   1.107   3.743
    1TCM     c1  538   4.619   5.118   1.285
    1TCM    cl1  539   4.545   5.139   1.124
    1TCM    cl2  540   4.653   5.278   1.355
    1TCM     h1  541   4.549   5.063   1.351
    1TCM    cl3  542   4.770   5.027   1.269
    1TCM     c1  543   0.533   4.435   0.334
    1TCM    cl1  544   0.394   4.441   0.445
    1TCM    cl2  545   0.477   4.454   0.167
    1TCM     h1  546   0.604   4.517   0.359
    1TCM    cl3  547   0.616   4.278   0.352
    1TCM     c1  548   2.376   3.426   2.219
    1TCM    cl1  549   2.489   3.562   2.217
    1TCM    cl2  550   2.345   3.378   2.388
    1TCM     h1  551   2.280   3.456   2.171
    1TCM    cl3  552   2.446   3.289   2.131
    1TCM     c1  553   0.404   3.180   1.114
    1TCM    cl1  554   0.301   3.323   1.132
    1TCM    cl2  555   0.419   3.138   0.942
    1TCM     h1  556   0.505   3.201   1.156
    1TCM    cl3  557   0.332   3.043   1.202
    1TCM     c1  558   3.363   3.638   1.043
    1TCM    cl1  559   3.477   3.758   0.978
    1TCM    cl2  560   3.388   3.621   1.219
    1TCM     h1  561   3.259   3.672   1.025
    1TCM    cl3  562   3.389   3.481   0.964
    1TCM     c1  563   3.197   3.030   4.933
    1TCM    cl1  564   3.345   3.125   4.912
    1TCM    cl2  565   3.097   3.102   5.062
    1TCM     h1  566   3.139   3.029   4.838
    1TCM    cl3  567   3.239   2.863   4.978
    1TCM     c1  568   1.116   1.352   1.867
    1TCM    cl1  569   1.148   1.454   2.008
    1TCM    cl2  570   1.208   1.413   1.727
    1TCM     h1  571   1.147   1.247   1.889
    1TCM    cl3  572   0.942   1.355   1.828
    1TCM     c1  573   1.960   2.590   4.736
    1TCM    cl1  574   1.991   2.416   4.714
    1TCM    cl2  575   1.999   2.637   4.903
    1TCM     h1  576   2.023   2.648   4.665
    1TCM    cl3  577   1.788   2.624   4.703
    1TCM     c1  578   2.161   4.147   4.123
    1TCM    cl1  579   2.038   4.069   4.022
    1TCM    cl2  580   2.124   4.118   4.295
    1TCM     h1  581   2.261   4.105   4.099
    1TCM    cl3  582   2.162   4.322   4.092
    1TCM     c1  583   0.784   0.359   0.170
    1TCM    cl1  584   0.753   0.303   0.004
    1TCM    cl2  585   0.919   0.267   0.240
    1TCM     h1  586   0.809   0.467   0.169
    1TCM    cl3  587   0.638   0.334   0.269
    1TCM     c1  588   1.129   0.618   2.966
    1TCM    cl1  589   1.181   0.676   2.806
    1TCM    cl2  590   1.229   0.693   3.092
    1TCM     h1  591   1.022   0.644   2.982
    1TCM    cl3  592   1.148   0.441   2.974
    1TCM     c1  593   4.492   3.250   3.331
    1TCM    cl1  594   4.623   3.360   3.284
    1TCM    cl2  595   4.516   3.197   3.499
    1TCM     h1  596   4.394   3.303   3.323
    1TCM    cl3  597   4.492   3.108   3.223
    1TCM     c1  598   3.240   4.832   5.240
    1TCM    cl1  599   3.356   4.741   5.340
    1TCM    cl2  600   3.161   4.956   5.340
    1TCM     h1  601   3.294   4.881   5.157
    1TCM    cl3  602   3.118   4.721   5.175
    1TCM     c1  603   1.751   0.094   3.629
    1TCM    cl1  604   1.681   0.176   3.488
    1TCM    cl2  605   1.749   0.204   3.769
    1TCM     h1  606   1.691   0.003   3.653
    1TCM    cl3  607   1.918   0.047   3.593
    1TCM     c1  608   0.963   0.841   4.020
    1TCM    cl1  609   0.938   0.743   4.166
    1TCM    cl2  610   0.864   0.988   4.030
    1TCM     h1  611   1.070   0.870   4.012
    1TCM    cl3  612   0.917   0.748   3.876
    1TCM     c1  613   2.055   5.140   2.412
    1TCM    cl1  614   1.962   5.062   2.281
    1TCM    cl2  615   1.943   5.201   2.535
    1TCM     h1  616   2.123   5.065   2.458
    1TCM    cl3  617   2.149   5.274   2.345
    1TCM     c1  618   1.086   1.324   2.312
    1TCM    cl1  619   1.179   1.184   2.254
    1TCM    cl2  620   1.117   1.347   2.485
    1TCM     h1  621   1.117   1.414   2.256
    1TCM    cl3  622   0.913   1.295   2.286
    1TCM     c1  623   1.627   1.642   0.185
    1TCM    cl1  624   1.508   1.720   0.292
    1TCM    cl2  625   1.600   1.697   0.018
    1TCM     h1  626   1.729   1.670   0.217
    1TCM    cl3  627   1.608   1.466   0.193
    1TCM     c1  628   4.231   3.109   2.492
    1TCM    cl1  629   4.288   2.975   2.390
    1TCM    cl2  630   4.071   3.163   2.434
    1TCM     h1  631   4.223   3.075   2.597
    1TCM    cl3  632   4.346   3.244   2.481
    1TCM     c1  633   2.924   4.773   1.465
    1TCM    cl1  634   2.775   4.744   1.373
    1TCM    cl2  635   3.050   4.833   1.356
    1TCM     h1  636   2.905   4.849   1.544
    1TCM    cl3  637   2.978   4.621   1.541
    1TCM     c1  638   4.317   2.469   3.329
    1TCM    cl1  639   4.491   2.504   3.323
    1TCM    cl2  640   4.249   2.537   3.479
    1TCM     h1  641   4.267   2.514   3.241
    1TCM    cl3  642   4.292   2.293   3.328
    1TCM     c1  643   4.321   0.806   3.689
    1TCM    cl1  644   4.172   0.902   3.706
    1TCM    cl2  645   4.301   0.689   3.557
    1TCM     h1  646   4.406   0.874   3.667
    1TCM    cl3  647   4.352   0.719   3.841
    1TCM     c1  648   4.256   1.020   3.317
    1TCM    cl1  649   4.431   0.989   3.314
    1TCM    cl2  650   4.188   0.957   3.469
    1TCM     h1  651   4.238   1.129   3.311
    1TCM    cl3  652   4.179   0.938   3.179
    1TCM     c1  653   2.133   0.302   3.272
    1TCM    cl1  654   2.050   0.268   3.426
    1TCM    cl2  655   2.065   0.198   3.145
    1TCM     h1  656   2.118   0.408   3.245
    1TCM    cl3  657   2.307   0.268   3.290
    1TCM     c1  658   0.534   4.474   3.667
    1TCM    cl1  659   0.423   4.537   3.543
    1TCM    cl2  660   0.441   4.392   3.794
    1TCM     h1  661   0.605   4.403   3.620
    1TCM    cl3  662   0.626   4.609   3.738
    1TCM     c1  663   0.271   1.933   4.812
    1TCM    cl1  664   0.253   2.108   4.832
    1TCM    cl2  665   0.384   1.899   4.679
    1TCM     h1  666   0.310   1.888   4.906
    1TCM    cl3  667   0.112   1.861   4.774
    1TCM     c1  668   1.065   5.181   5.228
    1TCM    cl1  669   1.197   5.236   5.334
    1TCM    cl2  670   0.936   5.109   5.328
    1TCM     h1  671   1.024   5.267   5.172
    1TCM    cl3  672   1.127   5.059   5.115
    1TCM     c1  673   0.847   2.158   1.197
    1TCM    cl1  674   0.775   2.301   1.275
    1TCM    cl2  675   0.720   2.040   1.161
    1TCM     h1  676   0.898   2.189   1.103
    1TCM    cl3  677   0.966   2.085   1.307
    1TCM     c1  678   4.828   1.659   2.370
    1TCM    cl1  679   4.953   1.609   2.487
    1TCM    cl2  680   4.870   1.599   2.208
    1TCM     h1  681   4.730   1.618   2.401
    1TCM    cl3  682   4.818   1.837   2.366
    1TCM     c1  683   2.939   1.347   2.594
    1TCM    cl1  684   2.863   1.194   2.546
    1TCM    cl2  685   3.036   1.321   2.741
    1TCM     h1  686   3.005   1.383   2.512
    1TCM    cl3  687   2.813   1.468   2.627
    1TCM     c1  688   3.185   0.531   2.625
    1TCM    cl1  689   3.228   0.702   2.608
    1TCM    cl2  690   3.222   0.477   2.790
    1TCM     h1  691   3.077   0.518   2.605
    1TCM    cl3  692   3.278   0.434   2.508
    1TCM     c1  693   2.405   4.734   1.125
    1TCM    cl1  694   2.306   4.658   1.251
    1TCM    cl2  695   2.343   4.689   0.964
    1TCM     h1  696   2.402   4.844   1.136
    1TCM    cl3  697   2.573   4.678   1.140
    1TCM     c1  698   0.569   3.438   4.085
    1TCM    cl1  699   0.443   3.442   4.210
    1TCM    cl2  700   0.570   3.593   3.997
    1TCM     h1  701   0.668   3.422   4.132
    1TCM    cl3  702   0.535   3.306   3.970
    1TCM     c1  703   2.536   0.072   1.732
    1TCM    cl1  704   2.568   0.228   1.811
    1TCM    cl2  705   2.677   0.026   1.632
    1TCM     h1  706   2.519  -0.006   1.809
    1TCM    cl3  707   2.392   0.086   1.628
    1TCM     c1  708   2.661   4.916   3.684
    1TCM    cl1  709   2.534   4.877   3.802
    1TCM    cl2  710   2.591   5.010   3.550
    1TCM     h1  711   2.740   4.976   3.733
    1TCM    cl3  712   2.732   4.766   3.620
    1TCM     c1  713   3.644   3.585   4.858
    1TCM    cl1  714   3.627   3.589   5.035
    1TCM    cl2  715   3.644   3.416   4.802
    1TCM     h1  716   3.559   3.639   4.811
    1TCM    cl3  717   3.797   3.663   4.811
    1TCM     c1  718   1.773   0.313   4.680
    1TCM    cl1  719   1.774   0.176   4.793
    1TCM    cl2  720   1.610   0.333   4.613
    1TCM     h1  721   1.803   0.405   4.734
    1TCM    cl3  722   1.888   0.282   4.548
    1TCM     c1  723   3.428   3.778   1.905
    1TCM    cl1  724   3.312   3.906   1.946
    1TCM    cl2  725   3.530   3.832   1.769
    1TCM     h1  726   3.492   3.757   1.993
    1TCM    cl3  727   3.340   3.631   1.858
    1TCM     c1  728   0.194   2.804   2.238
    1TCM    cl1  729   0.059   2.705   2.298
    1TCM    cl2  730   0.251   2.738   2.082
    1TCM     h1  731   0.161   2.908   2.224
    1TCM    cl3  732   0.327   2.799   2.356
    1TCM     c1  733   1.818   0.945   3.575
    1TCM    cl1  734   1.874   0.814   3.681
    1TCM    cl2  735   1.825   1.100   3.662
    1TCM     h1  736   1.883   0.951   3.485
    1TCM    cl3  737   1.650   0.913   3.525
    1TCM     c1  738   1.443   4.580   3.682
    1TCM    cl1  739   1.402   4.428   3.766
    1TCM    cl2  740   1.368   4.581   3.521
    1TCM     h1  741   1.405   4.666   3.741
    1TCM    cl3  742   1.620   4.593   3.666
    1TCM     c1  743   1.328   3.228   3.553
    1TCM    cl1  744   1.252   3.170   3.404
    1TCM    cl2  745   1.294   3.115   3.686
    1TCM     h1  746   1.438   3.236   3.538
    1TCM    cl3  747   1.263   3.389   3.595
    1TCM     c1  748   4.870   2.353   2.497
    1TCM    cl1  749   4.727   2.458   2.512
    1TCM    cl2  750   4.904   2.324   2.325
    1TCM     h1  751   4.957   2.403   2.544
    1TCM    cl3  752   4.838   2.198   2.579
    1TCM     c1  753   2.433   1.443   1.944
    1TCM    cl1  754   2.511   1.526   2.081
    1TCM    cl2  755   2.554   1.409   1.818
    1TCM     h1  756   2.388   1.347   1.979
    1TCM    cl3  757   2.305   1.547   1.877
    1TCM     c1  758   1.357   0.180   3.732
    1TCM    cl1  759   1.330   0.299   3.602
    1TCM    cl2  760   1.250   0.217   3.869
    1TCM     h1  761   1.334   0.078   3.694
    1TCM    cl3  762   1.527   0.188   3.784
    1TCM     c1  763   4.313   3.778   2.738
    1TCM    cl1  764   4.338   3.660   2.870
    1TCM    cl2  765   4.328   3.943   2.803
    1TCM     h1  766   4.389   3.762   2.659
    1TCM    cl3  767   4.150   3.756   2.669
    1TCM     c1  768   4.477   1.310   4.011
    1TCM    cl1  769   4.317   1.235   3.987
    1TCM    cl2  770   4.591   1.247   3.890
    1TCM     h1  771   4.469   1.420   4.000
    1TCM    cl3  772   4.536   1.271   4.174
    1TCM     c1  773   3.864   1.983   2.606
    1TCM    cl1  774   3.970   1.963   2.465
    1TCM    cl2  775   3.951   2.070   2.734
    1TCM     h1  776   3.774   2.041   2.577
    1TCM    cl3  777   3.814   1.823   2.667
    1TCM     c1  778   4.967   4.092   3.355
    1TCM    cl1  779   5.141   4.115   3.326
    1TCM    cl2  780   4.908   4.218   3.466
    1TCM     h1  781   4.912   4.098   3.259
    1TCM    cl3  782   4.939   3.932   3.428
    1TCM     c1  783   0.458   1.845   0.578
    1TCM    cl1  784   0.288   1.806   0.613
    1TCM    cl2  785   0.562   1.717   0.644
    1TCM     h1  786   0.473   1.852   0.468
    1TCM    cl3  787   0.500   2.000   0.654
    1TCM     c1  788   3.679   1.801   3.652
    1TCM    cl1  789   3.635   1.862   3.813
    1TCM    cl2  790   3.579   1.881   3.529
    1TCM     h1  791   3.786   1.822   3.632
    1TCM    cl3  792   3.651   1.625   3.646
    1TCM     c1  793   1.452   2.428   2.985
    1TCM    cl1  794   1.387   2.316   3.106
    1TCM    cl2  795   1.380   2.589   3.009
    1TCM     h1  796   1.562   2.435   2.996
    1TCM    cl3  797   1.412   2.369   2.822
    1TCM     c1  798   0.319   3.064   0.176
    1TCM    cl1  799   0.181   2.986   0.256
    1TCM    cl2  800   0.274   3.106   0.008
    1TCM     h1  801   0.346   3.157   0.230
    1TCM    cl3  802   0.457   2.953   0.174
    1TCM     c1  803   0.817   4.636   5.036
    1TCM    cl1  804   0.754   4.626   4.870
    1TCM    cl2  805   0.771   4.489   5.126
    1TCM     h1  806   0.928   4.644   5.033
    1TCM    cl3  807   0.750   4.779   5.117
    1TCM     c1  808   4.670   4.876   0.162
    1TCM    cl1  809   4.705   5.017   0.060
    1TCM    cl2  810   4.669   4.925   0.333
    1TCM     h1  811   4.570   4.835   0.135
    1TCM    cl3  812   4.795   4.752   0.137
    1TCM     c1  813   0.834   1.498   0.683
    1TCM    cl1  814   0.672   1.425   0.675
    1TCM    cl2  815   0.943   1.412   0.571
    1TCM     h1  816   0.828   1.605   0.654
    1TCM    cl3  817   0.897   1.485   0.849
    1TCM     c1  818   2.404   0.400   3.571
    1TCM    cl1  819   2.412   0.575   3.603
    1TCM    cl2  820   2.394   0.312   3.726
    1TCM     h1  821   2.314   0.379   3.510
    1TCM    cl3  822   2.549   0.349   3.483
    1TCM     c1  823   0.566   1.421   3.384
    1TCM    cl1  824   0.721   1.409   3.471
    1TCM    cl2  825   0.564   1.569   3.286
    1TCM     h1  826   0.553   1.333   3.319
    1TCM    cl3  827   0.433   1.428   3.502
    1TCM     c1  828   0.297   4.499   5.057
    1TCM    cl1  829   0.388   4.614   5.158
    1TCM    cl2  830   0.403   4.433   4.931
    1TCM     h1  831   0.259   4.416   5.121
    1TCM    cl3  832   0.160   4.583   4.981
    1TCM     c1  833   4.304   1.419   2.220
    1TCM    cl1  834   4.398   1.551   2.292
    1TCM    cl2  835   4.333   1.414   2.044
    1TCM     h1  836   4.334   1.323   2.265
    1TCM    cl3  837   4.130   1.446   2.249
    1TCM     c1  838   1.496   0.669   1.800
    1TCM    cl1  839   1.587   0.520   1.763
    1TCM    cl2  840   1.504   0.701   1.974
    1TCM     h1  841   1.540   0.754   1.744
    1TCM    cl3  842   1.326   0.648   1.751
    1TCM     c1  843   0.173   5.108   3.481
    1TCM    cl1  844   0.271   5.233   3.560
    1TCM    cl2  845   0.034   5.067   3.584
    1TCM     h1  846   0.137   5.145   3.383
    1TCM    cl3  847   0.272   4.962   3.455
    1TCM     c1  848   2.001   1.773   3.519
    1TCM    cl1  849   1.844   1.693   3.497
    1TCM    cl2  850   2.048   1.855   3.368
    1TCM     h1  851   1.994   1.848   3.601
    1TCM    cl3  852   2.124   1.652   3.561
    1TCM     c1  853   2.653   3.590   3.826
    1TCM    cl1  854   2.487   3.594   3.892
    1TCM    cl2  855   2.744   3.458   3.904
    1TCM     h1  856   2.648   3.572   3.717
    1TCM    cl3  857   2.733   3.745   3.858
    1TCM     c1  858   0.847   1.378   3.718
    1TCM    cl1  859   1.023   1.386   3.694
    1TCM    cl2  860   0.811   1.364   3.891
    1TCM     h1  861   0.800   1.471   3.678
    1TCM    cl3  862   0.781   1.237   3.632
    1TCM     c1  863   0.796   4.423   1.939
    1TCM    cl1  864   0.777   4.346   1.780
    1TCM    cl2  865   0.668   4.365   2.049
    1TCM     h1  866   0.895   4.397   1.982
    1TCM    cl3  867   0.782   4.600   1.922
    1TCM     c1  868   3.735   4.165   2.610
    1TCM    cl1  869   3.595   4.191   2.503
    1TCM    cl2  870   3.678   4.137   2.776
    1TCM     h1  871   3.792   4.077   2.575
    1TCM    cl3  872   3.839   4.310   2.607
    1TCM     c1  873   0.627   2.548   3.543
    1TCM    cl1  874   0.734   2.529   3.403
    1TCM    cl2  875   0.552   2.392   3.583
    1TCM     h1  876   0.686   2.584   3.631
    1TCM    cl3  877   0.500   2.667   3.506
    1TCM     c1  878   1.697   3.957   1.810
    1TCM    cl1  879   1.831   3.903   1.706
    1TCM    cl2  880   1.751   3.957   1.980
    1TCM     h1  881   1.668   4.060   1.781
    1TCM    cl3  882   1.559   3.848   1.792
    1TCM     c1  883   1.584   1.461   2.684
    1TCM    cl1  884   1.649   1.307   2.623
    1TCM    cl2  885   1.718   1.568   2.730
    1TCM     h1  886   1.523   1.510   2.605
    1TCM    cl3  887   1.482   1.429   2.826
    1TCM     c1  888   3.954   0.136   4.041
    1TCM    cl1  889   3.848   0.054   4.158
    1TCM    cl2  890   3.895   0.106   3.876
    1TCM     h1  891   3.953   0.245   4.061
    1TCM    cl3  892   4.119   0.074   4.057
    1TCM     c1  893   0.161   4.562   4.577
    1TCM    cl1  894   0.258   4.549   4.429
    1TCM    cl2  895   0.265   4.615   4.711
    1TCM     h1  896   0.079   4.635   4.562
    1TCM    cl3  897   0.091   4.403   4.616
    1TCM     c1  898   0.982   1.837   0.805
    1TCM    cl1  899   1.056   1.954   0.693
    1TCM    cl2  900   0.990   1.901   0.971
    1TCM     h1  901   0.876   1.821   0.777
    1TCM    cl3  902   1.070   1.683   0.797
    1TCM     c1  903   2.697   2.814   0.418
    1TCM    cl1  904   2.651   2.975   0.359
    1TCM    cl2  905   2.656   2.692   0.295
    1TCM     h1  906   2.807   2.811   0.437
    1TCM    cl3  907   2.610   2.778   0.568
    1TCM     c1  908   3.668   1.387   3.450
    1TCM    cl1  909   3.517   1.439   3.372
    1TCM    cl2  910   3.734   1.245   3.366
    1TCM     h1  911   3.743   1.470   3.446
    1TCM    cl3  912   3.636   1.346   3.620
    1TCM     c1  913   3.503   0.340   1.962
    1TCM    cl1  914   3.346   0.285   1.898
    1TCM    cl2  915   3.606   0.393   1.827
    1TCM     h1  916   3.487   0.424   2.031
    1TCM    cl3  917   3.582   0.206   2.048
    1TCM     c1  918   4.137   2.672   1.526
    1TCM    cl1  919   4.129   2.813   1.635
    1TCM    cl2  920   4.249   2.707   1.392
    1TCM     h1  921   4.173   2.584   1.583
    1TCM    cl3  922   3.975   2.639   1.461
    1TCM     c1  923   2.973   4.252   2.665
    1TCM    cl1  924   2.960   4.322   2.829
    1TCM    cl2  925   2.963   4.075   2.676
    1TCM     h1  926   2.889   4.290   2.602
    1TCM    cl3  927   3.128   4.299   2.593
    1TCM     c1  928   4.460   1.113   2.767
    1TCM    cl1  929   4.349   0.992   2.699
    1TCM    cl2  930   4.493   1.073   2.937
    1TCM     h1  931   4.555   1.112   2.709
    1TCM    cl3  932   4.385   1.274   2.757
    1TCM     c1  933   1.003   2.053   5.082
    1TCM    cl1  934   1.016   2.223   5.132
    1TCM    cl2  935   0.964   1.952   5.224
    1TCM     h1  936   0.922   2.042   5.006
    1TCM    cl3  937   1.157   1.999   5.012
    1TCM     c1  938   2.366   4.611   4.642
    1TCM    cl1  939   2.249   4.744   4.641
    1TCM    cl2  940   2.396   4.560   4.810
    1TCM     h1  941   2.326   4.526   4.584
    1TCM    cl3  942   2.519   4.667   4.570
    1TCM     c1  943   2.403   5.173   5.017
    1TCM    cl1  944   2.343   5.341   5.022
    1TCM    cl2  945   2.454   5.123   5.180
    1TCM     h1  946   2.322   5.107   4.981
    1TCM    cl3  947   2.541   5.163   4.906
    1TCM     c1  948   1.987   1.266   3.039
    1TCM    cl1  949   1.947   1.427   3.100
    1TCM    cl2  950   2.134   1.276   2.938
    1TCM     h1  951   2.005   1.197   3.124
    1TCM    cl3  952   1.853   1.204   2.940
    1TCM     c1  953   1.923   2.222   5.145
    1TCM    cl1  954   2.025   2.272   5.283
    1TCM    cl2  955   1.907   2.045   5.144
    1TCM     h1  956   1.823   2.269   5.155
    1TCM    cl3  957   1.999   2.276   4.994
    1TCM     c1  958   2.485   1.776   1.723
    1TCM    cl1  959   2.372   1.858   1.834
    1TCM    cl2  960   2.461   1.839   1.558
    1TCM     h1  961   2.589   1.795   1.755
    1TCM    cl3  962   2.453   1.601   1.724
    1TCM     c1  963   2.680   2.639   0.857
    1TCM    cl1  964   2.839   2.671   0.930
    1TCM    cl2  965   2.702   2.592   0.687
    1TCM     h1  966   2.630   2.557   0.912
    1TCM    cl3  967   2.581   2.786   0.866
    1TCM     c1  968   3.084   1.843   2.037
    1TCM    cl1  969   3.104   1.699   2.140
    1TCM    cl2  970   3.243   1.918   2.009
    1TCM     h1  971   3.039   1.813   1.940
    1TCM    cl3  972   2.977   1.959   2.118
    1TCM     c1  973   4.637   4.584   2.753
    1TCM    cl1  974   4.537   4.728   2.779
    1TCM    cl2  975   4.695   4.581   2.584
    1TCM     h1  976   4.725   4.586   2.821
    1TCM    cl3  977   4.541   4.438   2.785
    1TCM     c1  978   3.240   0.404   4.832
    1TCM    cl1  979   3.129   0.307   4.932
    1TCM    cl2  980   3.178   0.412   4.666
    1TCM     h1  981   3.247   0.506   4.874
    1TCM    cl3  982   3.401   0.329   4.832
    1TCM     c1  983   3.970   3.985   4.127
    1TCM    cl1  984   4.117   4.017   4.220
    1TCM    cl2  985   3.909   4.137   4.058
    1TCM     h1  986   3.993   3.914   4.044
    1TCM    cl3  987   3.846   3.914   4.233
    1TCM     c1  988   2.006   1.408   2.647
    1TCM    cl1  989   2.112   1.265   2.651
    1TCM    cl2  990   2.102   1.553   2.682
    1TCM     h1  991   1.961   1.417   2.546
    1TCM    cl3  992   1.877   1.391   2.768
    1TCM     c1  993   2.674   0.473   0.146
    1TCM    cl1  994   2.513   0.540   0.113
    1TCM    cl2  995   2.709   0.484   0.320
    1TCM     h1  996   2.678   0.367   0.114
    1TCM    cl3  997   2.796   0.566   0.056
    1TCM     c1  998   2.406   2.917   2.055
    1TCM    cl1  999   2.565   2.966   1.993
    1TCM    cl2 1000   2.386   2.979   2.221
    1TCM     h1 1001   2.326   2.959   1.990
    1TCM    cl3 1002   2.394   2.740   2.056
    1TCM     c1 1003   1.089   4.942   1.612
    1TCM    cl1 1004   0.991   5.049   1.716
    1TCM    cl2 1005   1.085   5.002   1.445
    1TCM     h1 1006   1.194   4.941   1.649
    1TCM    cl3 1007   1.022   4.778   1.618
    1TCM     c1 1008   4.235   2.311   4.424
    1TCM    cl1 1009   4.333   2.447   4.485
    1TCM    cl2 1010   4.343   2.180   4.372
    1TCM     h1 1011   4.168   2.275   4.504
    1TCM    cl3 1012   4.138   2.366   4.285
    1TCM     c1 1013   1.885   5.079   5.192
    1TCM    cl1 1014   1.740   5.162   5.254
    1TCM    cl2 1015   1.836   4.932   5.105
    1TCM     h1 1016   1.939   5.147   5.122
    1TCM    cl3 1017   1.991   5.036   5.328
    1TCM     c1 1018   3.472   3.806   0.567
    1TCM    cl1 1019   3.458   3.636   0.517
    1TCM    cl2 1020   3.335   3.848   0.672
    1TCM     h1 1021   3.567   3.821   0.622
    1TCM    cl3 1022   3.470   3.910   0.423
    1TCM     c1 1023   4.662   0.991   1.077
    1TCM    cl1 1024   4.580   0.861   0.988
    1TCM    cl2 1025   4.745   0.922   1.219
    1TCM     h1 1026   4.737   1.039   1.010
    1TCM    cl3 1027   4.543   1.111   1.130
    1TCM     c1 1028   4.177   1.897   1.997
    1TCM    cl1 1029   4.291   1.795   2.088
    1TCM    cl2 1030   4.205   2.068   2.038
    1TCM     h1 1031   4.192   1.882   1.888
    1TCM    cl3 1032   4.010   1.853   2.041
    1TCM     c1 1033   4.119   1.728   0.141
    1TCM    cl1 1034   4.233   1.766   0.010
    1TCM    cl2 1035   4.065   1.878   0.219
    1TCM     h1 1036   4.031   1.675   0.099
    1TCM    cl3 1037   4.199   1.624   0.261
    1TCM     c1 1038   4.002   3.256   4.815
    1TCM    cl1 1039   4.062   3.096   4.864
    1TCM    cl2 1040   3.825   3.260   4.831
    1TCM     h1 1041   4.047   3.333   4.880
    1TCM    cl3 1042   4.048   3.286   4.646
    1TCM     c1 1043   1.220   0.526   3.847
    1TCM    cl1 1044   1.196   0.659   3.731
    1TCM    cl2 1045   1.204   0.590   4.013
    1TCM     h1 1046   1.143   0.448   3.831
    1TCM    cl3 1047   1.382   0.457   3.826
    1TCM     c1 1048   3.583   0.356   1.432
    1TCM    cl1 1049   3.556   0.189   1.486
    1TCM    cl2 1050   3.688   0.441   1.548
    1TCM     h1 1051   3.631   0.356   1.332
    1TCM    cl3 1052   3.427   0.441   1.421
    1TCM     c1 1053   1.280   0.161   4.253
    1TCM    cl1 1054   1.237   0.225   4.413
    1TCM    cl2 1055   1.244   0.282   4.128
    1TCM     h1 1056   1.389   0.137   4.251
    1TCM    cl3 1057   1.186   0.013   4.221
    1TCM     c1 1058   2.256   1.082   4.192
    1TCM    cl1 1059   2.362   1.222   4.221
    1TCM    cl2 1060   2.154   1.055   4.335
    1TCM     h1 1061   2.192   1.103   4.104
    1TCM    cl3 1062   2.355   0.938   4.161
    1TCM     c1 1063   3.350   0.772   0.421
    1TCM    cl1 1064   3.312   0.832   0.257
    1TCM    cl2 1065   3.214   0.807   0.530
    1TCM     h1 1066   3.367   0.663   0.417
    1TCM    cl3 1067   3.496   0.853   0.481
    1TCM     c1 1068   1.678   2.211   2.722
    1TCM    cl1 1069   1.683   2.072   2.833
    1TCM    cl2 1070   1.560   2.178   2.592
    1TCM     h1 1071   1.647   2.302   2.778
    1TCM    cl3 1072   1.839   2.236   2.651
    1TCM     c1 1073   4.948   4.022   4.672
    1TCM    cl1 1074   5.108   4.095   4.698
    1TCM    cl2 1075   4.942   3.864   4.752
    1TCM     h1 1076   4.870   4.088   4.714
    1TCM    cl3 1077   4.921   4.001   4.497
    1TCM     c1 1078   0.847   0.954   2.773
    1TCM    cl1 1079   0.805   1.085   2.884
    1TCM    cl2 1080   0.927   0.823   2.863
    1TCM     h1 1081   0.755   0.914   2.725
    1TCM    cl3 1082   0.957   1.015   2.647
    1TCM     c1 1083   4.713   0.978   3.665
    1TCM    cl1 1084   4.793   0.860   3.558
    1TCM    cl2 1085   4.618   1.091   3.566
    1TCM     h1 1086   4.646   0.924   3.735
    1TCM    cl3 1087   4.836   1.067   3.757
    1TCM     c1 1088   5.090   4.814   0.643
    1TCM    cl1 1089   4.946   4.905   0.591
    1TCM    cl2 1090   5.079   4.647   0.583
    1TCM     h1 1091   5.181   4.862   0.603
    1TCM    cl3 1092   5.097   4.812   0.821
    1TCM     c1 1093   0.714   3.374   0.350
    1TCM    cl1 1094   0.780   3.445   0.500
    1TCM    cl2 1095   0.767   3.472   0.211
    1TCM     h1 1096   0.752   3.270   0.339
    1TCM    cl3 1097   0.537   3.373   0.358
    1TCM     c1 1098   1.221   2.490   4.734
    1TCM    cl1 1099   1.299   2.361   4.829
    1TCM    cl2 1100   1.258   2.466   4.562
    1TCM     h1 1101   1.112   2.486   4.750
    1TCM    cl3 1102   1.283   2.648   4.787
    1TCM     c1 1103   1.605   4.111   0.106
    1TCM    cl1 1104   1.711   4.228   0.188
    1TCM    cl2 1105   1.446   4.109   0.186
    1TCM     h1 1106   1.593   4.139  -0.000
    1TCM    cl3 1107   1.678   3.949   0.116
    1TCM     c1 1108   0.690   3.256   0.722
    1TCM    cl1 1109   0.695   3.115   0.830
    1TCM    cl2 1110   0.676   3.201   0.553
    1TCM     h1 1111   0.603   3.320   0.748
    1TCM    cl3 1112   0.840   3.350   0.741
    1TCM     c1 1113   4.256   1.648   2.612
    1TCM    cl1 1114   4.170   1.555   2.737
    1TCM    cl2 1115   4.201   1.596   2.451
    1TCM     h1 1116   4.235   1.756   2.625
    1TCM    cl3 1117   4.431   1.620   2.627
    1TCM     c1 1118   2.070   0.616   4.415
    1TCM    cl1 1119   2.013   0.758   4.324
    1TCM    cl2 1120   2.012   0.625   4.582
    1TCM     h1 1121   2.031   0.524   4.367
    1TCM    cl3 1122   2.248   0.613   4.413
    1TCM     c1 1123   0.452   0.140   2.555
    1TCM    cl1 1124   0.336   0.139   2.421
    1TCM    cl2 1125   0.364   0.126   2.710
    1TCM     h1 1126   0.522   0.055   2.545
    1TCM    cl3 1127   0.543   0.293   2.553
    1TCM     c1 1128   1.837   4.586   4.429
    1TCM    cl1 1129   1.895   4.436   4.503
    1TCM    cl2 1130   1.972   4.700   4.412
    1TCM     h1 1131   1.795   4.564   4.328
    1TCM    cl3 1132   1.711   4.658   4.531
    1TCM     c1 1133   4.258   4.650   1.489
    1TCM    cl1 1134   4.350   4.802   1.503
    1TCM    cl2 1135   4.185   4.611   1.647
    1TCM     h1 1136   4.178   4.662   1.413
    1TCM    cl3 1137   4.367   4.518   1.441
    1TCM     c1 1138   1.098   2.623   0.561
    1TCM    cl1 1139   0.927   2.582   0.586
    1TCM    cl2 1140   1.167   2.517   0.436
    1TCM     h1 1141   1.106   2.729   0.528
    1TCM    cl3 1142   1.187   2.601   0.713
    1TCM     c1 1143   1.431   1.074   4.307
    1TCM    cl1 1144   1.401   1.186   4.442
    1TCM    cl2 1145   1.419   1.163   4.153
    1TCM     h1 1146   1.533   1.031   4.316
    1TCM    cl3 1147   1.310   0.944   4.309
    1TCM     c1 1148   1.917   1.499   0.800
    1TCM    cl1 1149   1.837   1.416   0.935
    1TCM    cl2 1150   1.811   1.495   0.657
    1TCM     h1 1151   1.938   1.605   0.828
    1TCM    cl3 1152   2.070   1.417   0.762
    1TCM     c1 1153   1.270   4.595   1.448
    1TCM    cl1 1154   1.391   4.668   1.339
    1TCM    cl2 1155   1.275   4.678   1.605
    1TCM     h1 1156   1.169   4.606   1.403
    1TCM    cl3 1157   1.308   4.423   1.470
    1TCM     c1 1158   5.099   2.784   2.552
    1TCM    cl1 1159   5.063   2.616   2.599
    1TCM    cl2 1160   5.181   2.785   2.394
    1TCM     h1 1161   5.005   2.842   2.545
    1TCM    cl3 1162   5.205   2.858   2.674
    1TCM     c1 1163   0.910   2.454   0.227
    1TCM    cl1 1164   1.086   2.426   0.231
    1TCM    cl2 1165   0.854   2.456   0.058
    1TCM     h1 1166   0.859   2.372   0.282
    1TCM    cl3 1167   0.873   2.610   0.303
    1TCM     c1 1168   3.657   4.774   3.338
    1TCM    cl1 1169   3.569   4.812   3.188
    1TCM    cl2 1170   3.660   4.917   3.443
    1TCM     h1 1171   3.606   4.690   3.390
    1TCM    cl3 1172   3.823   4.726   3.298
    1TCM     c1 1173   2.151   1.010   2.449
    1TCM    cl1 1174   2.194   0.925   2.299
    1TCM    cl2 1175   2.161   0.897   2.586
    1TCM     h1 1176   2.223   1.094   2.465
    1TCM    cl3 1177   1.986   1.074   2.437
    1TCM     c1 1178   0.693   4.575   4.492
    1TCM    cl1 1179   0.863   4.614   4.457
    1TCM    cl2 1180   0.595   4.722   4.480
    1TCM     h1 1181   0.657   4.500   4.418
    1TCM    cl3 1182   0.680   4.507   4.656
    1TCM     c1 1183   2.054   4.861   3.925
    1TCM    cl1 1184   2.004   4.815   4.089
    1TCM    cl2 1185   1.926   4.817   3.810
    1TCM     h1 1186   2.072   4.971   3.921
    1TCM    cl3 1187   2.205   4.776   3.883
    1TCM     c1 1188   1.194   0.289   1.260
    1TCM    cl1 1189   1.344   0.385   1.258
    1TCM    cl2 1190   1.092   0.336   1.122
    1TCM     h1 1191   1.219   0.182   1.253
    1TCM    cl3 1192   1.107   0.320   1.412
    1TCM     c1 1193   2.548   3.121   1.094
    1TCM    cl1 1194   2.685   3.013   1.060
    1TCM    cl2 1195   2.515   3.121   1.268
    1TCM     h1 1196   2.573   3.224   1.061
    1TCM    cl3 1197   2.404   3.064   1.006
    1TCM     c1 1198   1.015   3.615   1.111
    1TCM    cl1 1199   0.851   3.663   1.163
    1TCM    cl2 1200   1.135   3.723   1.185
    1TCM     h1 1201   1.034   3.510   1.143
    1TCM    cl3 1202   1.026   3.626   0.934
    1TCM     c1 1203   3.790   2.369   2.042
    1TCM    cl1 1204   3.841   2.436   1.884
    1TCM    cl2 1205   3.670   2.241   2.016
    1TCM     h1 1206   3.879   2.327   2.094
    1TCM    cl3 1207   3.720   2.499   2.141
    1TCM     c1 1208   2.750   2.473   1.260
    1TCM    cl1 1209   2.783   2.639   1.205
    1TCM    cl2 1210   2.891   2.412   1.351
    1TCM     h1 1211   2.661   2.473   1.326
    1TCM    cl3 1212   2.721   2.368   1.119
    1TCM     c1 1213   2.745   3.494   4.295
    1TCM    cl1 1214   2.650   3.488   4.144
    1TCM    cl2 1215   2.753   3.661   4.354
    1TCM     h1 1216   2.697   3.429   4.371
    1TCM    cl3 1217   2.910   3.435   4.263
    1TCM     c1 1218   1.141   2.835   4.156
    1TCM    cl1 1219   1.278   2.941   4.115
    1TCM    cl2 1220   1.199   2.668   4.176
    1TCM     h1 1221   1.094   2.870   4.250
    1TCM    cl3 1222   1.021   2.841   4.024
    1TCM     c1 1223   1.533   2.984   3.476
    1TCM    cl1 1224   1.603   3.030   3.633
    1TCM    cl2 1225   1.367   2.926   3.500
    1TCM     h1 1226   1.532   3.072   3.409
    1TCM    cl3 1227   1.631   2.855   3.403
    1TCM     c1 1228   3.813   4.820   3.991
    1TCM    cl1 1229   3.782   4.659   4.059
    1TCM    cl2 1230   3.714   4.843   3.845
    1TCM     h1 1231   3.787   4.898   4.065
    1TCM    cl3 1232   3.986   4.834   3.948
    1TCM     c1 1233   0.184   3.221   0.516
    1TCM    cl1 1234   0.077   3.113   0.423
    1TCM    cl2 1235   0.189   3.169   0.686
    1TCM     h1 1236   0.287   3.216   0.473
    1TCM    cl3 1237   0.124   3.388   0.506
    1TCM     c1 1238   1.453   2.341   5.149
    1TCM    cl1 1239   1.484   2.247   5.297
    1TCM    cl2 1240   1.404   2.232   5.018
    1TCM     h1 1241   1.372   2.414   5.169
    1TCM    cl3 1242   1.601   2.428   5.102
    1TCM     c1 1243   0.294   1.901   3.062
    1TCM    cl1 1244   0.250   1.818   2.911
    1TCM    cl2 1245   0.243   1.803   3.201
    1TCM     h1 1246   0.404   1.916   3.065
    1TCM    cl3 1247   0.213   2.059   3.068
    1TCM     c1 1248   3.646   0.274   5.048
    1TCM    cl1 1249   3.607   0.170   4.909
    1TCM    cl2 1250   3.682   0.438   4.990
    1TCM     h1 1251   3.559   0.278   5.116
    1TCM    cl3 1252   3.787   0.209   5.134
    1TCM     c1 1253   1.772   2.756   2.157
    1TCM    cl1 1254   1.802   2.918   2.090
    1TCM    cl2 1255   1.597   2.729   2.170
    1TCM     h1 1256   1.816   2.680   2.090
    1TCM    cl3 1257   1.846   2.744   2.318
    1TCM     c1 1258   4.203   0.601   4.284
    1TCM    cl1 1259   4.210   0.698   4.432
    1TCM    cl2 1260   4.336   0.648   4.175
    1TCM     h1 1261   4.212   0.493   4.309
    1TCM    cl3 1262   4.047   0.629   4.202
    1TCM     c1 1263   0.345   3.831   1.616
    1TCM    cl1 1264   0.399   3.755   1.464
    1TCM    cl2 1265   0.222   3.728   1.693
    1TCM     h1 1266   0.431   3.843   1.684
    1TCM    cl3 1267   0.274   3.990   1.580
    1TCM     c1 1268   0.227   1.619   0.928
    1TCM    cl1 1269   0.324   1.741   0.842
    1TCM    cl2 1270   0.109   1.701   1.033
    1TCM     h1 1271   0.173   1.556   0.854
    1TCM    cl3 1272   0.333   1.517   1.027
    1TCM     c1 1273   3.681   2.600   2.896
    1TCM    cl1 1274   3.526   2.575   2.978
    1TCM    cl2 1275   3.788   2.697   3.000
    1TCM     h1 1276   3.728   2.501   2.876
    1TCM    cl3 1277   3.654   2.685   2.743
    1TCM     c1 1278   0.273   4.860   2.884
    1TCM    cl1 1279   0.216   5.026   2.856
    1TCM    cl2 1280   0.160   4.776   2.993
    1TCM     h1 1281   0.279   4.806   2.788
    1TCM    cl3 1282   0.435   4.865   2.959
    1TCM     c1 1283   0.125   4.626   2.456
    1TCM    cl1 1284   0.073   4.543   2.307
    1TCM    cl2 1285   0.028   4.569   2.593
    1TCM     h1 1286   0.232   4.604   2.474
    1TCM    cl3 1287   0.103   4.801   2.437
    1TCM     c1 1288   0.536   2.475   2.324
    1TCM    cl1 1289   0.396   2.400   2.404
    1TCM    cl2 1290   0.499   2.646   2.289
    1TCM     h1 1291   0.624   2.470   2.392
    1TCM    cl3 1292   0.572   2.390   2.173
    1TCM     c1 1293   0.669   4.054   2.907
    1TCM    cl1 1294   0.573   3.923   2.834
    1TCM    cl2 1295   0.790   4.110   2.790
    1TCM     h1 1296   0.602   4.138   2.934
    1TCM    cl3 1297   0.750   3.993   3.053
    1TCM     c1 1298   2.406   0.718   3.973
    1TCM    cl1 1299   2.259   0.689   4.069
    1TCM    cl2 1300   2.387   0.644   3.812
    1TCM     h1 1301   2.422   0.827   3.962
    1TCM    cl3 1302   2.546   0.645   4.055
    1TCM     c1 1303   1.723   2.158   2.205
    1TCM    cl1 1304   1.778   1.994   2.163
    1TCM    cl2 1305   1.736   2.181   2.381
    1TCM     h1 1306   1.786   2.233   2.153
    1TCM    cl3 1307   1.554   2.178   2.154
    1TCM     c1 1308   0.889   3.180   2.433
    1TCM    cl1 1309   0.988   3.202   2.286
    1TCM    cl2 1310   0.723   3.234   2.401
    1TCM     h1 1311   0.888   3.073   2.461
    1TCM    cl3 1312   0.958   3.276   2.566
    1TCM     c1 1313   4.713   3.696   3.111
    1TCM    cl1 1314   4.832   3.641   3.231
    1TCM    cl2 1315   4.739   3.869   3.077
    1TCM     h1 1316   4.725   3.638   3.017
    1TCM    cl3 1317   4.549   3.672   3.175
    1TCM     c1 1318   4.251   1.102   4.546
    1TCM    cl1 1319   4.192   1.216   4.422
    1TCM    cl2 1320   4.263   0.939   4.476
    1TCM     h1 1321   4.351   1.135   4.582
    1TCM    cl3 1322   4.137   1.100   4.682
    1TCM     c1 1323   0.150   3.140   4.661
    1TCM    cl1 1324   0.233   3.188   4.811
    1TCM    cl2 1325   0.256   3.171   4.522
    1TCM     h1 1326   0.125   3.032   4.666
    1TCM    cl3 1327  -0.000   3.234   4.644
    1TCM     c1 1328   1.189   1.920   0.376
    1TCM    cl1 1329   1.298   1.936   0.236
    1TCM    cl2 1330   1.281   1.941   0.526
    1TCM     h1 1331   1.109   1.997   0.370
    1TCM    cl3 1332   1.114   1.758   0.374
    1TCM     c1 1333   1.821   2.115   1.737
    1TCM    cl1 1334   1.698   2.229   1.795
    1TCM    cl2 1335   1.875   2.164   1.574
    1TCM     h1 1336   1.908   2.116   1.806
    1TCM    cl3 1337   1.753   1.951   1.730
    1TCM     c1 1338   2.597   4.503   3.887
    1TCM    cl1 1339   2.426   4.464   3.859
    1TCM    cl2 1340   2.639   4.652   3.799
    1TCM     h1 1341   2.614   4.519   3.996
    1TCM    cl3 1342   2.698   4.369   3.830
    1TCM     c1 1343   3.262   0.615   1.758
    1TCM    cl1 1344   3.400   0.626   1.869
    1TCM    cl2 1345   3.318   0.561   1.598
    1TCM     h1 1346   3.188   0.542   1.798
    1TCM    cl3 1347   3.185   0.775   1.743
    1TCM     c1 1348   2.464   4.816   4.926
    1TCM    cl1 1349   2.556   4.911   5.044
    1TCM    cl2 1350   2.542   4.828   4.766
    1TCM     h1 1351   2.462   4.709   4.958
    1TCM    cl3 1352   2.298   4.878   4.916
    1TCM     c1 1353   2.660   1.871   3.437
    1TCM    cl1 1354   2.629   1.730   3.334
    1TCM    cl2 1355   2.807   1.954   3.382
    1TCM     h1 1356   2.574   1.941   3.431
    1TCM    cl3 1357   2.681   1.818   3.606
    1TCM     c1 1358   0.871   1.705   4.914
    1TCM    cl1 1359   1.019   1.705   5.012
    1TCM    cl2 1360   0.729   1.704   5.022
    1TCM     h1 1361   0.868   1.796   4.851
    1TCM    cl3 1362   0.867   1.560   4.811
    1TCM     c1 1363   3.146   1.156   3.117
    1TCM    cl1 1364   3.058   1.074   3.248
    1TCM    cl2 1365   3.320   1.117   3.128
    1TCM     h1 1366   3.107   1.122   3.019
    1TCM    cl3 1367   3.124   1.332   3.132
    1TCM     c1 1368   3.753   0.811   1.693
    1TCM    cl1 1369   3.661   0.689   1.785
    1TCM    cl2 1370   3.777   0.754   1.526
    1TCM     h1 1371   3.697   0.906   1.692
    1TCM    cl3 1372   3.912   0.836   1.770
    1TCM     c1 1373   0.476   0.383   0.694
    1TCM    cl1 1374   0.564   0.272   0.801
    1TCM    cl2 1375   0.583   0.517   0.646
    1TCM     h1 1376   0.442   0.329   0.604
    1TCM    cl3 1377   0.335   0.449   0.780
    1TCM     c1 1378   0.855   3.822   3.749
    1TCM    cl1 1379   1.012   3.853   3.826
    1TCM    cl2 1380   0.724   3.884   3.853
    1TCM     h1 1381   0.851   3.874   3.651
    1TCM    cl3 1382   0.834   3.647   3.725
    1TCM     c1 1383   5.227   4.240   4.442
    1TCM    cl1 1384   5.175   4.396   4.508
    1TCM    cl2 1385   5.340   4.161   4.555
    1TCM     h1 1386   5.139   4.174   4.426
    1TCM    cl3 1387   5.309   4.266   4.286
    1TCM     c1 1388   3.752   1.789   0.945
    1TCM    cl1 1389   3.862   1.846   1.073
    1TCM    cl2 1390   3.830   1.809   0.786
    1TCM     h1 1391   3.728   1.683   0.962
    1TCM    cl3 1392   3.603   1.885   0.949
    1TCM     c1 1393   3.421   4.484   3.788
    1TCM    cl1 1394   3.550   4.440   3.674
    1TCM    cl2 1395   3.485   4.484   3.953
    1TCM     h1 1396   3.382   4.585   3.763
    1TCM    cl3 1397   3.289   4.365   3.775
    1TCM     c1 1398   1.747   4.739   3.268
    1TCM    cl1 1399   1.732   4.596   3.373
    1TCM    cl2 1400   1.695   4.697   3.103
    1TCM     h1 1401   1.683   4.821   3.307
    1TCM    cl3 1402   1.916   4.793   3.264
    1TCM     c1 1403   2.553   0.567   2.624
    1TCM    cl1 1404   2.631   0.470   2.497
    1TCM    cl2 1405   2.549   0.738   2.574
    1TCM     h1 1406   2.450   0.531   2.640
    1TCM    cl3 1407   2.646   0.552   2.775
    1TCM     c1 1408   3.326   2.129   4.221
    1TCM    cl1 1409   3.424   2.212   4.344
    1TCM    cl2 1410   3.251   2.251   4.114
    1TCM     h1 1411   3.390   2.062   4.161
    1TCM    cl3 1412   3.198   2.034   4.300
    1TCM     c1 1413   2.989   2.491   0.590
    1TCM    cl1 1414   2.895   2.342   0.615
    1TCM    cl2 1415   3.060   2.543   0.744
    1TCM     h1 1416   3.069   2.472   0.516
    1TCM    cl3 1417   2.882   2.619   0.528
    1TCM     c1 1418   1.589   0.431   5.024
    1TCM    cl1 1419   1.720   0.522   4.946
    1TCM    cl2 1420   1.657   0.295   5.117
    1TCM     h1 1421   1.533   0.498   5.093
    1TCM    cl3 1422   1.478   0.368   4.900
    1TCM     c1 1423   0.750   1.635   1.669
    1TCM    cl1 1424   0.788   1.755   1.544
    1TCM    cl2 1425   0.679   1.716   1.810
    1TCM     h1 1426   0.678   1.561   1.628
    1TCM    cl3 1427   0.899   1.551   1.718
    1TCM     c1 1428   4.964   3.181   0.282
    1TCM    cl1 1429   4.886   3.205   0.439
    1TCM    cl2 1430   4.996   3.008   0.257
    1TCM     h1 1431   4.898   3.218   0.201
    1TCM    cl3 1432   5.118   3.270   0.278
    1TCM     c1 1433   0.679   1.715   4.023
    1TCM    cl1 1434   0.697   1.577   3.913
    1TCM    cl2 1435   0.510   1.725   4.079
    1TCM     h1 1436   0.746   1.702   4.110
    1TCM    cl3 1437   0.721   1.865   3.937
    1TCM     c1 1438   0.967   0.787   0.431
    1TCM    cl1 1439   1.074   0.670   0.512
    1TCM    cl2 1440   0.941   0.927   0.538
    1TCM     h1 1441   1.015   0.821   0.337
    1TCM    cl3 1442   0.812   0.710   0.395
    1TCM     c1 1443   3.489   4.924   4.864
    1TCM    cl1 1444   3.348   4.980   4.771
    1TCM    cl2 1445   3.451   4.768   4.941
    1TCM     h1 1446   3.575   4.911   4.795
    1TCM    cl3 1447   3.529   5.044   4.989
    1TCM     c1 1448   3.095   3.874   3.599
    1TCM    cl1 1449   3.019   3.845   3.757
    1TCM    cl2 1450   3.199   3.735   3.558
    1TCM     h1 1451   3.017   3.885   3.522
    1TCM    cl3 1452   3.194   4.022   3.607
    1TCM     c1 1453   2.919   4.264   3.255
    1TCM    cl1 1454   2.992   4.131   3.349
    1TCM    cl2 1455   2.959   4.244   3.083
    1TCM     h1 1456   2.809   4.262   3.268
    1TCM    cl3 1457   2.983   4.419   3.313
    1TCM     c1 1458   3.469   1.366   2.744
    1TCM    cl1 1459   3.585   1.446   2.635
    1TCM    cl2 1460   3.490   1.430   2.909
    1TCM     h1 1461   3.366   1.387   2.709
    1TCM    cl3 1462   3.499   1.191   2.744
    1TCM     c1 1463   4.571   2.102   5.136
    1TCM    cl1 1464   4.410   2.175   5.120
    1TCM    cl2 1465   4.584   2.025   5.296
    1TCM     h1 1466   4.585   2.025   5.057
    1TCM    cl3 1467   4.695   2.227   5.120
    1TCM     c1 1468   3.173   2.239   0.795
    1TCM    cl1 1469   3.200   2.280   0.966
    1TCM    cl2 1470   3.032   2.133   0.781
    1TCM     h1 1471   3.155   2.332   0.737
    1TCM    cl3 1472   3.316   2.156   0.731
    1TCM     c1 1473   4.646   4.832   1.535
    1TCM    cl1 1474   4.747   4.826   1.389
    1TCM    cl2 1475   4.739   4.904   1.669
    1TCM     h1 1476   4.556   4.894   1.515
    1TCM    cl3 1477   4.597   4.667   1.580
    1TCM     c1 1478   4.672   0.718   3.261
    1TCM    cl1 1479   4.571   0.634   3.141
    1TCM    cl2 1480   4.576   0.747   3.408
    1TCM     h1 1481   4.760   0.655   3.286
    1TCM    cl3 1482   4.727   0.873   3.195
    1TCM     c1 1483   3.555   2.216   0.452
    1TCM    cl1 1484   3.579   2.044   0.490
    1TCM    cl2 1485   3.501   2.232   0.283
    1TCM     h1 1486   3.478   2.258   0.520
    1TCM    cl3 1487   3.708   2.303   0.474
    1TCM     c1 1488   1.757   0.160   2.740
    1TCM    cl1 1489   1.874   0.293   2.729
    1TCM    cl2 1490   1.838   0.015   2.804
    1TCM     h1 1491   1.674   0.189   2.808
    1TCM    cl3 1492   1.692   0.124   2.579
    1TCM     c1 1493   1.320   4.622   5.113
    1TCM    cl1 1494   1.218   4.730   5.210
    1TCM    cl2 1495   1.490   4.671   5.128
    1TCM     h1 1496   1.309   4.517   5.149
    1TCM    cl3 1497   1.271   4.631   4.942
    1TCM     c1 1498   5.133   0.288   4.508
    1TCM    cl1 1499   5.078   0.154   4.405
    1TCM    cl2 1500   5.128   0.237   4.678
    1TCM     h1 1501   5.237   0.316   4.480
    1TCM    cl3 1502   5.026   0.428   4.484
    1TCM     c1 1503   4.327   4.861   0.278
    1TCM    cl1 1504   4.317   4.806   0.109
    1TCM    cl2 1505   4.312   4.720   0.387
    1TCM     h1 1506   4.424   4.911   0.295
    1TCM    cl3 1507   4.195   4.975   0.311
    1TCM     c1 1508   0.621   2.548   3.911
    1TCM    cl1 1509   0.517   2.639   3.799
    1TCM    cl2 1510   0.549   2.551   4.074
    1TCM     h1 1511   0.629   2.443   3.877
    1TCM    cl3 1512   0.782   2.622   3.917
    1TCM     c1 1513   4.163   1.324   1.675
    1TCM    cl1 1514   4.181   1.492   1.729
    1TCM    cl2 1515   4.181   1.215   1.814
    1TCM     h1 1516   4.063   1.310   1.629
    1TCM    cl3 1517   4.288   1.287   1.554
    1TCM     c1 1518   1.359   4.916   0.342
    1TCM    cl1 1519   1.522   4.854   0.377
    1TCM    cl2 1520   1.343   4.945   0.167
    1TCM     h1 1521   1.284   4.841   0.374
    1TCM    cl3 1522   1.333   5.068   0.430
    1TCM     c1 1523   3.299   1.041   4.034
    1TCM    cl1 1524   3.293   1.207   3.971
    1TCM    cl2 1525   3.268   1.043   4.209
    1TCM     h1 1526   3.221   0.980   3.983
    1TCM    cl3 1527   3.459   0.971   4.002
    1TCM     c1 1528   4.649   3.548   3.717
    1TCM    cl1 1529   4.535   3.644   3.619
    1TCM    cl2 1530   4.767   3.469   3.610
    1TCM     h1 1531   4.702   3.615   3.788
    1TCM    cl3 1532   4.560   3.424   3.808
    1TCM     c1 1533   1.349   0.891   0.632
    1TCM    cl1 1534   1.470   0.834   0.516
    1TCM    cl2 1535   1.334   0.774   0.765
    1TCM     h1 1536   1.381   0.990   0.673
    1TCM    cl3 1537   1.192   0.909   0.551
    1TCM     c1 1538   1.177   2.083   1.082
    1TCM    cl1 1539   1.204   2.216   1.197
    1TCM    cl2 1540   1.330   2.044   1.000
    1TCM     h1 1541   1.141   1.994   1.137
    1TCM    cl3 1542   1.056   2.133   0.962
    1TCM     c1 1543   3.487   3.071   2.390
    1TCM    cl1 1544   3.530   2.919   2.472
    1TCM    cl2 1545   3.507   3.052   2.215
    1TCM     h1 1546   3.381   3.096   2.412
    1TCM    cl3 1547   3.592   3.202   2.449
    1TCM     c1 1548   3.241   3.550   2.839
    1TCM    cl1 1549   3.331   3.672   2.746
    1TCM    cl2 1550   3.087   3.619   2.895
    1TCM     h1 1551   3.221   3.462   2.775
    1TCM    cl3 1552   3.338   3.500   2.980
    1TCM     c1 1553   1.351   1.163   0.259
    1TCM    cl1 1554   1.311   1.308   0.353
    1TCM    cl2 1555   1.252   1.026   0.317
    1TCM     h1 1556   1.329   1.181   0.152
    1TCM    cl3 1557   1.523   1.124   0.280
    1TCM     c1 1558   3.054   0.245   0.892
    1TCM    cl1 1559   3.092   0.096   0.981
    1TCM    cl2 1560   2.918   0.215   0.781
    1TCM     h1 1561   3.027   0.325   0.963
    1TCM    cl3 1562   3.197   0.296   0.798
    1TCM     c1 1563   1.924   3.381   1.072
    1TCM    cl1 1564   2.050   3.494   1.128
    1TCM    cl2 1565   1.882   3.269   1.204
    1TCM     h1 1566   1.834   3.438   1.042
    1TCM    cl3 1567   1.985   3.289   0.933
    1TCM     c1 1568   2.957   3.783   1.998
    1TCM    cl1 1569   2.866   3.932   1.961
    1TCM    cl2 1570   2.997   3.780   2.171
    1TCM     h1 1571   2.895   3.695   1.972
    1TCM    cl3 1572   3.107   3.780   1.903
    1TCM     c1 1573   4.650   0.582   4.113
    1TCM    cl1 1574   4.681   0.634   3.945
    1TCM    cl2 1575   4.679   0.719   4.223
    1TCM     h1 1576   4.544   0.549   4.122
    1TCM    cl3 1577   4.758   0.448   4.155
    1TCM     c1 1578   4.661   3.025   4.776
    1TCM    cl1 1579   4.584   2.891   4.865
    1TCM    cl2 1580   4.835   3.029   4.814
    1TCM     h1 1581   4.647   3.010   4.667
    1TCM    cl3 1582   4.587   3.179   4.825
    1TCM     c1 1583   1.067   4.706   2.396
    1TCM    cl1 1584   1.150   4.591   2.289
    1TCM    cl2 1585   1.090   4.655   2.565
    1TCM     h1 1586   1.110   4.807   2.382
    1TCM    cl3 1587   0.894   4.708   2.358
    1TCM     c1 1588   5.123   0.224   0.373
    1TCM    cl1 1589   5.035   0.332   0.263
    1TCM    cl2 1590   5.253   0.315   0.454
    1TCM     h1 1591   5.053   0.184   0.449
    1TCM    cl3 1592   5.194   0.090   0.281
    1TCM     c1 1593   4.622   0.499   3.679
    1TCM    cl1 1594   4.461   0.469   3.749
    1TCM    cl2 1595   4.605   0.537   3.506
    1TCM     h1 1596   4.670   0.584   3.731
    1TCM    cl3 1597   4.723   0.354   3.698
    1TCM     c1 1598   3.602   5.115   4.456
    1TCM    cl1 1599   3.603   5.004   4.317
    1TCM    cl2 1600   3.667   5.273   4.406
    1TCM     h1 1601   3.497   5.128   4.492
    1TCM    cl3 1602   3.702   5.049   4.587
    1TCM     c1 1603   1.443   1.910   1.742
    1TCM    cl1 1604   1.285   1.941   1.667
    1TCM    cl2 1605   1.520   2.065   1.784
    1TCM     h1 1606   1.429   1.850   1.834
    1TCM    cl3 1607   1.547   1.822   1.628
    1TCM     c1 1608   3.307   1.745   2.819
    1TCM    cl1 1609   3.387   1.757   2.660
    1TCM    cl2 1610   3.132   1.726   2.796
    1TCM     h1 1611   3.346   1.657   2.874
    1TCM    cl3 1612   3.339   1.892   2.913
    1TCM     c1 1613   3.622   0.427   0.539
    1TCM    cl1 1614   3.452   0.421   0.592
    1TCM    cl2 1615   3.628   0.433   0.361
    1TCM     h1 1616   3.670   0.517   0.580
    1TCM    cl3 1617   3.707   0.281   0.596
    1TCM     c1 1618   0.665   1.357   2.034
    1TCM    cl1 1619   0.527   1.358   1.923
    1TCM    cl2 1620   0.606   1.342   2.201
    1TCM     h1 1621   0.731   1.270   2.011
    1TCM    cl3 1622   0.757   1.508   2.017
    1TCM     c1 1623   2.796   3.783   1.356
    1TCM    cl1 1624   2.847   3.651   1.464
    1TCM    cl2 1625   2.626   3.760   1.312
    1TCM     h1 1626   2.809   3.880   1.408
    1TCM    cl3 1627   2.896   3.780   1.209
    1TCM     c1 1628   2.423   2.578   4.369
    1TCM    cl1 1629   2.293   2.527   4.259
    1TCM    cl2 1630   2.390   2.517   4.533
    1TCM     h1 1631   2.520   2.536   4.333
    1TCM    cl3 1632   2.433   2.755   4.372
    1TCM     c1 1633   0.608   2.357   0.915
    1TCM    cl1 1634   0.575   2.265   0.767
    1TCM    cl2 1635   0.543   2.270   1.056
    1TCM     h1 1636   0.718   2.370   0.927
    1TCM    cl3 1637   0.531   2.517   0.904
    1TCM     c1 1638   2.514   0.491   1.643
    1TCM    cl1 1639   2.401   0.436   1.517
    1TCM    cl2 1640   2.465   0.422   1.800
    1TCM     h1 1641   2.616   0.457   1.618
    1TCM    cl3 1642   2.510   0.668   1.652
    1TCM     c1 1643   2.452   3.635   0.162
    1TCM    cl1 1644   2.617   3.600   0.106
    1TCM    cl2 1645   2.348   3.672   0.023
    1TCM     h1 1646   2.412   3.546   0.216
    1TCM    cl3 1647   2.455   3.774   0.273
    1TCM     c1 1648   0.157   3.457   4.967
    1TCM    cl1 1649   0.324   3.458   5.027
    1TCM    cl2 1650   0.063   3.332   5.052
    1TCM     h1 1651   0.111   3.557   4.985
    1TCM    cl3 1652   0.157   3.422   4.792
    1TCM     c1 1653   3.988   1.940   1.652
    1TCM    cl1 1654   4.065   2.073   1.741
    1TCM    cl2 1655   3.818   1.981   1.620
    1TCM     h1 1656   4.041   1.925   1.556
    1TCM    cl3 1657   3.996   1.791   1.748
    1TCM     c1 1658   2.253   2.838   2.752
    1TCM    cl1 1659   2.309   2.670   2.735
    1TCM    cl2 1660   2.232   2.910   2.590
    1TCM     h1 1661   2.155   2.839   2.805
    1TCM    cl3 1662   2.372   2.932   2.843
    1TCM     c1 1663   4.482   2.897   0.787
    1TCM    cl1 1664   4.337   2.839   0.701
    1TCM    cl2 1665   4.568   3.014   0.685
    1TCM     h1 1666   4.451   2.945   0.882
    1TCM    cl3 1667   4.589   2.759   0.823
    1TCM     c1 1668   5.120   4.345   1.801
    1TCM    cl1 1669   4.952   4.387   1.839
    1TCM    cl2 1670   5.139   4.331   1.625
    1TCM     h1 1671   5.188   4.425   1.839
    1TCM    cl3 1672   5.161   4.190   1.878
    1TCM     c1 1673   3.246   1.715   3.802
    1TCM    cl1 1674   3.395   1.751   3.710
    1TCM    cl2 1675   3.259   1.785   3.965
    1TCM     h1 1676   3.159   1.759   3.749
    1TCM    cl3 1677   3.225   1.539   3.814
    1TCM     c1 1678   0.953   3.799   2.437
    1TCM    cl1 1679   1.001   3.636   2.491
    1TCM    cl2 1680   0.934   3.799   2.260
    1TCM     h1 1681   0.856   3.826   2.485
    1TCM    cl3 1682   1.077   3.916   2.484
    1TCM     c1 1683   3.055   4.171   2.282
    1TCM    cl1 1684   3.057   4.033   2.169
    1TCM    cl2 1685   3.060   4.111   2.449
    1TCM     h1 1686   3.143   4.235   2.263
    1TCM    cl3 1687   2.906   4.265   2.257
    1TCM     c1 1688   1.401   3.083   2.272
    1TCM    cl1 1689   1.367   2.943   2.168
    1TCM    cl2 1690   1.430   3.027   2.438
    1TCM     h1 1691   1.490   3.136   2.234
    1TCM    cl3 1692   1.261   3.193   2.270
    1TCM     c1 1693   4.605   0.168   5.177
    1TCM    cl1 1694   4.615   0.150   5.000
    1TCM    cl2 1695   4.750   0.099   5.252
    1TCM     h1 1696   4.598   0.276   5.202
    1TCM    cl3 1697   4.461   0.083   5.237
    1TCM     c1 1698   4.167   4.963   2.373
    1TCM    cl1 1699   4.190   5.120   2.293
    1TCM    cl2 1700   4.097   4.988   2.534
    1TCM     h1 1701   4.099   4.900   2.312
    1TCM    cl3 1702   4.324   4.881   2.389
    1TCM     c1 1703   1.369   5.054   3.077
    1TCM    cl1 1704   1.519   4.973   3.024
    1TCM    cl2 1705   1.399   5.139   3.231
    1TCM     h1 1706   1.338   5.128   3.000
    1TCM    cl3 1707   1.241   4.933   3.099
    1TCM     c1 1708   3.401   5.000   3.782
    1TCM    cl1 1709   3.225   5.025   3.794
    1TCM    cl2 1710   3.463   5.084   3.638
    1TCM     h1 1711   3.451   5.040   3.872
    1TCM    cl3 1712   3.434   4.826   3.768
    1TCM     c1 1713   3.631   2.185   4.871
    1TCM    cl1 1714   3.553   2.321   4.954
    1TCM    cl2 1715   3.790   2.154   4.945
    1TCM     h1 1716   3.568   2.095   4.880
    1TCM    cl3 1717   3.653   2.225   4.699
    1TCM     c1 1718   4.842   4.251   2.537
    1TCM    cl1 1719   4.946   4.356   2.437
    1TCM    cl2 1720   4.862   4.293   2.708
    1TCM     h1 1721   4.736   4.266   2.507
    1TCM    cl3 1722   4.888   4.081   2.511
    1TCM     c1 1723   4.982   3.138   2.465
    1TCM    cl1 1724   5.066   3.050   2.335
    1TCM    cl2 1725   5.065   3.108   2.620
    1TCM     h1 1726   4.984   3.247   2.443
    1TCM    cl3 1727   4.814   3.082   2.476
    1TCM     c1 1728   1.425   2.332   0.929
    1TCM    cl1 1729   1.278   2.355   0.830
    1TCM    cl2 1730   1.507   2.182   0.880
    1TCM     h1 1731   1.493   2.418   0.914
    1TCM    cl3 1732   1.379   2.321   1.100
    1TCM     c1 1733   1.119   1.978   4.051
    1TCM    cl1 1734   1.228   1.878   3.952
    1TCM    cl2 1735   1.178   1.982   4.219
    1TCM     h1 1736   1.115   2.081   4.011
    1TCM    cl3 1737   0.955   1.907   4.048
    1TCM     c1 1738   4.089   3.545   1.357
    1TCM    cl1 1739   4.181   3.403   1.411
    1TCM    cl2 1740   4.051   3.530   1.184
    1TCM     h1 1741   3.994   3.552   1.415
    1TCM    cl3 1742   4.185   3.692   1.384
    1TCM     c1 1743   0.244   5.165   2.135
    1TCM    cl1 1744   0.331   5.010   2.132
    1TCM    cl2 1745   0.338   5.287   2.046
    1TCM     h1 1746   0.144   5.153   2.087
    1TCM    cl3 1747   0.222   5.218   2.303
    1TCM     c1 1748   1.338   2.531   1.756
    1TCM    cl1 1749   1.366   2.706   1.745
    1TCM    cl2 1750   1.210   2.484   1.641
    1TCM     h1 1751   1.431   2.477   1.731
    1TCM    cl3 1752   1.288   2.488   1.921
    1TCM     c1 1753   0.918   2.355   4.158
    1TCM    cl1 1754   0.867   2.280   4.006
    1TCM    cl2 1755   0.942   2.229   4.282
    1TCM     h1 1756   1.013   2.410   4.143
    1TCM    cl3 1757   0.792   2.469   4.213
    1TCM     c1 1758   1.097   0.913   5.178
    1TCM    cl1 1759   1.214   0.893   5.046
    1TCM    cl2 1760   1.183   0.914   5.334
    1TCM     h1 1761   1.042   1.008   5.165
    1TCM    cl3 1762   0.981   0.778   5.175
    1TCM     c1 1763   3.671   2.976   1.032
    1TCM    cl1 1764   3.812   3.072   0.979
    1TCM    cl2 1765   3.717   2.805   1.043
    1TCM     h1 1766   3.637   3.012   1.131
    1TCM    cl3 1767   3.540   2.994   0.914
    1TCM     c1 1768   3.669   5.009   3.008
    1TCM    cl1 1769   3.501   5.051   2.968
    1TCM    cl2 1770   3.694   5.023   3.183
    1TCM     h1 1771   3.690   4.904   2.976
    1TCM    cl3 1772   3.780   5.119   2.923
    1TCM     c1 1773   4.635   3.184   5.173
    1TCM    cl1 1774   4.536   3.265   5.297
    1TCM    cl2 1775   4.707   3.306   5.065
    1TCM     h1 1776   4.715   3.126   5.222
    1TCM    cl3 1777   4.532   3.074   5.078
    1TCM     c1 1778   4.465   2.830   2.982
    1TCM    cl1 1779   4.374   2.979   3.017
    1TCM    cl2 1780   4.531   2.838   2.817
    1TCM     h1 1781   4.548   2.819   3.055
    1TCM    cl3 1782   4.356   2.690   2.995
    1TCM     c1 1783   2.267   4.522   3.629
    1TCM    cl1 1784   2.429   4.583   3.667
    1TCM    cl2 1785   2.158   4.554   3.766
    1TCM     h1 1786   2.228   4.572   3.539
    1TCM    cl3 1787   2.275   4.346   3.600
    1TCM     c1 1788   3.608   2.243   0.928
    1TCM    cl1 1789   3.543   2.259   0.763
    1TCM    cl2 1790   3.502   2.136   1.023
    1TCM     h1 1791   3.710   2.199   0.924
    1TCM    cl3 1792   3.616   2.403   1.005
    1TCM     c1 1793   2.408   2.084   2.778
    1TCM    cl1 1794   2.399   2.053   2.953
    1TCM    cl2 1795   2.579   2.091   2.728
    1TCM     h1 1796   2.356   2.003   2.723
    1TCM    cl3 1797   2.330   2.239   2.741
    1TCM     c1 1798   2.976   2.924   3.461
    1TCM    cl1 1799   3.017   3.022   3.603
    1TCM    cl2 1800   2.994   3.022   3.314
    1TCM     h1 1801   3.044   2.836   3.456
    1TCM    cl3 1802   2.808   2.868   3.474
    1TCM     c1 1803   5.029   1.931   1.667
    1TCM    cl1 1804   4.961   2.062   1.766
    1TCM    cl2 1805   5.050   1.989   1.500
    1TCM     h1 1806   5.127   1.900   1.708
    1TCM    cl3 1807   4.917   1.793   1.668
    1TCM     c1 1808   1.663   1.365   3.590
    1TCM    cl1 1809   1.655   1.542   3.570
    1TCM    cl2 1810   1.508   1.293   3.539
    1TCM     h1 1811   1.745   1.325   3.528
    1TCM    cl3 1812   1.693   1.326   3.761
    1TCM     c1 1813   3.422   4.185   2.227
    1TCM    cl1 1814   3.300   4.217   2.101
    1TCM    cl2 1815   3.376   4.040   2.318
    1TCM     h1 1816   3.521   4.169   2.180
    1TCM    cl3 1817   3.431   4.324   2.338
    1TCM     c1 1818   2.074   3.573   0.471
    1TCM    cl1 1819   1.963   3.473   0.567
    1TCM    cl2 1820   2.236   3.567   0.543
    1TCM     h1 1821   2.078   3.535   0.367
    1TCM    cl3 1822   2.016   3.741   0.470
    1TCM     c1 1823   4.648   2.154   3.246
    1TCM    cl1 1824   4.638   2.089   3.411
    1TCM    cl2 1825   4.519   2.274   3.222
    1TCM     h1 1826   4.747   2.203   3.232
    1TCM    cl3 1827   4.630   2.022   3.129
    1TCM     c1 1828   2.453   3.930   1.505
    1TCM    cl1 1829   2.327   3.844   1.413
    1TCM    cl2 1830   2.550   4.029   1.393
    1TCM     h1 1831   2.405   3.996   1.580
    1TCM    cl3 1832   2.558   3.813   1.587
    1TCM     c1 1833   1.028   4.927   4.689
    1TCM    cl1 1834   1.047   5.102   4.661
    1TCM    cl2 1835   0.926   4.858   4.562
    1TCM     h1 1836   1.128   4.879   4.687
    1TCM    cl3 1837   0.953   4.900   4.848
    1TCM     c1 1838   3.700   3.197   3.763
    1TCM    cl1 1839   3.784   3.046   3.805
    1TCM    cl2 1840   3.677   3.205   3.587
    1TCM     h1 1841   3.602   3.200   3.814
    1TCM    cl3 1842   3.798   3.336   3.816
    1TCM     c1 1843   3.772   3.877   1.267
    1TCM    cl1 1844   3.887   4.013   1.263
    1TCM    cl2 1845   3.658   3.901   1.401
    1TCM     h1 1846   3.717   3.873   1.171
    1TCM    cl3 1847   3.861   3.725   1.291
    1TCM     c1 1848   2.503   1.312   3.949
    1TCM    cl1 1849   2.665   1.365   3.998
    1TCM    cl2 1850   2.496   1.297   3.772
    1TCM     h1 1851   2.480   1.213   3.996
    1TCM    cl3 1852   2.382   1.431   4.003
    1TCM     c1 1853   2.154   3.677   4.869
    1TCM    cl1 1854   2.279   3.754   4.969
    1TCM    cl2 1855   2.045   3.582   4.973
    1TCM     h1 1856   2.095   3.754   4.815
    1TCM    cl3 1857   2.231   3.569   4.750
    1TCM     c1 1858   4.336   3.869   3.253
    1TCM    cl1 1859   4.371   4.042   3.273
    1TCM    cl2 1860   4.392   3.816   3.093
    1TCM     h1 1861   4.389   3.811   3.332
    1TCM    cl3 1862   4.161   3.841   3.267
    1TCM     c1 1863   3.082   1.579   4.980
    1TCM    cl1 1864   3.022   1.466   5.103
    1TCM    cl2 1865   3.258   1.596   4.997
    1TCM     h1 1866   3.059   1.538   4.879
    1TCM    cl3 1867   3.004   1.737   5.000
    1TCM     c1 1868   0.657   0.629   4.115
    1TCM    cl1 1869   0.558   0.661   3.970
    1TCM    cl2 1870   0.581   0.501   4.212
    1TCM     h1 1871   0.759   0.596   4.083
    1TCM    cl3 1872   0.671   0.777   4.212
    1TCM     c1 1873   3.523   0.920   1.987
    1TCM    cl1 1874   3.656   1.025   1.935
    1TCM    cl2 1875   3.368   0.990   1.934
    1TCM     h1 1876   3.535   0.819   1.942
    1TCM    cl3 1877   3.523   0.906   2.164
    1TCM     c1 1878   2.843   0.077   2.597
    1TCM    cl1 1879   2.878   0.019   2.432
    1TCM    cl2 1880   2.670   0.111   2.613
    1TCM     h1 1881   2.873  -0.000   2.671
    1TCM    cl3 1882   2.936   0.226   2.627
    1TCM     c1 1883   2.725   4.585   2.458
    1TCM    cl1 1884   2.616   4.587   2.599
    1TCM    cl2 1885   2.664   4.470   2.338
    1TCM     h1 1886   2.728   4.687   2.414
    1TCM    cl3 1887   2.888   4.538   2.510
    1TCM     c1 1888   0.887   0.958   2.143
    1TCM    cl1 1889   0.844   0.785   2.145
    1TCM    cl2 1890   1.061   0.975   2.176
    1TCM     h1 1891   0.864   1.001   2.044
    1TCM    cl3 1892   0.795   1.043   2.269
    1TCM     c1 1893   2.390   4.316   3.078
    1TCM    cl1 1894   2.422   4.491   3.079
    1TCM    cl2 1895   2.363   4.262   2.911
    1TCM     h1 1896   2.477   4.262   3.121
    1TCM    cl3 1897   2.245   4.282   3.176
    1TCM     c1 1898   4.256   1.858   4.787
    1TCM    cl1 1899   4.220   1.854   4.961
    1TCM    cl2 1900   4.119   1.790   4.696
    1TCM     h1 1901   4.273   1.963   4.755
    1TCM    cl3 1902   4.402   1.763   4.754
    1TCM     c1 1903   0.338   0.557   0.258
    1TCM    cl1 1904   0.422   0.698   0.191
    1TCM    cl2 1905   0.280   0.453   0.125
    1TCM     h1 1906   0.408   0.499   0.322
    1TCM    cl3 1907   0.200   0.611   0.356
    1TCM     c1 1908   3.975   3.879   5.229
    1TCM    cl1 1909   3.965   4.046   5.291
    1TCM    cl2 1910   4.146   3.838   5.199
    1TCM     h1 1911   3.933   3.809   5.304
    1TCM    cl3 1912   3.883   3.866   5.078
    1TCM     c1 1913   1.974   2.448   2.793
    1TCM    cl1 1914   1.911   2.306   2.878
    1TCM    cl2 1915   1.895   2.462   2.634
    1TCM     h1 1916   1.952   2.539   2.852
    1TCM    cl3 1917   2.150   2.432   2.771
    1TCM     c1 1918   2.093   4.098   1.595
    1TCM    cl1 1919   2.053   4.243   1.501
    1TCM    cl2 1920   2.250   4.121   1.675
    1TCM     h1 1921   2.015   4.080   1.671
    1TCM    cl3 1922   2.103   3.957   1.486
    1TCM     c1 1923   4.069   3.640   1.872
    1TCM    cl1 1924   4.176   3.747   1.777
    1TCM    cl2 1925   4.146   3.601   2.027
    1TCM     h1 1926   3.973   3.692   1.890
    1TCM    cl3 1927   4.039   3.491   1.781
    1TCM     c1 1928   2.627   4.754   0.679
    1TCM    cl1 1929   2.546   4.663   0.549
    1TCM    cl2 1930   2.722   4.886   0.609
    1TCM     h1 1931   2.550   4.796   0.748
    1TCM    cl3 1932   2.734   4.645   0.769
    1TCM     c1 1933   2.815   2.356   4.712
    1TCM    cl1 1934   2.800   2.387   4.537
    1TCM    cl2 1935   2.936   2.467   4.781
    1TCM     h1 1936   2.717   2.373   4.761
    1TCM    cl3 1937   2.866   2.188   4.739
    1TCM     c1 1938   1.542   3.342   2.676
    1TCM    cl1 1939   1.714   3.362   2.636
    1TCM    cl2 1940   1.467   3.502   2.698
    1TCM     h1 1941   1.491   3.288   2.593
    1TCM    cl3 1942   1.527   3.248   2.826
    1TCM     c1 1943   0.715   4.148   4.853
    1TCM    cl1 1944   0.855   4.080   4.766
    1TCM    cl2 1945   0.769   4.211   5.010
    1TCM     h1 1946   0.671   4.230   4.793
    1TCM    cl3 1947   0.594   4.020   4.878
    1TCM     c1 1948   0.181   2.514   1.810
    1TCM    cl1 1949   0.249   2.503   1.974
    1TCM    cl2 1950   0.227   2.669   1.736
    1TCM     h1 1951   0.220   2.430   1.748
    1TCM    cl3 1952   0.004   2.502   1.819
    1TCM     c1 1953   4.417   0.933   4.241
    1TCM    cl1 1954   4.360   1.101   4.233
    1TCM    cl2 1955   4.489   0.902   4.401
    1TCM     h1 1956   4.332   0.864   4.225
    1TCM    cl3 1957   4.540   0.906   4.115
    1TCM     c1 1958   3.967   1.126   0.464
    1TCM    cl1 1959   4.078   1.135   0.603
    1TCM    cl2 1960   4.042   1.030   0.334
    1TCM     h1 1961   3.872   1.079   0.495
    1TCM    cl3 1962   3.934   1.291   0.404
    1TCM     c1 1963   1.953   1.805   3.919
    1TCM    cl1 1964   1.957   1.851   4.091
    1TCM    cl2 1965   2.084   1.888   3.832
    1TCM     h1 1966   1.966   1.696   3.910
    1TCM    cl3 1967   1.796   1.853   3.849
    1TCM     c1 1968   0.257   1.928   2.071
    1TCM    cl1 1969   0.285   1.753   2.053
    1TCM    cl2 1970   0.203   1.962   2.236
    1TCM     h1 1971   0.351   1.983   2.050
    1TCM    cl3 1972   0.132   1.980   1.955
    1TCM     c1 1973   1.629   0.585   3.458
    1TCM    cl1 1974   1.627   0.463   3.329
    1TCM    cl2 1975   1.750   0.540   3.580
    1TCM     h1 1976   1.655   0.684   3.415
    1TCM    cl3 1977   1.469   0.594   3.534
    1TCM     c1 1978   2.284   4.235   1.182
    1TCM    cl1 1979   2.156   4.131   1.115
    1TCM    cl2 1980   2.285   4.391   1.095
    1TCM     h1 1981   2.264   4.253   1.289
    1TCM    cl3 1982   2.442   4.156   1.163
    1TCM     c1 1983   3.423   1.773   4.327
    1TCM    cl1 1984   3.455   1.933   4.400
    1TCM    cl2 1985   3.259   1.720   4.370
    1TCM     h1 1986   3.432   1.781   4.217
    1TCM    cl3 1987   3.542   1.656   4.389
    1TCM     c1 1988   2.257   3.721   4.213
    1TCM    cl1 1989   2.266   3.824   4.068
    1TCM    cl2 1990   2.183   3.814   4.346
    1TCM     h1 1991   2.194   3.632   4.192
    1TCM    cl3 1992   2.420   3.670   4.260
    1TCM     c1 1993   3.172   0.982   4.962
    1TCM    cl1 1994   3.293   1.039   4.844
    1TCM    cl2 1995   3.115   0.820   4.914
    1TCM     h1 1996   3.218   0.976   5.062
    1TCM    cl3 1997   3.035   1.095   4.965
    1TCM     c1 1998   3.106   2.802   2.430
    1TCM    cl1 1999   2.964   2.847   2.527
    1TCM    cl2 2000   3.098   2.883   2.273
    1TCM     h1 2001   3.198   2.832   2.484
    1TCM    cl3 2002   3.107   2.625   2.406
    1TCM     c1 2003   4.715   4.252   0.903
    1TCM    cl1 2004   4.797   4.103   0.954
    1TCM    cl2 2005   4.745   4.380   1.022
    1TCM     h1 2006   4.754   4.284   0.804
    1TCM    cl3 2007   4.540   4.222   0.890
    1TCM     c1 2008   2.149   2.909   4.524
    1TCM    cl1 2009   2.075   2.788   4.417
    1TCM    cl2 2010   2.133   2.856   4.693
    1TCM     h1 2011   2.256   2.921   4.499
    1TCM    cl3 2012   2.066   3.066   4.503
    1TCM     c1 2013   2.549   4.117   4.490
    1TCM    cl1 2014   2.439   4.049   4.611
    1TCM    cl2 2015   2.469   4.122   4.332
    1TCM     h1 2016   2.578   4.220   4.520
    1TCM    cl3 2017   2.695   4.016   4.479
    1TCM     c1 2018   4.393   5.143   2.676
    1TCM    cl1 2019   4.464   5.065   2.533
    1TCM    cl2 2020   4.505   5.267   2.737
    1TCM     h1 2021   4.297   5.190   2.649
    1TCM    cl3 2022   4.366   5.021   2.803
    1TCM     c1 2023   1.898   3.622   2.029
    1TCM    cl1 2024   1.806   3.711   1.906
    1TCM    cl2 2025   2.011   3.734   2.109
    1TCM     h1 2026   1.829   3.580   2.105
    1TCM    cl3 2027   1.989   3.490   1.952
    1TCM     c1 2028   3.513   0.786   0.951
    1TCM    cl1 2029   3.586   0.626   0.923
    1TCM    cl2 2030   3.598   0.867   1.085
    1TCM     h1 2031   3.522   0.848   0.859
    1TCM    cl3 2032   3.342   0.766   0.993
    1TCM     c1 2033   0.251   3.715   3.006
    1TCM    cl1 2034   0.117   3.803   2.929
    1TCM    cl2 2035   0.269   3.771   3.174
    1TCM     h1 2036   0.229   3.607   3.005
    1TCM    cl3 2037   0.402   3.747   2.917
    1TCM     c1 2038   2.874   2.736   4.924
    1TCM    cl1 2039   2.845   2.743   4.749
    1TCM    cl2 2040   3.049   2.741   4.956
    1TCM     h1 2041   2.825   2.822   4.974
    1TCM    cl3 2042   2.806   2.585   4.990
    1TCM     c1 2043   2.269   0.679   0.688
    1TCM    cl1 2044   2.258   0.766   0.843
    1TCM    cl2 2045   2.130   0.570   0.672
    1TCM     h1 2046   2.268   0.753   0.605
    1TCM    cl3 2047   2.420   0.585   0.682
    1TCM     c1 2048   2.990   0.325   2.270
    1TCM    cl1 2049   2.837   0.252   2.216
    1TCM    cl2 2050   3.080   0.208   2.369
    1TCM     h1 2051   3.051   0.354   2.182
    1TCM    cl3 2052   2.955   0.470   2.368
    1TCM     c1 2053   1.757   3.524   4.663
    1TCM    cl1 2054   1.637   3.572   4.786
    1TCM    cl2 2055   1.707   3.588   4.504
    1TCM     h1 2056   1.856   3.565   4.690
    1TCM    cl3 2057   1.766   3.347   4.655
    1TCM     c1 2058   0.822   2.806   0.750
    1TCM    cl1 2059   0.910   2.921   0.854
    1TCM    cl2 2060   0.883   2.821   0.583
    1TCM     h1 2061   0.839   2.703   0.786
    1TCM    cl3 2062   0.649   2.843   0.753
    1TCM     c1 2063   3.020   0.211   3.329
    1TCM    cl1 2064   3.014   0.203   3.151
    1TCM    cl2 2065   2.941   0.068   3.397
    1TCM     h1 2066   3.126   0.214   3.362
    1TCM    cl3 2067   2.937   0.357   3.384
    1TCM     c1 2068   2.124   3.014   1.141
    1TCM    cl1 2069   2.115   3.073   0.973
    1TCM    cl2 2070   1.962   3.022   1.215
    1TCM     h1 2071   2.159   2.909   1.141
    1TCM    cl3 2072   2.237   3.115   1.233
    1TCM     c1 2073   3.121   5.241   4.020
    1TCM    cl1 2074   3.148   5.206   4.192
    1TCM    cl2 2075   3.014   5.116   3.951
    1TCM     h1 2076   3.073   5.340   4.010
    1TCM    cl3 2077   3.276   5.240   3.934
    1TCM     c1 2078   2.979   3.310   0.117
    1TCM    cl1 2079   3.110   3.396   0.033
    1TCM    cl2 2080   3.049   3.199   0.237
    1TCM     h1 2081   2.914   3.384   0.169
    1TCM    cl3 2082   2.882   3.218  -0.000
    1TCM     c1 2083   0.199   0.450   4.246
    1TCM    cl1 2084   0.314   0.343   4.163
    1TCM    cl2 2085   0.283   0.534   4.379
    1TCM     h1 2086   0.160   0.525   4.174
    1TCM    cl3 2087   0.065   0.354   4.312
    1TCM     c1 2088   2.470   2.649   3.942
    1TCM    cl1 2089   2.362   2.767   4.020
    1TCM    cl2 2090   2.473   2.500   4.038
    1TCM     h1 2091   2.432   2.627   3.840
    1TCM    cl3 2092   2.634   2.717   3.932
    1TCM     c1 2093   0.684   1.474   0.173
    1TCM    cl1 2094   0.669   1.551   0.333
    1TCM    cl2 2095   0.522   1.453   0.102
    1TCM     h1 2096   0.745   1.539   0.107
    1TCM    cl3 2097   0.762   1.315   0.190
    1TCM     c1 2098   4.656   2.987   1.952
    1TCM    cl1 2099   4.820   2.976   2.019
    1TCM    cl2 2100   4.644   2.887   1.806
    1TCM     h1 2101   4.583   2.951   2.027
    1TCM    cl3 2102   4.619   3.157   1.911
    1TCM     c1 2103   3.114   3.260   0.626
    1TCM    cl1 2104   2.985   3.246   0.505
    1TCM    cl2 2105   3.260   3.327   0.550
    1TCM     h1 2106   3.080   3.326   0.708
    1TCM    cl3 2107   3.150   3.098   0.692
    1TCM     c1 2108   2.537   4.932   1.581
    1TCM    cl1 2109   2.596   4.786   1.498
    1TCM    cl2 2110   2.589   4.929   1.751
    1TCM     h1 2111   2.579   5.022   1.531
    1TCM    cl3 2112   2.360   4.937   1.573
    1TCM     c1 2113   2.741   4.037   4.889
    1TCM    cl1 2114   2.863   4.036   4.759
    1TCM    cl2 2115   2.823   4.027   5.047
    1TCM     h1 2116   2.682   4.131   4.884
    1TCM    cl3 2117   2.632   3.898   4.870
    1TCM     c1 2118   4.003   4.000   2.749
    1TCM    cl1 2119   3.952   4.168   2.780
    1TCM    cl2 2120   3.989   3.965   2.575
    1TCM     h1 2121   4.108   3.986   2.782
    1TCM    cl3 2122   3.898   3.889   2.840
    1TCM     c1 2123   2.328   1.556   2.549
    1TCM    cl1 2124   2.225   1.697   2.583
    1TCM    cl2 2125   2.417   1.583   2.397
    1TCM     h1 2126   2.401   1.543   2.632
    1TCM    cl3 2127   2.228   1.411   2.534
    1TCM     c1 2128   4.897   2.388   0.660
    1TCM    cl1 2129   4.813   2.517   0.749
    1TCM    cl2 2130   5.029   2.323   0.759
    1TCM     h1 2131   4.825   2.307   0.636
    1TCM    cl3 2132   4.964   2.454   0.509
    1TCM     c1 2133   4.219   0.587   3.233
    1TCM    cl1 2134   4.096   0.628   3.354
    1TCM    cl2 2135   4.380   0.624   3.297
    1TCM     h1 2136   4.213   0.479   3.209
    1TCM    cl3 2137   4.191   0.682   3.085
    1TCM     c1 2138   4.849   2.330   0.174
    1TCM    cl1 2139   4.770   2.214   0.065
    1TCM    cl2 2140   4.804   2.293   0.342
    1TCM     h1 2141   4.959   2.323   0.163
    1TCM    cl3 2142   4.796   2.495   0.134
    1TCM     c1 2143   3.374   1.239   1.149
    1TCM    cl1 2144   3.246   1.329   1.233
    1TCM    cl2 2145   3.374   1.283   0.977
    1TCM     h1 2146   3.472   1.264   1.194
    1TCM    cl3 2147   3.344   1.065   1.166
    1TCM     c1 2148   2.742   4.393   4.668
    1TCM    cl1 2149   2.829   4.284   4.777
    1TCM    cl2 2150   2.568   4.390   4.707
    1TCM     h1 2151   2.781   4.496   4.680
    1TCM    cl3 2152   2.765   4.340   4.500
    1TCM     c1 2153   1.610   5.239   0.686
    1TCM    cl1 2154   1.649   5.111   0.569
    1TCM    cl2 2155   1.478   5.340   0.623
    1TCM     h1 2156   1.579   5.194   0.782
    1TCM    cl3 2157   1.754   5.340   0.713
    1TCM     c1 2158   1.418   3.293   4.493
    1TCM    cl1 2159   1.317   3.370   4.369
    1TCM    cl2 2160   1.357   3.336   4.655
    1TCM     h1 2161   1.416   3.183   4.481
    1TCM    cl3 2162   1.586   3.351   4.477
    1TCM     c1 2163   1.187   2.347   2.391
    1TCM    cl1 2164   1.364   2.336   2.373
    1TCM    cl2 2165   1.123   2.189   2.442
    1TCM     h1 2166   1.163   2.424   2.467
    1TCM    cl3 2167   1.114   2.393   2.235
    1TCM     c1 2168   1.379   1.271   0.668
    1TCM    cl1 2169   1.312   1.435   0.661
    1TCM    cl2 2170   1.350   1.201   0.828
    1TCM     h1 2171   1.330   1.208   0.590
    1TCM    cl3 2172   1.554   1.276   0.637
    1TCM     c1 2173   0.356   5.213   3.207
    1TCM    cl1 2174   0.231   5.340   3.208
    1TCM    cl2 2175   0.287   5.063   3.143
    1TCM     h1 2176   0.441   5.246   3.143
    1TCM    cl3 2177   0.415   5.186   3.373
    1TCM     c1 2178   2.808   3.979   0.336
    1TCM    cl1 2179   2.724   4.117   0.261
    1TCM    cl2 2180   2.942   3.926   0.232
    1TCM     h1 2181   2.848   4.010   0.435
    1TCM    cl3 2182   2.694   3.845   0.359
    1TCM     c1 2183   5.110   1.853   0.938
    1TCM    cl1 2184   5.200   1.932   1.070
    1TCM    cl2 2185   5.167   1.916   0.781
    1TCM     h1 2186   5.127   1.744   0.942
    1TCM    cl3 2187   4.937   1.888   0.956
    1TCM     c1 2188   3.214   4.741   4.114
    1TCM    cl1 2189   3.140   4.902   4.098
    1TCM    cl2 2190   3.300   4.701   3.964
    1TCM     h1 2191   3.285   4.741   4.199
    1TCM    cl3 2192   3.086   4.620   4.143
    1TCM     c1 2193   0.484   3.276   3.412
    1TCM    cl1 2194   0.521   3.410   3.523
    1TCM    cl2 2195   0.614   3.262   3.292
    1TCM     h1 2196   0.476   3.182   3.470
    1TCM    cl3 2197   0.330   3.308   3.329
    1TCM     c1 2198   2.888   0.432   1.871
    1TCM    cl1 2199   3.051   0.366   1.901
    1TCM    cl2 2200   2.840   0.536   2.007
    1TCM     h1 2201   2.889   0.491   1.777
    1TCM    cl3 2202   2.772   0.298   1.855
    1TCM     c1 2203   4.832   5.014   4.356
    1TCM    cl1 2204   4.717   4.895   4.293
    1TCM    cl2 2205   4.807   5.170   4.274
    1TCM     h1 2206   4.817   5.027   4.465
    1TCM    cl3 2207   4.999   4.958   4.326
    1TCM     c1 2208   4.057   1.003   2.026
    1TCM    cl1 2209   4.131   1.007   2.187
    1TCM    cl2 2210   3.956   0.857   2.011
    1TCM     h1 2211   3.994   1.093   2.012
    1TCM    cl3 2212   4.184   1.000   1.902
    1TCM     c1 2213   2.340   4.777   2.467
    1TCM    cl1 2214   2.265   4.790   2.306
    1TCM    cl2 2215   2.241   4.672   2.571
    1TCM     h1 2216   2.442   4.734   2.457
    1TCM    cl3 2217   2.352   4.939   2.540
    1TCM     c1 2218   2.256   2.647   0.905
    1TCM    cl1 2219   2.416   2.611   0.973
    1TCM    cl2 2220   2.233   2.554   0.755
    1TCM     h1 2221   2.177   2.618   0.978
    1TCM    cl3 2222   2.243   2.821   0.870
    1TCM     c1 2223   2.174   4.747   0.386
    1TCM    cl1 2224   2.318   4.677   0.461
    1TCM    cl2 2225   2.028   4.670   0.453
    1TCM     h1 2226   2.170   4.856   0.406
    1TCM    cl3 2227   2.179   4.720   0.210
    1TCM     c1 2228   3.656   1.184   2.293
    1TCM    cl1 2229   3.533   1.188   2.421
    1TCM    cl2 2230   3.577   1.165   2.135
    1TCM     h1 2231   3.713   1.280   2.295
    1TCM    cl3 2232   3.767   1.048   2.321
    1TCM     c1 2233   3.739   4.013   0.855
    1TCM    cl1 2234   3.795   4.062   1.017
    1TCM    cl2 2235   3.635   4.141   0.788
    1TCM     h1 2236   3.826   3.998   0.789
    1TCM    cl3 2237   3.647   3.862   0.868
    1TCM     c1 2238   1.673   4.338   2.126
    1TCM    cl1 2239   1.750   4.206   2.037
    1TCM    cl2 2240   1.693   4.312   2.301
    1TCM     h1 2241   1.719   4.435   2.097
    1TCM    cl3 2242   1.499   4.342   2.086
    1TCM     c1 2243   5.013   2.787   3.089
    1TCM    cl1 2244   4.987   2.643   2.987
    1TCM    cl2 2245   5.034   2.737   3.258
    1TCM     h1 2246   5.104   2.841   3.054
    1TCM    cl3 2247   4.872   2.895   3.075
    1TCM     c1 2248   1.643   1.180   2.263
    1TCM    cl1 2249   1.642   1.254   2.101
    1TCM    cl2 2250   1.539   1.274   2.372
    1TCM     h1 2251   1.605   1.076   2.256
    1TCM    cl3 2252   1.809   1.178   2.326
    1TCM     c1 2253   0.123   0.519   1.500
    1TCM    cl1 2254   0.278   0.463   1.566
    1TCM    cl2 2255   0.091   0.437   1.345
    1TCM     h1 2256   0.041   0.496   1.571
    1TCM    cl3 2257   0.129   0.695   1.472
    1TCM     c1 2258   0.994   4.479   0.304
    1TCM    cl1 2259   1.002   4.516   0.130
    1TCM    cl2 2260   1.069   4.321   0.334
    1TCM     h1 2261   1.049   4.558   0.361
    1TCM    cl3 2262   0.824   4.475   0.356
    1TCM     c1 2263   3.179   2.718   0.943
    1TCM    cl1 2264   3.349   2.729   0.892
    1TCM    cl2 2265   3.158   2.801   1.099
    1TCM     h1 2266   3.114   2.765   0.867
    1TCM    cl3 2267   3.134   2.547   0.961
    1TCM     c1 2268   0.633   2.031   2.547
    1TCM    cl1 2269   0.481   2.029   2.454
    1TCM    cl2 2270   0.633   1.895   2.662
    1TCM     h1 2271   0.719   2.021   2.478
    1TCM    cl3 2272   0.646   2.184   2.637
    1TCM     c1 2273   2.631   0.768   4.984
    1TCM    cl1 2274   2.731   0.886   5.072
    1TCM    cl2 2275   2.519   0.854   4.875
    1TCM     h1 2276   2.696   0.701   4.925
    1TCM    cl3 2277   2.537   0.672   5.101
    1TCM     c1 2278   0.387   4.380   4.228
    1TCM    cl1 2279   0.497   4.256   4.163
    1TCM    cl2 2280   0.437   4.422   4.394
    1TCM     h1 2281   0.392   4.470   4.164
    1TCM    cl3 2282   0.221   4.317   4.230
    1TCM     c1 2283   5.145   4.050   1.564
    1TCM    cl1 2284   5.177   3.885   1.619
    1TCM    cl2 2285   5.109   4.049   1.390
    1TCM     h1 2286   5.058   4.091   1.619
    1TCM    cl3 2287   5.287   4.152   1.594
    1TCM     c1 2288   2.580   2.263   0.454
    1TCM    cl1 2289   2.506   2.394   0.361
    1TCM    cl2 2290   2.527   2.273   0.624
    1TCM     h1 2291   2.549   2.165   0.412
    1TCM    cl3 2292   2.757   2.277   0.446
    1TCM     c1 2293   5.192   5.049   3.606
    1TCM    cl1 2294   5.201   5.102   3.436
    1TCM    cl2 2295   5.317   5.134   3.700
    1TCM     h1 2296   5.092   5.074   3.647
    1TCM    cl3 2297   5.218   4.874   3.616
    1TCM     c1 2298   3.359   2.552   2.220
    1TCM    cl1 2299   3.524   2.605   2.181
    1TCM    cl2 2300   3.259   2.693   2.260
    1TCM     h1 2301   3.316   2.499   2.133
    1TCM    cl3 2302   3.364   2.441   2.360
    1TCM     c1 2303   4.045   1.202   5.184
    1TCM    cl1 2304   4.090   1.353   5.267
    1TCM    cl2 2305   4.163   1.075   5.225
    1TCM     h1 2306   3.944   1.171   5.218
    1TCM    cl3 2307   4.044   1.228   5.009
    1TCM     c1 2308   1.193   2.159   4.446
    1TCM    cl1 2309   1.318   2.169   4.572
    1TCM    cl2 2310   1.135   1.991   4.435
    1TCM     h1 2311   1.108   2.226   4.473
    1TCM    cl3 2312   1.261   2.209   4.290
    1TCM     c1 2313   0.429   0.287   2.121
    1TCM    cl1 2314   0.430   0.203   1.964
    1TCM    cl2 2315   0.533   0.199   2.236
    1TCM     h1 2316   0.467   0.390   2.108
    1TCM    cl3 2317   0.263   0.293   2.184
    1TCM     c1 2318   3.818   0.432   1.089
    1TCM    cl1 2319   3.931   0.556   1.147
    1TCM    cl2 2320   3.653   0.496   1.091
    1TCM     h1 2321   3.846   0.402   0.986
    1TCM    cl3 2322   3.828   0.289   1.195
    1TCM     c1 2323   3.176   2.269   3.644
    1TCM    cl1 2324   3.318   2.362   3.591
    1TCM    cl2 2325   3.154   2.289   3.819
    1TCM     h1 2326   3.086   2.305   3.591
    1TCM    cl3 2327   3.201   2.096   3.608
    1TCM     c1 2328   3.737   2.903   3.545
    1TCM    cl1 2329   3.876   3.007   3.506
    1TCM    cl2 2330   3.795   2.740   3.586
    1TCM     h1 2331   3.682   2.946   3.631
    1TCM    cl3 2332   3.629   2.894   3.404
    1TCM     c1 2333   3.234   4.434   1.771
    1TCM    cl1 2334   3.185   4.600   1.810
    1TCM    cl2 2335   3.231   4.411   1.595
    1TCM     h1 2336   3.337   4.416   1.809
    1TCM    cl3 2337   3.122   4.319   1.848
    1TCM     c1 2338   0.516   1.328   4.230
    1TCM    cl1 2339   0.431   1.172   4.232
    1TCM    cl2 2340   0.509   1.398   4.066
    1TCM     h1 2341   0.467   1.398   4.302
    1TCM    cl3 2342   0.686   1.304   4.277
    1TCM     c1 2343   0.364   1.859   1.574
    1TCM    cl1 2344   0.534   1.826   1.610
    1TCM    cl2 2345   0.278   1.706   1.547
    1TCM     h1 2346   0.317   1.913   1.658
    1TCM    cl3 2347   0.353   1.959   1.427
    1TCM     c1 2348   0.077   2.904   1.383
    1TCM    cl1 2349   0.196   2.852   1.261
    1TCM    cl2 2350   0.001   3.056   1.330
    1TCM     h1 2351  -0.000   2.826   1.395
    1TCM    cl3 2352   0.160   2.931   1.538
    1TCM     c1 2353   0.796   3.690   0.063
    1TCM    cl1 2354   0.750   3.530  -0.000
    1TCM    cl2 2355   0.683   3.813   0.003
    1TCM     h1 2356   0.793   3.688   0.174
    1TCM    cl3 2357   0.961   3.730   0.009
    1TCM     c1 2358   3.534   1.310   1.481
    1TCM    cl1 2359   3.513   1.157   1.394
    1TCM    cl2 2360   3.676   1.299   1.587
    1TCM     h1 2361   3.548   1.393   1.408
    1TCM    cl3 2362   3.389   1.343   1.580
    1TCM     c1 2363   3.552   1.713   4.775
    1TCM    cl1 2364   3.377   1.681   4.779
    1TCM    cl2 2365   3.624   1.665   4.930
    1TCM     h1 2366   3.598   1.655   4.693
    1TCM    cl3 2367   3.580   1.887   4.749
    1TCM     c1 2368   0.723   3.958   4.300
    1TCM    cl1 2369   0.567   4.042   4.305
    1TCM    cl2 2370   0.848   4.068   4.236
    1TCM     h1 2371   0.751   3.925   4.402
    1TCM    cl3 2372   0.711   3.815   4.194
    1TCM     c1 2373   3.624   3.219   5.181
    1TCM    cl1 2374   3.587   3.131   5.031
    1TCM    cl2 2375   3.513   3.166   5.310
    1TCM     h1 2376   3.729   3.197   5.212
    1TCM    cl3 2377   3.605   3.393   5.154
    1TCM     c1 2378   0.986   2.719   1.519
    1TCM    cl1 2379   0.924   2.569   1.590
    1TCM    cl2 2380   1.162   2.707   1.500
    1TCM     h1 2381   0.939   2.735   1.419
    1TCM    cl3 2382   0.947   2.856   1.625
    1TCM     c1 2383   4.400   5.075   5.199
    1TCM    cl1 2384   4.280   5.096   5.328
    1TCM    cl2 2385   4.561   5.120   5.261
    1TCM     h1 2386   4.401   4.970   5.166
    1TCM    cl3 2387   4.358   5.181   5.062
    1TCM     c1 2388   4.406   1.113   0.307
    1TCM    cl1 2389   4.249   1.120   0.224
    1TCM    cl2 2390   4.383   1.052   0.472
    1TCM     h1 2391   4.475   1.046   0.252
    1TCM    cl3 2392   4.477   1.277   0.314
    1TCM     c1 2393   3.085   0.848   3.487
    1TCM    cl1 2394   3.043   0.826   3.316
    1TCM    cl2 2395   3.192   0.989   3.504
    1TCM     h1 2396   2.993   0.864   3.546
    1TCM    cl3 2397   3.169   0.703   3.546
    1TCM     c1 2398   4.364   1.448   4.875
    1TCM    cl1 2399   4.492   1.555   4.814
    1TCM    cl2 2400   4.372   1.291   4.791
    1TCM     h1 2401   4.377   1.433   4.984
    1TCM    cl3 2402   4.205   1.523   4.845
    1TCM     c1 2403   4.768   2.155   3.825
    1TCM    cl1 2404   4.673   2.005   3.824
    1TCM    cl2 2405   4.685   2.279   3.729
    1TCM     h1 2406   4.779   2.191   3.930
    1TCM    cl3 2407   4.929   2.123   3.755
    1TCM     c1 2408   0.106   4.935   3.854
    1TCM    cl1 2409   0.000   4.895   3.717
    1TCM    cl2 2410   0.262   4.853   3.834
    1TCM     h1 2411   0.122   5.045   3.857
    1TCM    cl3 2412   0.030   4.883   4.006
    1TCM     c1 2413   3.381   0.743   3.823
    1TCM    cl1 2414   3.224   0.683   3.763
    1TCM    cl2 2415   3.511   0.690   3.714
    1TCM     h1 2416   3.378   0.853   3.828
    1TCM    cl3 2417   3.410   0.677   3.986
    1TCM     c1 2418   3.873   3.793   1.615
    1TCM    cl1 2419   3.963   3.850   1.473
    1TCM    cl2 2420   3.918   3.890   1.757
    1TCM     h1 2421   3.764   3.804   1.596
    1TCM    cl3 2422   3.911   3.622   1.645
    1TCM     c1 2423   0.539   0.175   1.383
    1TCM    cl1 2424   0.636   0.045   1.456
    1TCM    cl2 2425   0.395   0.105   1.305
    1TCM     h1 2426   0.507   0.246   1.462
    1TCM    cl3 2427   0.637   0.261   1.262
    1TCM     c1 2428   2.162   3.968   3.692
    1TCM    cl1 2429   2.293   3.941   3.810
    1TCM    cl2 2430   2.209   3.898   3.535
    1TCM     h1 2431   2.069   3.920   3.728
    1TCM    cl3 2432   2.135   4.143   3.673
    1TCM     c1 2433   4.520   3.947   1.345
    1TCM    cl1 2434   4.549   3.927   1.520
    1TCM    cl2 2435   4.649   4.048   1.275
    1TCM     h1 2436   4.519   3.848   1.296
    1TCM    cl3 2437   4.363   4.027   1.320
    1TCM     c1 2438   3.164   4.360   4.628
    1TCM    cl1 2439   3.135   4.320   4.799
    1TCM    cl2 2440   3.178   4.209   4.534
    1TCM     h1 2441   3.079   4.419   4.589
    1TCM    cl3 2442   3.314   4.454   4.613
    1TCM     c1 2443   2.075   1.870   4.791
    1TCM    cl1 2444   1.937   1.977   4.827
    1TCM    cl2 2445   2.047   1.788   4.636
    1TCM     h1 2446   2.168   1.931   4.785
    1TCM    cl3 2447   2.092   1.750   4.921
    1TCM     c1 2448   1.546   3.524   2.036
    1TCM    cl1 2449   1.649   3.554   1.894
    1TCM    cl2 2450   1.568   3.657   2.153
    1TCM     h1 2451   1.440   3.519   2.005
    1TCM    cl3 2452   1.594   3.371   2.112
    1TCM     c1 2453   1.826   0.111   1.525
    1TCM    cl1 2454   1.899   0.107   1.687
    1TCM    cl2 2455   1.946   0.170   1.408
    1TCM     h1 2456   1.793   0.009   1.496
    1TCM    cl3 2457   1.686   0.221   1.526
    1TCM     c1 2458   4.163   4.351   3.800
    1TCM    cl1 2459   4.096   4.413   3.648
    1TCM    cl2 2460   4.078   4.425   3.937
    1TCM     h1 2461   4.151   4.241   3.804
    1TCM    cl3 2462   4.336   4.391   3.809
    1TCM     c1 2463   0.660   1.030   3.746
    1TCM    cl1 2464   0.621   1.032   3.572
    1TCM    cl2 2465   0.576   0.892   3.823
    1TCM     h1 2466   0.769   1.019   3.759
    1TCM    cl3 2467   0.605   1.181   3.821
    1TCM     c1 2468   1.687   4.459   0.707
    1TCM    cl1 2469   1.814   4.582   0.684
    1TCM    cl2 2470   1.575   4.512   0.834
    1TCM     h1 2471   1.631   4.445   0.612
    1TCM    cl3 2472   1.762   4.305   0.754
    1TCM     c1 2473   3.244   0.386   0.128
    1TCM    cl1 2474   3.111   0.319   0.225
    1TCM    cl2 2475   3.285   0.273  -0.002
    1TCM     h1 2476   3.212   0.483   0.084
    1TCM    cl3 2477   3.386   0.412   0.232
    1TCM     c1 2478   3.775   0.928   3.279
    1TCM    cl1 2479   3.762   0.956   3.104
    1TCM    cl2 2480   3.947   0.921   3.325
    1TCM     h1 2481   3.725   1.011   3.333
    1TCM    cl3 2482   3.697   0.774   3.320
    1TCM     c1 2483   0.146   4.592   4.012
    1TCM    cl1 2484   0.285   4.511   3.937
    1TCM    cl2 2485   0.203   4.705   4.137
    1TCM     h1 2486   0.090   4.648   3.935
    1TCM    cl3 2487   0.040   4.470   4.087
    1TCM     c1 2488   4.441   1.700   5.245
    1TCM    cl1 2489   4.571   1.691   5.124
    1TCM    cl2 2490   4.284   1.702   5.162
    1TCM     h1 2491   4.447   1.612   5.312
    1TCM    cl3 2492   4.459   1.849   5.341
    1TCM     c1 2493   0.509   0.657   2.782
    1TCM    cl1 2494   0.657   0.603   2.699
    1TCM    cl2 2495   0.368   0.578   2.708
    1TCM     h1 2496   0.515   0.630   2.889
    1TCM    cl3 2497   0.493   0.833   2.766
    1TCM     c1 2498   0.536   1.859   2.195
    1TCM    cl1 2499   0.639   1.746   2.286
    1TCM    cl2 2500   0.537   1.814   2.023
    1TCM     h1 2501   0.433   1.854   2.234
    1TCM    cl3 2502   0.599   2.024   2.214
    1TCM     c1 2503   3.603   2.214   1.639
    1TCM    cl1 2504   3.512   2.223   1.487
    1TCM    cl2 2505   3.561   2.062   1.724
    1TCM     h1 2506   3.712   2.215   1.618
    1TCM    cl3 2507   3.561   2.352   1.742
    1TCM     c1 2508   2.714   0.907   4.423
    1TCM    cl1 2509   2.602   0.965   4.298
    1TCM    cl2 2510   2.632   0.788   4.527
    1TCM     h1 2511   2.802   0.860   4.375
    1TCM    cl3 2512   2.768   1.044   4.523
    1TCM     c1 2513   4.628   2.546   4.914
    1TCM    cl1 2514   4.615   2.675   5.035
    1TCM    cl2 2515   4.520   2.411   4.958
    1TCM     h1 2516   4.599   2.585   4.814
    1TCM    cl3 2517   4.796   2.487   4.907
    1TCM     c1 2518   3.819   0.756   2.848
    1TCM    cl1 2519   3.712   0.761   2.706
    1TCM    cl2 2520   3.887   0.917   2.877
    1TCM     h1 2521   3.761   0.723   2.937
    1TCM    cl3 2522   3.951   0.640   2.819
    1TCM     c1 2523   3.341   2.264   3.301
    1TCM    cl1 2524   3.358   2.091   3.264
    1TCM    cl2 2525   3.317   2.355   3.150
    1TCM     h1 2526   3.254   2.279   3.368
    1TCM    cl3 2527   3.488   2.322   3.382
    1TCM     c1 2528   3.822   1.606   1.543
    1TCM    cl1 2529   3.892   1.735   1.443
    1TCM    cl2 2530   3.799   1.665   1.709
    1TCM     h1 2531   3.724   1.575   1.501
    1TCM    cl3 2532   3.932   1.466   1.545
    1TCM     c1 2533   0.415   3.442   1.600
    1TCM    cl1 2534   0.255   3.402   1.666
    1TCM    cl2 2535   0.449   3.336   1.461
    1TCM     h1 2536   0.415   3.548   1.567
    1TCM    cl3 2537   0.539   3.418   1.725
    1TCM     c1 2538   2.476   3.685   4.599
    1TCM    cl1 2539   2.441   3.652   4.770
    1TCM    cl2 2540   2.392   3.834   4.549
    1TCM     h1 2541   2.585   3.698   4.585
    1TCM    cl3 2542   2.419   3.549   4.500
    1TCM     c1 2543   2.086   1.456   1.938
    1TCM    cl1 2544   2.116   1.609   2.023
    1TCM    cl2 2545   2.108   1.481   1.763
    1TCM     h1 2546   2.158   1.380   1.973
    1TCM    cl3 2547   1.920   1.402   1.970
    1TCM     c1 2548   4.486   2.479   0.309
    1TCM    cl1 2549   4.626   2.582   0.347
    1TCM    cl2 2550   4.515   2.315   0.371
    1TCM     h1 2551   4.395   2.521   0.356
    1TCM    cl3 2552   4.464   2.473   0.132
    1TCM     c1 2553   3.099   4.612   3.611
    1TCM    cl1 2554   2.938   4.583   3.541
    1TCM    cl2 2555   3.206   4.476   3.570
    1TCM     h1 2556   3.141   4.706   3.570
    1TCM    cl3 2557   3.085   4.625   3.788
    1TCM     c1 2558   4.991   3.893   5.232
    1TCM    cl1 2559   4.864   3.797   5.311
    1TCM    cl2 2560   4.986   4.060   5.292
    1TCM     h1 2561   5.090   3.849   5.254
    1TCM    cl3 2562   4.964   3.893   5.056
    1TCM     c1 2563   1.171   2.671   3.336
    1TCM    cl1 2564   1.048   2.579   3.426
    1TCM    cl2 2565   1.145   2.651   3.161
    1TCM     h1 2566   1.162   2.779   3.363
    1TCM    cl3 2567   1.333   2.612   3.379
    1TCM     c1 2568   2.499   2.829   1.332
    1TCM    cl1 2569   2.365   2.879   1.227
    1TCM    cl2 2570   2.522   2.654   1.320
    1TCM     h1 2571   2.592   2.881   1.301
    1TCM    cl3 2572   2.461   2.872   1.501
    1TCM     c1 2573   0.134   3.562   3.581
    1TCM    cl1 2574   0.245   3.559   3.442
    1TCM    cl2 2575   0.000   3.449   3.552
    1TCM     h1 2576   0.189   3.531   3.672
    1TCM    cl3 2577   0.070   3.726   3.603
    1TCM     c1 2578   2.480   4.837   3.314
    1TCM    cl1 2579   2.638   4.842   3.396
    1TCM    cl2 2580   2.350   4.828   3.434
    1TCM     h1 2581   2.468   4.929   3.253
    1TCM    cl3 2582   2.473   4.694   3.208
    1TCM     c1 2583   4.998   2.731   4.194
    1TCM    cl1 2584   5.168   2.782   4.202
    1TCM    cl2 2585   4.894   2.874   4.186
    1TCM     h1 2586   4.983   2.668   4.104
    1TCM    cl3 2587   4.958   2.637   4.340
    1TCM     c1 2588   2.579   2.258   3.559
    1TCM    cl1 2589   2.450   2.140   3.526
    1TCM    cl2 2590   2.639   2.324   3.404
    1TCM     h1 2591   2.538   2.341   3.620
    1TCM    cl3 2592   2.712   2.179   3.645
    1TCM     c1 2593   2.026   0.873   3.960
    1TCM    cl1 2594   2.080   0.828   4.123
    1TCM    cl2 2595   1.939   1.028   3.966
    1TCM     h1 2596   2.114   0.882   3.893
    1TCM    cl3 2597   1.918   0.747   3.896
    1TCM     c1 2598   0.917   0.386   0.877
    1TCM    cl1 2599   0.866   0.539   0.951
    1TCM    cl2 2600   0.927   0.406   0.700
    1TCM     h1 2601   1.016   0.356   0.916
    1TCM    cl3 2602   0.798   0.259   0.915
    1TCM     c1 2603   4.155   1.430   3.662
    1TCM    cl1 2604   4.051   1.573   3.676
    1TCM    cl2 2605   4.190   1.366   3.824
    1TCM     h1 2606   4.103   1.352   3.602
    1TCM    cl3 2607   4.307   1.475   3.582
    1TCM     c1 2608   3.251   4.969   3.362
    1TCM    cl1 2609   3.417   5.001   3.418
    1TCM    cl2 2610   3.151   4.913   3.498
    1TCM     h1 2611   3.207   5.062   3.320
    1TCM    cl3 2612   3.254   4.843   3.236
    1TCM     c1 2613   2.221   2.537   3.124
    1TCM    cl1 2614   2.162   2.429   2.995
    1TCM    cl2 2615   2.109   2.674   3.142
    1TCM     h1 2616   2.226   2.481   3.219
    1TCM    cl3 2617   2.382   2.598   3.082
    1TCM     c1 2618   1.479   0.718   5.275
    1TCM    cl1 2619   1.522   0.879   5.336
    1TCM    cl2 2620   1.474   0.721   5.097
    1TCM     h1 2621   1.555   0.644   5.309
    1TCM    cl3 2622   1.320   0.671   5.339
    1TCM     c1 2623   2.308   4.359   4.331
    1TCM    cl1 2624   2.188   4.480   4.280
    1TCM    cl2 2625   2.265   4.296   4.492
    1TCM     h1 2626   2.309   4.275   4.258
    1TCM    cl3 2627   2.469   4.434   4.338
    1TCM     c1 2628   0.775   3.743   5.076
    1TCM    cl1 2629   0.749   3.879   4.965
    1TCM    cl2 2630   0.617   3.677   5.127
    1TCM     h1 2631   0.833   3.663   5.025
    1TCM    cl3 2632   0.864   3.799   5.219
    1TCM     c1 2633   5.091   3.054   1.875
    1TCM    cl1 2634   5.075   3.197   1.771
    1TCM    cl2 2635   5.085   3.105   2.046
    1TCM     h1 2636   5.008   2.984   1.855
    1TCM    cl3 2637   5.247   2.975   1.843
    1TCM     c1 2638   3.349   1.214   3.621
    1TCM    cl1 2639   3.404   1.356   3.714
    1TCM    cl2 2640   3.391   1.235   3.450
    1TCM     h1 2641   3.398   1.123   3.660
    1TCM    cl3 2642   3.172   1.198   3.637
    1TCM     c1 2643   0.082   1.324   1.833
    1TCM    cl1 2644   0.252   1.275   1.854
    1TCM    cl2 2645   0.000   1.321   1.991
    1TCM     h1 2646   0.078   1.427   1.792
    1TCM    cl3 2647   0.000   1.212   1.722
    1TCM     c1 2648   1.532   0.099   1.315
    1TCM    cl1 2649   1.390   0.025   1.237
    1TCM    cl2 2650   1.678   0.058   1.223
    1TCM     h1 2651   1.520   0.209   1.318
    1TCM    cl3 2652   1.548   0.036   1.481
    1TCM     c1 2653   2.755   2.944   3.899
    1TCM    cl1 2654   2.832   2.815   3.995
    1TCM    cl2 2655   2.873   3.073   3.869
    1TCM     h1 2656   2.721   2.902   3.802
    1TCM    cl3 2657   2.616   3.009   3.987
    1TCM     c1 2658   5.141   3.302   1.242
    1TCM    cl1 2659   5.188   3.441   1.143
    1TCM    cl2 2660   5.016   3.351   1.358
    1TCM     h1 2661   5.102   3.221   1.177
    1TCM    cl3 2662   5.284   3.241   1.330
    1TCM     c1 2663   1.887   0.289   0.193
    1TCM    cl1 2664   1.755   0.170   0.203
    1TCM    cl2 2665   2.013   0.229   0.082
    1TCM     h1 2666   1.847   0.385   0.155
    1TCM    cl3 2667   1.958   0.313   0.355
    1TCM     c1 2668   1.079   1.987   3.039
    1TCM    cl1 2669   1.087   1.820   2.979
    1TCM    cl2 2670   1.234   2.031   3.114
    1TCM     h1 2671   1.058   2.056   2.955
    1TCM    cl3 2672   0.949   2.001   3.160
    1TCM     c1 2673   2.671   3.862   2.496
    1TCM    cl1 2674   2.822   3.818   2.412
    1TCM    cl2 2675   2.704   3.992   2.612
    1TCM     h1 2676   2.596   3.896   2.422
    1TCM    cl3 2677   2.608   3.719   2.582
    1TCM     c1 2678   1.515   0.641   2.918
    1TCM    cl1 2679   1.397   0.764   2.867
    1TCM    cl2 2680   1.509   0.624   3.095
    1TCM     h1 2681   1.491   0.544   2.871
    1TCM    cl3 2682   1.678   0.692   2.869
    1TCM     c1 2683   5.127   5.027   2.859
    1TCM    cl1 2684   5.056   4.865   2.842
    1TCM    cl2 2685   5.177   5.052   3.028
    1TCM     h1 2686   5.215   5.036   2.793
    1TCM    cl3 2687   5.006   5.150   2.815
    1TCM     c1 2688   2.600   3.886   3.216
    1TCM    cl1 2689   2.482   3.964   3.325
    1TCM    cl2 2690   2.624   3.989   3.072
    1TCM     h1 2691   2.697   3.874   3.269
    1TCM    cl3 2692   2.538   3.727   3.165
    1TCM     c1 2693   5.124   4.994   0.224
    1TCM    cl1 2694   4.947   4.982   0.235
    1TCM    cl2 2695   5.176   4.957   0.058
    1TCM     h1 2696   5.156   5.097   0.251
    1TCM    cl3 2697   5.198   4.878   0.337
    1TCM     c1 2698   1.540   4.067   5.169
    1TCM    cl1 2699   1.390   4.053   5.075
    1TCM    cl2 2700   1.630   3.914   5.161
    1TCM     h1 2701   1.602   4.149   5.128
    1TCM    cl3 2702   1.500   4.103   5.339
    1TCM     c1 2703   0.446   2.057   3.474
    1TCM    cl1 2704   0.353   2.166   3.369
    1TCM    cl2 2705   0.380   1.893   3.463
    1TCM     h1 2706   0.552   2.056   3.441
    1TCM    cl3 2707   0.437   2.114   3.642
    1TCM     c1 2708   4.655   0.449   4.871
    1TCM    cl1 2709   4.678   0.450   5.048
    1TCM    cl2 2710   4.667   0.615   4.809
    1TCM     h1 2711   4.734   0.386   4.824
    1TCM    cl3 2712   4.495   0.383   4.832
    1TCM     c1 2713   4.348   2.426   2.466
    1TCM    cl1 2714   4.266   2.286   2.539
    1TCM    cl2 2715   4.479   2.480   2.573
    1TCM     h1 2716   4.390   2.397   2.368
    1TCM    cl3 2717   4.231   2.558   2.444
    1TCM     c1 2718   3.488   4.732   1.647
    1TCM    cl1 2719   3.522   4.578   1.730
    1TCM    cl2 2720   3.526   4.715   1.474
    1TCM     h1 2721   3.381   4.758   1.659
    1TCM    cl3 2722   3.589   4.861   1.718
    1TCM     c1 2723   5.217   5.191   0.764
    1TCM    cl1 2724   5.274   5.342   0.839
    1TCM    cl2 2725   5.040   5.197   0.747
    1TCM     h1 2726   5.263   5.180   0.664
    1TCM    cl3 2727   5.263   5.053   0.866
    1TCM     c1 2728   3.973   5.148   0.260
    1TCM    cl1 2729   4.017   5.089   0.421
    1TCM    cl2 2730   4.121   5.187   0.169
    1TCM     h1 2731   3.915   5.070   0.206
    1TCM    cl3 2732   3.873   5.295   0.276
    1TCM     c1 2733   0.684   5.245   2.408
    1TCM    cl1 2734   0.576   5.340   2.513
    1TCM    cl2 2735   0.644   5.278   2.238
    1TCM     h1 2736   0.789   5.274   2.428
    1TCM    cl3 2737   0.662   5.072   2.441
    1TCM     c1 2738   2.881   5.159   4.396
    1TCM    cl1 2739   2.806   5.257   4.268
    1TCM    cl2 2740   2.989   5.038   4.322
    1TCM     h1 2741   2.940   5.225   4.463
    1TCM    cl3 2742   2.754   5.076   4.489
    1TCM     c1 2743   4.418   4.188   1.836
    1TCM    cl1 2744   4.280   4.158   1.727
    1TCM    cl2 2745   4.359   4.207   2.002
    1TCM     h1 2746   4.488   4.102   1.831
    1TCM    cl3 2747   4.503   4.336   1.785
    1TCM     c1 2748   3.250   3.711   4.876
    1TCM    cl1 2749   3.353   3.717   5.020
    1TCM    cl2 2750   3.344   3.650   4.738
    1TCM     h1 2751   3.164   3.642   4.895
    1TCM    cl3 2752   3.188   3.873   4.838
    1TCM     c1 2753   2.772   0.539   4.347
    1TCM    cl1 2754   2.671   0.544   4.493
    1TCM    cl2 2755   2.707   0.419   4.234
    1TCM     h1 2756   2.772   0.639   4.299
    1TCM    cl3 2757   2.938   0.495   4.391
    1TCM     c1 2758   3.344   3.352   1.816
    1TCM    cl1 2759   3.487   3.437   1.752
    1TCM    cl2 2760   3.327   3.387   1.990
    1TCM     h1 2761   3.253   3.387   1.763
    1TCM    cl3 2762   3.363   3.177   1.793
    1TCM     c1 2763   0.171   3.089   3.520
    1TCM    cl1 2764   0.253   2.990   3.397
    1TCM    cl2 2765   0.253   3.068   3.677
    1TCM     h1 2766   0.176   3.196   3.490
    1TCM    cl3 2767   0.002   3.038   3.534
    1TCM     c1 2768   1.510   3.841   3.104
    1TCM    cl1 2769   1.600   3.869   3.254
    1TCM    cl2 2770   1.514   3.988   3.003
    1TCM     h1 2771   1.556   3.757   3.048
    1TCM    cl3 2772   1.341   3.801   3.143
    1TCM     c1 2773   2.834   4.211   1.761
    1TCM    cl1 2774   2.692   4.104   1.748
    1TCM    cl2 2775   2.888   4.217   1.930
    1TCM     h1 2776   2.915   4.171   1.697
    1TCM    cl3 2777   2.790   4.374   1.706
    1TCM     c1 2778   5.142   1.663   2.951
    1TCM    cl1 2779   5.088   1.659   2.782
    1TCM    cl2 2780   5.318   1.689   2.956
    1TCM     h1 2781   5.091   1.745   3.005
    1TCM    cl3 2782   5.102   1.508   3.029
    1TCM     c1 2783   4.463   3.396   2.909
    1TCM    cl1 2784   4.288   3.419   2.885
    1TCM    cl2 2785   4.491   3.320   3.068
    1TCM     h1 2786   4.503   3.331   2.829
    1TCM    cl3 2787   4.544   3.554   2.905
    1TCM     c1 2788   2.703   4.906   2.650
    1TCM    cl1 2789   2.825   4.777   2.640
    1TCM    cl2 2790   2.723   4.995   2.803
    1TCM     h1 2791   2.716   4.976   2.565
    1TCM    cl3 2792   2.540   4.834   2.645
    1TCM     c1 2793   3.013   3.261   2.507
    1TCM    cl1 2794   3.028   3.104   2.589
    1TCM    cl2 2795   3.153   3.287   2.401
    1TCM     h1 2796   2.920   3.262   2.446
    1TCM    cl3 2797   3.005   3.391   2.628
    1TCM     c1 2798   1.916   3.510   4.155
    1TCM    cl1 2799   1.901   3.655   4.052
    1TCM    cl2 2800   1.941   3.559   4.324
    1TCM     h1 2801   1.823   3.450   4.148
    1TCM    cl3 2802   2.054   3.412   4.100
    1TCM     c1 2803   4.948   1.885   0.570
    1TCM    cl1 2804   4.885   1.804   0.424
    1TCM    cl2 2805   4.870   1.816   0.714
    1TCM     h1 2806   5.058   1.869   0.576
    1TCM    cl3 2807   4.913   2.059   0.561
    1TCM     c1 2808   2.074   3.103   2.059
    1TCM    cl1 2809   2.208   3.146   2.168
    1TCM    cl2 2810   2.141   3.042   1.906
    1TCM     h1 2811   2.012   3.024   2.106
    1TCM    cl3 2812   1.974   3.246   2.028
    1TCM     c1 2813   1.991   0.950   4.968
    1TCM    cl1 2814   2.040   1.117   4.934
    1TCM    cl2 2815   2.111   0.838   4.899
    1TCM     h1 2816   1.986   0.934   5.078
    1TCM    cl3 2817   1.832   0.919   4.896
    1TCM     c1 2818   0.323   5.096   4.006
    1TCM    cl1 2819   0.446   5.164   4.116
    1TCM    cl2 2820   0.352   5.155   3.841
    1TCM     h1 2821   0.329   4.985   4.008
    1TCM    cl3 2822   0.161   5.147   4.060
    1TCM     c1 2823   1.659   4.496   1.729
    1TCM    cl1 2824   1.650   4.630   1.613
    1TCM    cl2 2825   1.826   4.479   1.787
    1TCM     h1 2826   1.592   4.516   1.814
    1TCM    cl3 2827   1.610   4.345   1.648
    1TCM     c1 2828   4.915   1.012   4.251
    1TCM    cl1 2829   4.842   0.887   4.355
    1TCM    cl2 2830   4.855   0.993   4.085
    1TCM     h1 2831   4.887   1.112   4.289
    1TCM    cl3 2832   5.092   0.995   4.253
    1TCM     c1 2833   2.341   3.246   0.242
    1TCM    cl1 2834   2.408   3.330   0.099
    1TCM    cl2 2835   2.301   3.366   0.367
    1TCM     h1 2836   2.249   3.191   0.213
    1TCM    cl3 2837   2.461   3.132   0.305
    1TCM     c1 2838   2.619   4.408   1.410
    1TCM    cl1 2839   2.535   4.557   1.459
    1TCM    cl2 2840   2.592   4.378   1.237
    1TCM     h1 2841   2.728   4.419   1.429
    1TCM    cl3 2842   2.557   4.271   1.504
    1TCM     c1 2843   1.598   0.895   4.005
    1TCM    cl1 2844   1.707   0.822   4.124
    1TCM    cl2 2845   1.612   1.072   4.012
    1TCM     h1 2846   1.626   0.859   3.903
    1TCM    cl3 2847   1.431   0.847   4.041
    1TCM     c1 2848   1.590   1.130   2.828
    1TCM    cl1 2849   1.662   1.082   2.673
    1TCM    cl2 2850   1.610   0.998   2.946
    1TCM     h1 2851   1.640   1.221   2.866
    1TCM    cl3 2852   1.416   1.162   2.805
    1TCM     c1 2853   1.990   3.194   3.480
    1TCM    cl1 2854   1.961   3.172   3.305
    1TCM    cl2 2855   2.033   3.364   3.512
    1TCM     h1 2856   1.898   3.168   3.536
    1TCM    cl3 2857   2.123   3.089   3.531
    1TCM     c1 2858   3.877   4.298   3.000
    1TCM    cl1 2859   3.780   4.387   3.120
    1TCM    cl2 2860   3.879   4.388   2.847
    1TCM     h1 2861   3.981   4.286   3.038
    1TCM    cl3 2862   3.805   4.137   2.974
    1TCM     c1 2863   2.745   5.203   0.552
    1TCM    cl1 2864   2.847   5.304   0.446
    1TCM    cl2 2865   2.585   5.278   0.567
    1TCM     h1 2866   2.735   5.102   0.507
    1TCM    cl3 2867   2.821   5.190   0.712
    1TCM     c1 2868   1.650   3.808   4.112
    1TCM    cl1 2869   1.772   3.937   4.104
    1TCM    cl2 2870   1.698   3.689   4.236
    1TCM     h1 2871   1.552   3.852   4.139
    1TCM    cl3 2872   1.639   3.727   3.954
    1TCM     c1 2873   2.362   2.326   1.278
    1TCM    cl1 2874   2.373   2.424   1.425
    1TCM    cl2 2875   2.209   2.361   1.194
    1TCM     h1 2876   2.447   2.350   1.211
    1TCM    cl3 2877   2.368   2.153   1.320
    1TCM     c1 2878   3.056   0.135   3.810
    1TCM    cl1 2879   3.214   0.073   3.864
    1TCM    cl2 2880   2.977   0.221   3.944
    1TCM     h1 2881   3.071   0.205   3.725
    1TCM    cl3 2882   2.953   0.000   3.758
    1TCM     c1 2883   2.103   1.250   2.243
    1TCM    cl1 2884   2.039   1.396   2.164
    1TCM    cl2 2885   2.095   1.270   2.420
    1TCM     h1 2886   2.043   1.162   2.213
    1TCM    cl3 2887   2.273   1.226   2.195
    1TCM     c1 2888   2.318   2.821   0.280
    1TCM    cl1 2889   2.300   2.837   0.456
    1TCM    cl2 2890   2.255   2.663   0.228
    1TCM     h1 2891   2.261   2.902   0.229
    1TCM    cl3 2892   2.490   2.833   0.237
    1TCM     c1 2893   3.601   2.512   4.370
    1TCM    cl1 2894   3.684   2.664   4.412
    1TCM    cl2 2895   3.720   2.393   4.313
    1TCM     h1 2896   3.549   2.473   4.460
    1TCM    cl3 2897   3.482   2.543   4.242
    1TCM     c1 2898   0.785   0.446   1.994
    1TCM    cl1 2899   0.647   0.401   1.891
    1TCM    cl2 2900   0.748   0.406   2.164
    1TCM     h1 2901   0.875   0.389   1.962
    1TCM    cl3 2902   0.816   0.620   1.980
    1TCM     c1 2903   0.075   2.867   3.915
    1TCM    cl1 2904   0.121   3.038   3.916
    1TCM    cl2 2905   0.015   2.821   4.077
    1TCM     h1 2906  -0.006   2.850   3.841
    1TCM    cl3 2907   0.216   2.767   3.874
    1TCM     c1 2908   4.293   4.861   0.798
    1TCM    cl1 2909   4.324   4.861   0.973
    1TCM    cl2 2910   4.330   5.022   0.732
    1TCM     h1 2911   4.357   4.785   0.749
    1TCM    cl3 2912   4.122   4.823   0.768
    1TCM     c1 2913   0.266   4.329   1.079
    1TCM    cl1 2914   0.279   4.156   1.041
    1TCM    cl2 2915   0.106   4.389   1.030
    1TCM     h1 2916   0.279   4.344   1.189
    1TCM    cl3 2917   0.392   4.419   0.992
    1TCM     c1 2918   2.170   2.378   3.782
    1TCM    cl1 2919   2.227   2.460   3.635
    1TCM    cl2 2920   2.296   2.387   3.907
    1TCM     h1 2921   2.078   2.428   3.819
    1TCM    cl3 2922   2.134   2.208   3.745
    1TCM     c1 2923   0.601   4.072   1.325
    1TCM    cl1 2924   0.536   4.128   1.169
    1TCM    cl2 2925   0.577   4.198   1.449
    1TCM     h1 2926   0.548   3.979   1.356
    1TCM    cl3 2927   0.774   4.038   1.308
    1TCM     c1 2928   1.573   3.846   0.440
    1TCM    cl1 2929   1.558   3.696   0.345
    1TCM    cl2 2930   1.739   3.861   0.501
    1TCM     h1 2931   1.550   3.933   0.375
    1TCM    cl3 2932   1.460   3.842   0.577
    1TCM     c1 2933   3.191   2.134   2.531
    1TCM    cl1 2934   3.350   2.070   2.484
    1TCM    cl2 2935   3.152   2.276   2.431
    1TCM     h1 2936   3.114   2.055   2.515
    1TCM    cl3 2937   3.193   2.181   2.702
    1TCM     c1 2938   1.913   2.738   2.534
    1TCM    cl1 2939   1.955   2.704   2.703
    1TCM    cl2 2940   1.737   2.717   2.511
    1TCM     h1 2941   1.940   2.843   2.509
    1TCM    cl3 2942   2.000   2.627   2.426
    1TCM     c1 2943   3.413   5.128   2.098
    1TCM    cl1 2944   3.347   5.246   1.982
    1TCM    cl2 2945   3.278   5.043   2.178
    1TCM     h1 2946   3.476   5.055   2.045
    1TCM    cl3 2947   3.510   5.213   2.220
    1TCM     c1 2948   1.041   2.540   4.452
    1TCM    cl1 2949   1.125   2.684   4.513
    1TCM    cl2 2950   1.136   2.467   4.321
    1TCM     h1 2951   1.029   2.467   4.535
    1TCM    cl3 2952   0.881   2.586   4.391
    1TCM     c1 2953   4.591   3.908   4.941
    1TCM    cl1 2954   4.670   3.776   5.030
    1TCM    cl2 2955   4.647   3.909   4.773
    1TCM     h1 2956   4.481   3.894   4.943
    1TCM    cl3 2957   4.632   4.063   5.018
    1TCM     c1 2958   4.918   1.881   4.163
    1TCM    cl1 2959   5.085   1.822   4.185
    1TCM    cl2 2960   4.868   1.856   3.995
    1TCM     h1 2961   4.850   1.825   4.231
    1TCM    cl3 2962   4.911   2.054   4.202
    1TCM     c1 2963   4.088   2.320   2.911
    1TCM    cl1 2964   4.017   2.158   2.931
    1TCM    cl2 2965   3.957   2.441   2.903
    1TCM     h1 2966   4.153   2.343   2.997
    1TCM    cl3 2967   4.183   2.326   2.761
    1TCM     c1 2968   1.467   2.830   5.168
    1TCM    cl1 2969   1.450   2.999   5.220
    1TCM    cl2 2970   1.311   2.747   5.184
    1TCM     h1 2971   1.500   2.827   5.062
    1TCM    cl3 2972   1.588   2.749   5.269
    1TCM     c1 2973   3.661   2.145   3.135
    1TCM    cl1 2974   3.493   2.202   3.123
    1TCM    cl2 2975   3.725   2.181   3.297
    1TCM     h1 2976   3.664   2.036   3.117
    1TCM    cl3 2977   3.761   2.228   3.013
    1TCM     c1 2978   2.823   4.964   0.966
    1TCM    cl1 2979   2.797   5.140   0.977
    1TCM    cl2 2980   2.666   4.883   0.944
    1TCM     h1 2981   2.888   4.942   0.879
    1TCM    cl3 2982   2.900   4.906   1.115
    1TCM     c1 2983   1.660   3.846   0.895
    1TCM    cl1 2984   1.823   3.795   0.944
    1TCM    cl2 2985   1.625   3.784   0.732
    1TCM     h1 2986   1.585   3.805   0.966
    1TCM    cl3 2987   1.650   4.023   0.895
    1TCM     c1 2988   5.070   3.221   5.123
    1TCM    cl1 2989   5.002   3.344   5.233
    1TCM    cl2 2990   4.955   3.087   5.106
    1TCM     h1 2991   5.089   3.267   5.024
    1TCM    cl3 2992   5.223   3.160   5.190
    1TCM     c1 2993   2.926   5.042   3.114
    1TCM    cl1 2994   3.090   5.109   3.136
    1TCM    cl2 2995   2.897   5.013   2.941
    1TCM     h1 2996   2.918   4.946   3.169
    1TCM    cl3 2997   2.806   5.157   3.176
    1TCM     c1 2998   4.816   3.850   3.642
    1TCM    cl1 2999   4.705   3.838   3.781
    1TCM    cl2 3000   4.723   3.883   3.494
    1TCM     h1 3001   4.888   3.933   3.660
    1TCM    cl3 3002   4.905   3.697   3.623
    1TCM     c1 3003   1.693   0.866   3.164
    1TCM    cl1 3004   1.844   0.811   3.241
    1TCM    cl2 3005   1.696   1.043   3.150
    1TCM     h1 3006   1.685   0.821   3.063
    1TCM    cl3 3007   1.554   0.816   3.263
    1TCM     c1 3008   3.315   2.735   4.563
    1TCM    cl1 3009   3.296   2.911   4.551
    1TCM    cl2 3010   3.300   2.662   4.401
    1TCM     h1 3011   3.415   2.711   4.605
    1TCM    cl3 3012   3.190   2.668   4.669
    1TCM     c1 3013   2.413   4.183   0.608
    1TCM    cl1 3014   2.260   4.142   0.527
    1TCM    cl2 3015   2.440   4.072   0.744
    1TCM     h1 3016   2.497   4.175   0.536
    1TCM    cl3 3017   2.404   4.350   0.669
    1TCM     c1 3018   3.239   1.593   0.302
    1TCM    cl1 3019   3.354   1.687   0.205
    1TCM    cl2 3020   3.156   1.475   0.198
    1TCM     h1 3021   3.294   1.539   0.382
    1TCM    cl3 3022   3.119   1.703   0.375
    1TCM     c1 3023   2.398   1.819   4.129
    1TCM    cl1 3024   2.425   1.777   4.300
    1TCM    cl2 3025   2.228   1.867   4.106
    1TCM     h1 3026   2.464   1.903   4.101
    1TCM    cl3 3027   2.435   1.678   4.027
    1TCM     c1 3028   1.243   1.003   2.695
    1TCM    cl1 3029   1.413   0.989   2.644
    1TCM    cl2 3030   1.168   1.143   2.613
    1TCM     h1 3031   1.188   0.911   2.668
    1TCM    cl3 3032   1.236   1.028   2.871
    1TCM     c1 3033   2.828   4.399   5.137
    1TCM    cl1 3034   2.861   4.288   5.272
    1TCM    cl2 3035   2.659   4.379   5.084
    1TCM     h1 3036   2.844   4.504   5.170
    1TCM    cl3 3037   2.937   4.362   5.002
    1TCM     c1 3038   2.241   4.480   1.654
    1TCM    cl1 3039   2.324   4.599   1.757
    1TCM    cl2 3040   2.275   4.516   1.483
    1TCM     h1 3041   2.277   4.378   1.679
    1TCM    cl3 3042   2.066   4.489   1.682
    1TCM     c1 3043   0.981   2.530   5.121
    1TCM    cl1 3044   0.824   2.501   5.200
    1TCM    cl2 3045   1.010   2.404   4.999
    1TCM     h1 3046   0.979   2.630   5.072
    1TCM    cl3 3047   1.110   2.527   5.243
    1TCM     c1 3048   1.648   1.138   1.777
    1TCM    cl1 3049   1.642   1.315   1.762
    1TCM    cl2 3050   1.508   1.067   1.694
    1TCM     h1 3051   1.741   1.100   1.731
    1TCM    cl3 3052   1.644   1.093   1.949
    1TCM     c1 3053   0.533   3.630   3.667
    1TCM    cl1 3054   0.374   3.708   3.675
    1TCM    cl2 3055   0.586   3.619   3.498
    1TCM     h1 3056   0.607   3.689   3.725
    1TCM    cl3 3057   0.522   3.466   3.736
    1TCM     c1 3058   0.338   0.116   3.754
    1TCM    cl1 3059   0.358   0.290   3.783
    1TCM    cl2 3060   0.446   0.065   3.622
    1TCM     h1 3061   0.363   0.060   3.846
    1TCM    cl3 3062   0.169   0.083   3.708
    1TCM     c1 3063   4.261   5.197   3.312
    1TCM    cl1 3064   4.406   5.227   3.409
    1TCM    cl2 3065   4.288   5.056   3.207
    1TCM     h1 3066   4.174   5.177   3.378
    1TCM    cl3 3067   4.226   5.339   3.211
    1TCM     c1 3068   3.253   4.026   1.564
    1TCM    cl1 3069   3.375   4.155   1.582
    1TCM    cl2 3070   3.297   3.888   1.667
    1TCM     h1 3071   3.154   4.065   1.594
    1TCM    cl3 3072   3.247   3.973   1.394
    1TCM     c1 3073   4.681   4.331   3.840
    1TCM    cl1 3074   4.620   4.475   3.925
    1TCM    cl2 3075   4.778   4.233   3.952
    1TCM     h1 3076   4.595   4.271   3.803
    1TCM    cl3 3077   4.782   4.382   3.703
    1TCM     c1 3078   0.952   3.678   0.401
    1TCM    cl1 3079   1.013   3.580   0.536
    1TCM    cl2 3080   0.976   3.589   0.249
    1TCM     h1 3081   0.844   3.698   0.415
    1TCM    cl3 3082   1.041   3.832   0.394
    1TCM     c1 3083   5.130   2.333   5.098
    1TCM    cl1 3084   5.061   2.265   5.247
    1TCM    cl2 3085   5.307   2.342   5.113
    1TCM     h1 3086   5.104   2.268   5.012
    1TCM    cl3 3087   5.064   2.496   5.071
    1TCM     c1 3088   1.020   5.027   2.517
    1TCM    cl1 3089   0.962   5.119   2.658
    1TCM    cl2 3090   1.017   5.130   2.373
    1TCM     h1 3091   1.124   4.992   2.536
    1TCM    cl3 3092   0.914   4.886   2.491
    1TCM     c1 3093   1.032   1.246   4.219
    1TCM    cl1 3094   0.930   1.337   4.332
    1TCM    cl2 3095   1.000   1.300   4.052
    1TCM     h1 3096   1.139   1.263   4.244
    1TCM    cl3 3097   0.995   1.072   4.233
    1TCM     c1 3098   3.913   2.700   4.212
    1TCM    cl1 3099   3.792   2.627   4.104
    1TCM    cl2 3100   3.910   2.618   4.370
    1TCM     h1 3101   4.014   2.690   4.167
    1TCM    cl3 3102   3.876   2.873   4.235
    1TCM     c1 3103   2.321   3.525   5.205
    1TCM    cl1 3104   2.456   3.426   5.145
    1TCM    cl2 3105   2.171   3.474   5.124
    1TCM     h1 3106   2.310   3.511   5.315
    1TCM    cl3 3107   2.352   3.696   5.170
    1TCM     c1 3108   1.292   0.571   1.007
    1TCM    cl1 3109   1.293   0.498   0.845
    1TCM    cl2 3110   1.256   0.745   0.993
    1TCM     h1 3111   1.215   0.522   1.069
    1TCM    cl3 3112   1.452   0.550   1.082
    1TCM     c1 3113   0.407   3.675   0.570
    1TCM    cl1 3114   0.470   3.678   0.404
    1TCM    cl2 3115   0.406   3.508   0.631
    1TCM     h1 3116   0.471   3.738   0.636
    1TCM    cl3 3117   0.241   3.739   0.572
    1TCM     c1 3118   3.205   1.588   3.502
    1TCM    cl1 3119   3.294   1.739   3.471
    1TCM    cl2 3120   3.199   1.491   3.353
    1TCM     h1 3121   3.256   1.531   3.582
    1TCM    cl3 3122   3.039   1.627   3.553
    1TCM     c1 3123   2.742   4.681   0.299
    1TCM    cl1 3124   2.716   4.852   0.256
    1TCM    cl2 3125   2.822   4.598   0.164
    1TCM     h1 3126   2.805   4.675   0.390
    1TCM    cl3 3127   2.585   4.604   0.331
    1TCM     c1 3128   3.669   3.469   3.342
    1TCM    cl1 3129   3.803   3.352   3.350
    1TCM    cl2 3130   3.734   3.635   3.353
    1TCM     h1 3131   3.614   3.457   3.247
    1TCM    cl3 3132   3.557   3.441   3.478
    1TCM     c1 3133   2.996   3.954   0.913
    1TCM    cl1 3134   2.894   4.084   0.847
    1TCM    cl2 3135   2.892   3.824   0.975
    1TCM     h1 3136   3.061   3.913   0.832
    1TCM    cl3 3137   3.096   4.017   1.044
    1TCM     c1 3138   4.495   4.338   1.187
    1TCM    cl1 3139   4.483   4.466   1.065
    1TCM    cl2 3140   4.634   4.234   1.151
    1TCM     h1 3141   4.508   4.384   1.288
    1TCM    cl3 3142   4.346   4.240   1.185
    1TCM     c1 3143   4.532   3.099   0.263
    1TCM    cl1 3144   4.370   3.143   0.320
    1TCM    cl2 3145   4.623   3.023   0.396
    1TCM     h1 3146   4.523   3.027   0.179
    1TCM    cl3 3147   4.618   3.244   0.208
    1TCM     c1 3148   2.925   1.036   2.211
    1TCM    cl1 3149   2.906   0.859   2.213
    1TCM    cl2 3150   2.793   1.109   2.118
    1TCM     h1 3151   2.923   1.074   2.315
    1TCM    cl3 3152   3.081   1.077   2.136
    1TCM     c1 3153   3.448   4.593   2.980
    1TCM    cl1 3154   3.399   4.731   2.880
    1TCM    cl2 3155   3.405   4.623   3.149
    1TCM     h1 3156   3.397   4.501   2.944
    1TCM    cl3 3157   3.625   4.571   2.967
    1TCM     c1 3158   3.708   3.558   3.970
    1TCM    cl1 3159   3.818   3.651   4.074
    1TCM    cl2 3160   3.707   3.388   4.022
    1TCM     h1 3161   3.605   3.599   3.978
    1TCM    cl3 3162   3.763   3.568   3.801
    1TCM     c1 3163   4.168   0.315   0.218
    1TCM    cl1 3164   4.317   0.303   0.315
    1TCM    cl2 3165   4.198   0.248   0.056
    1TCM     h1 3166   4.088   0.257   0.268
    1TCM    cl3 3167   4.120   0.485   0.204
    1TCM     c1 3168   3.243   3.151   3.467
    1TCM    cl1 3169   3.347   3.205   3.601
    1TCM    cl2 3170   3.323   3.189   3.312
    1TCM     h1 3171   3.227   3.042   3.475
    1TCM    cl3 3172   3.087   3.236   3.475
    1TCM     c1 3173   0.603   2.723   1.870
    1TCM    cl1 3174   0.746   2.645   1.799
    1TCM    cl2 3175   0.484   2.599   1.917
    1TCM     h1 3176   0.633   2.781   1.960
    1TCM    cl3 3177   0.530   2.833   1.751
    1TCM     c1 3178   5.190   4.298   3.023
    1TCM    cl1 3179   5.200   4.457   2.944
    1TCM    cl2 3180   5.242   4.312   3.193
    1TCM     h1 3181   5.086   4.261   3.019
    1TCM    cl3 3182   5.297   4.183   2.938
    1TCM     c1 3183   2.289   3.498   1.525
    1TCM    cl1 3184   2.373   3.471   1.371
    1TCM    cl2 3185   2.388   3.435   1.658
    1TCM     h1 3186   2.272   3.607   1.540
    1TCM    cl3 3187   2.132   3.414   1.523
    1TCM     c1 3188   5.070   1.384   2.443
    1TCM    cl1 3189   5.182   1.492   2.356
    1TCM    cl2 3190   5.129   1.216   2.432
    1TCM     h1 3191   5.065   1.414   2.549
    1TCM    cl3 3192   4.909   1.394   2.369
    1TCM     c1 3193   4.190   3.121   3.999
    1TCM    cl1 3194   4.034   3.062   4.059
    1TCM    cl2 3195   4.313   2.994   4.019
    1TCM     h1 3196   4.182   3.147   3.891
    1TCM    cl3 3197   4.239   3.265   4.091
    1TCM     c1 3198   1.604   3.557   3.468
    1TCM    cl1 3199   1.693   3.646   3.343
    1TCM    cl2 3200   1.612   3.382   3.434
    1TCM     h1 3201   1.649   3.577   3.568
    1TCM    cl3 3202   1.434   3.609   3.469
    1TCM     c1 3203   2.572   3.269   2.641
    1TCM    cl1 3204   2.439   3.206   2.741
    1TCM    cl2 3205   2.728   3.222   2.712
    1TCM     h1 3206   2.564   3.227   2.538
    1TCM    cl3 3207   2.561   3.446   2.633
    1TCM     c1 3208   1.895   2.908   0.176
    1TCM    cl1 3209   1.864   2.770   0.285
    1TCM    cl2 3210   1.916   2.848   0.010
    1TCM     h1 3211   1.809   2.977   0.179
    1TCM    cl3 3212   2.043   2.992   0.227
    1TCM     c1 3213   4.820   0.837   2.892
    1TCM    cl1 3214   4.773   0.672   2.940
    1TCM    cl2 3215   4.720   0.889   2.754
    1TCM     h1 3216   4.804   0.905   2.977
    1TCM    cl3 3217   4.991   0.839   2.845
    1TCM     c1 3218   4.870   2.043   1.258
    1TCM    cl1 3219   4.759   2.065   1.120
    1TCM    cl2 3220   4.839   2.169   1.379
    1TCM     h1 3221   4.853   1.943   1.303
    1TCM    cl3 3222   5.037   2.056   1.201
    1TCM     c1 3223   3.172   4.071   0.490
    1TCM    cl1 3224   3.298   4.135   0.599
    1TCM    cl2 3225   3.187   4.148   0.331
    1TCM     h1 3226   3.186   3.961   0.480
    1TCM    cl3 3227   3.012   4.105   0.558
    1TCM     c1 3228   2.666   4.105   3.661
    1TCM    cl1 3229   2.799   4.185   3.747
    1TCM    cl2 3230   2.711   4.083   3.490
    1TCM     h1 3231   2.646   4.006   3.707
    1TCM    cl3 3232   2.520   4.206   3.671
    1TCM     c1 3233   2.098   4.499   2.201
    1TCM    cl1 3234   2.273   4.530   2.201
    1TCM    cl2 3235   2.036   4.507   2.367
    1TCM     h1 3236   2.047   4.575   2.138
    1TCM    cl3 3237   2.068   4.337   2.134
    1TCM     c1 3238   1.552   1.755   0.634
    1TCM    cl1 3239   1.382   1.795   0.666
    1TCM    cl2 3240   1.639   1.739   0.789
    1TCM     h1 3241   1.558   1.660   0.578
    1TCM    cl3 3242   1.626   1.885   0.538
    1TCM     c1 3243   0.274   2.791   4.362
    1TCM    cl1 3244   0.382   2.854   4.236
    1TCM    cl2 3245   0.252   2.616   4.340
    1TCM     h1 3246   0.319   2.810   4.462
    1TCM    cl3 3247   0.116   2.873   4.352
    1TCM     c1 3248   0.522   1.635   4.719
    1TCM    cl1 3249   0.637   1.767   4.689
    1TCM    cl2 3250   0.571   1.546   4.865
    1TCM     h1 3251   0.420   1.677   4.734
    1TCM    cl3 3252   0.521   1.524   4.580
    1TCM     c1 3253   5.112   2.911   0.683
    1TCM    cl1 3254   5.178   2.807   0.811
    1TCM    cl2 3255   5.124   2.827   0.526
    1TCM     h1 3256   5.005   2.933   0.705
    1TCM    cl3 3257   5.204   3.063   0.676
    1TCM     c1 3258   2.197   4.261   4.831
    1TCM    cl1 3259   2.228   4.115   4.928
    1TCM    cl2 3260   2.192   4.403   4.937
    1TCM     h1 3261   2.277   4.274   4.756
    1TCM    cl3 3262   2.040   4.244   4.747
    1TCM     c1 3263   3.071   3.477   3.272
    1TCM    cl1 3264   2.902   3.520   3.237
    1TCM    cl2 3265   3.177   3.613   3.228
    1TCM     h1 3266   3.082   3.456   3.381
    1TCM    cl3 3267   3.117   3.333   3.179
    1TCM     c1 3268   2.965   4.402   0.375
    1TCM    cl1 3269   2.991   4.406   0.550
    1TCM    cl2 3270   3.000   4.562   0.306
    1TCM     h1 3271   3.033   4.327   0.329
    1TCM    cl3 3272   2.796   4.358   0.340
    1TCM     c1 3273   3.462   4.479   0.480
    1TCM    cl1 3274   3.522   4.370   0.352
    1TCM    cl2 3275   3.534   4.432   0.636
    1TCM     h1 3276   3.491   4.583   0.456
    1TCM    cl3 3277   3.285   4.467   0.490
    1TCM     c1 3278   2.398   3.725   1.032
    1TCM    cl1 3279   2.561   3.779   1.080
    1TCM    cl2 3280   2.352   3.583   1.129
    1TCM     h1 3281   2.325   3.807   1.049
    1TCM    cl3 3282   2.399   3.681   0.860
    1TCM     c1 3283   4.082   3.941   3.751
    1TCM    cl1 3284   4.193   3.909   3.615
    1TCM    cl2 3285   4.176   3.984   3.895
    1TCM     h1 3286   4.014   4.024   3.724
    1TCM    cl3 3287   3.987   3.794   3.784
    1TCM     c1 3288   5.219   4.781   4.202
    1TCM    cl1 3289   5.065   4.744   4.122
    1TCM    cl2 3290   5.188   4.835   4.369
    1TCM     h1 3291   5.283   4.691   4.203
    1TCM    cl3 3292   5.302   4.911   4.113
    1TCM     c1 3293   4.178   0.287   3.515
    1TCM    cl1 3294   4.171   0.266   3.692
    1TCM    cl2 3295   4.034   0.377   3.461
    1TCM     h1 3296   4.269   0.343   3.488
    1TCM    cl3 3297   4.181   0.127   3.436
    1TCM     c1 3298   2.441   2.665   3.451
    1TCM    cl1 3299   2.388   2.800   3.348
    1TCM    cl2 3300   2.386   2.692   3.618
    1TCM     h1 3301   2.399   2.570   3.412
    1TCM    cl3 3302   2.619   2.656   3.448
    1TCM     c1 3303   5.017   4.615   2.601
    1TCM    cl1 3304   5.004   4.776   2.527
    1TCM    cl2 3305   4.996   4.628   2.777
    1TCM     h1 3306   4.939   4.548   2.559
    1TCM    cl3 3307   5.178   4.547   2.566
    1TCM     c1 3308   2.383   0.823   2.054
    1TCM    cl1 3309   2.313   0.673   1.988
    1TCM    cl2 3310   2.411   0.803   2.228
    1TCM     h1 3311   2.480   0.844   2.003
    1TCM    cl3 3312   2.271   0.958   2.027
    1TCM     c1 3313   0.266   2.397   3.030
    1TCM    cl1 3314   0.119   2.476   2.969
    1TCM    cl2 3315   0.300   2.251   2.933
    1TCM     h1 3316   0.352   2.467   3.022
    1TCM    cl3 3317   0.243   2.350   3.200
    1TCM     c1 3318   1.099   4.058   1.117
    1TCM    cl1 3319   1.103   4.060   0.939
    1TCM    cl2 3320   1.233   3.959   1.178
    1TCM     h1 3321   1.109   4.162   1.155
    1TCM    cl3 3322   0.944   3.989   1.171
    1TCM     c1 3323   2.630   3.052   0.693
    1TCM    cl1 3324   2.680   3.115   0.534
    1TCM    cl2 3325   2.568   3.186   0.792
    1TCM     h1 3326   2.550   2.976   0.679
    1TCM    cl3 3327   2.769   2.977   0.774
    1TCM     c1 3328   0.695   0.660   0.868
    1TCM    cl1 3329   0.778   0.561   0.747
    1TCM    cl2 3330   0.632   0.555   0.998
    1TCM     h1 3331   0.766   0.733   0.912
    1TCM    cl3 3332   0.560   0.747   0.792
    1TCM     c1 3333   5.026   2.215   3.268
    1TCM    cl1 3334   4.914   2.343   3.317
    1TCM    cl2 3335   5.083   2.246   3.102
    1TCM     h1 3336   5.113   2.213   3.337
    1TCM    cl3 3337   4.943   2.058   3.273
    1TCM     c1 3338   2.510   1.007   3.504
    1TCM    cl1 3339   2.640   1.033   3.386
    1TCM    cl2 3340   2.558   1.072   3.662
    1TCM     h1 3341   2.418   1.059   3.469
    1TCM    cl3 3342   2.477   0.833   3.519
    1TCM     c1 3343   5.129   1.011   2.242
    1TCM    cl1 3344   5.107   1.181   2.195
    1TCM    cl2 3345   5.266   0.942   2.151
    1TCM     h1 3346   5.150   1.005   2.351
    1TCM    cl3 3347   4.981   0.919   2.204
    1TCM     c1 3348   3.927   0.520   4.502
    1TCM    cl1 3349   3.907   0.445   4.661
    1TCM    cl2 3350   3.947   0.696   4.521
    1TCM     h1 3351   4.017   0.478   4.452
    1TCM    cl3 3352   3.784   0.487   4.402
    1TCM     c1 3353   5.107   0.885   5.065
    1TCM    cl1 3354   5.202   0.803   4.939
    1TCM    cl2 3355   5.185   0.861   5.223
    1TCM     h1 3356   5.101   0.994   5.042
    1TCM    cl3 3357   4.942   0.817   5.069
    1TCM     c1 3358   2.908   0.582   1.492
    1TCM    cl1 3359   3.023   0.455   1.539
    1TCM    cl2 3360   2.870   0.682   1.634
    1TCM     h1 3361   2.953   0.646   1.413
    1TCM    cl3 3362   2.759   0.507   1.431
    1TCM     c1 3363   2.069   1.338   3.835
    1TCM    cl1 3364   2.013   1.441   3.968
    1TCM    cl2 3365   1.941   1.325   3.712
    1TCM     h1 3366   2.160   1.382   3.789
    1TCM    cl3 3367   2.107   1.176   3.898
   5.54000   5.54000   5.54000
