;
;   File system_openff_hmr.top  was generated
;   By user: tlf3 (59384)
;   On host:bb002.eth.hpc.nist.gov 
;   At date:Wed. June  3 19:23:41 2025 
;
;   This is a standalone topology file
;
;   Created by:
;   ParmEd:       hmr_topology, VERSION4.3.0 
;   Executable:   hmr_topology
;   Library dir:  /home/tlf3/miniforge3/envs/terphenyl/share/gromacs/top
;   Command line:
;     hmr_topology -t system_openff.top -o system_openff_hmr.top --hmr_ratio 3
;

[ defaults ]
; nbfunc        comb-rule       gen-pairs       fudgeLJ fudgeQQ
1               2               yes             0.5          0.833333    

[ atomtypes ]
; name    at.num    mass    charge ptype  sigma      epsilon
em_pom_tetramer_0        6  12.010780  0.00000000  A     0.33996695      0.4577296
em_pom_tetramer_1        8  15.999430  0.00000000  A     0.30251065     0.70485815
em_pom_tetramer_2        6  12.010780  0.00000000  A     0.34806469     0.36350306
em_pom_tetramer_3        6  12.010780  0.00000000  A     0.34806469     0.36350306
em_pom_tetramer_4        6  12.010780  0.00000000  A     0.34806469     0.36350306
em_pom_tetramer_5        6  12.010780  0.00000000  A     0.34806469     0.36350306
em_pom_tetramer_6        6  12.010780  0.00000000  A     0.34806469     0.36350306
em_pom_tetramer_7        6  12.010780  0.00000000  A     0.34806469     0.36350306
em_pom_tetramer_8        6  12.010780  0.00000000  A     0.34806469     0.36350306
em_pom_tetramer_9        6  12.010780  0.00000000  A     0.34806469     0.36350306
em_pom_tetramer_10        6  12.010780  0.00000000  A     0.34806469     0.36350306
em_pom_tetramer_11        6  12.010780  0.00000000  A     0.34806469     0.36350306
em_pom_tetramer_12        8  15.999430  0.00000000  A     0.30398122     0.87950233
em_pom_tetramer_13        6  12.010780  0.00000000  A     0.34806469     0.36350306
em_pom_tetramer_14        6  12.010780  0.00000000  A     0.34806469     0.36350306
em_pom_tetramer_15        6  12.010780  0.00000000  A     0.34806469     0.36350306
em_pom_tetramer_16        6  12.010780  0.00000000  A     0.34806469     0.36350306
em_pom_tetramer_17        6  12.010780  0.00000000  A     0.34806469     0.36350306
em_pom_tetramer_18        6  12.010780  0.00000000  A     0.34806469     0.36350306
em_pom_tetramer_19        6  12.010780  0.00000000  A     0.33996695      0.4577296
em_pom_tetramer_20        6  12.010780  0.00000000  A     0.33996695      0.4577296
em_pom_tetramer_21        7  14.006720  0.00000000  A      0.3206876      0.7016213
em_pom_tetramer_22        6  12.010780  0.00000000  A     0.34806469     0.36350306
em_pom_tetramer_23        6  12.010780  0.00000000  A     0.34806469     0.36350306
em_pom_tetramer_24        6  12.010780  0.00000000  A     0.34806469     0.36350306
em_pom_tetramer_25        1   1.007947  0.00000000  A     0.25832257    0.068656285
em_pom_tetramer_26        1   1.007947  0.00000000  A     0.25832257    0.068656285
em_pom_tetramer_27        1   1.007947  0.00000000  A     0.25832257    0.068656285
em_pom_tetramer_28        1   1.007947  0.00000000  A     0.25725815     0.06531786
em_pom_tetramer_29        1   1.007947  0.00000000  A     0.25725815     0.06531786
em_pom_tetramer_30        1   1.007947  0.00000000  A     0.25725815     0.06531786
em_pom_tetramer_31        1   1.007947  0.00000000  A     0.25725815     0.06531786
em_pom_tetramer_32        1   1.007947  0.00000000  A     0.25725815     0.06531786
em_pom_tetramer_33        1   1.007947  0.00000000  A     0.25725815     0.06531786
em_pom_tetramer_34        1   1.007947  0.00000000  A     0.25725815     0.06531786
em_pom_tetramer_35        1   1.007947  0.00000000  A     0.25725815     0.06531786
em_pom_tetramer_36        1   1.007947  0.00000000  A     0.25832257    0.068656285
em_pom_tetramer_37        1   1.007947  0.00000000  A     0.26445434    0.066021356
em_pom_tetramer_38        1   1.007947  0.00000000  A     0.26445434    0.066021356
em_pom_tetramer_39        1   1.007947  0.00000000  A     0.26445434    0.066021356
em_pom_tetramer_40        1   1.007947  0.00000000  A     0.11034277    0.058955969
em_pom_tetramer_41        1   1.007947  0.00000000  A     0.25725815     0.06531786
em_pom_tetramer_42        1   1.007947  0.00000000  A     0.25725815     0.06531786
em_pom_tetramer_43        1   1.007947  0.00000000  A     0.25725815     0.06531786
em_pom_tetramer_44        6  12.010780  0.00000000  A     0.33996695      0.4577296
em_pom_tetramer_45        8  15.999430  0.00000000  A     0.30251065     0.70485815
em_pom_tetramer_46        6  12.010780  0.00000000  A     0.34806469     0.36350306
em_pom_tetramer_47        6  12.010780  0.00000000  A     0.34806469     0.36350306
em_pom_tetramer_48        6  12.010780  0.00000000  A     0.34806469     0.36350306
em_pom_tetramer_49        6  12.010780  0.00000000  A     0.34806469     0.36350306
em_pom_tetramer_50        6  12.010780  0.00000000  A     0.34806469     0.36350306
em_pom_tetramer_51        6  12.010780  0.00000000  A     0.34806469     0.36350306
em_pom_tetramer_52        6  12.010780  0.00000000  A     0.34806469     0.36350306
em_pom_tetramer_53        6  12.010780  0.00000000  A     0.34806469     0.36350306
em_pom_tetramer_54        6  12.010780  0.00000000  A     0.34806469     0.36350306
em_pom_tetramer_55        6  12.010780  0.00000000  A     0.34806469     0.36350306
em_pom_tetramer_56        8  15.999430  0.00000000  A     0.30398122     0.87950233
em_pom_tetramer_57        6  12.010780  0.00000000  A     0.34806469     0.36350306
em_pom_tetramer_58        6  12.010780  0.00000000  A     0.34806469     0.36350306
em_pom_tetramer_59        6  12.010780  0.00000000  A     0.34806469     0.36350306
em_pom_tetramer_60        6  12.010780  0.00000000  A     0.34806469     0.36350306
em_pom_tetramer_61        6  12.010780  0.00000000  A     0.34806469     0.36350306
em_pom_tetramer_62        6  12.010780  0.00000000  A     0.34806469     0.36350306
em_pom_tetramer_63        6  12.010780  0.00000000  A     0.33996695      0.4577296
em_pom_tetramer_64        6  12.010780  0.00000000  A     0.33996695      0.4577296
em_pom_tetramer_65        7  14.006720  0.00000000  A      0.3206876      0.7016213
em_pom_tetramer_66        6  12.010780  0.00000000  A     0.34806469     0.36350306
em_pom_tetramer_67        6  12.010780  0.00000000  A     0.34806469     0.36350306
em_pom_tetramer_68        6  12.010780  0.00000000  A     0.34806469     0.36350306
em_pom_tetramer_69        1   1.007947  0.00000000  A     0.25832257    0.068656285
em_pom_tetramer_70        1   1.007947  0.00000000  A     0.25832257    0.068656285
em_pom_tetramer_71        1   1.007947  0.00000000  A     0.25832257    0.068656285
em_pom_tetramer_72        1   1.007947  0.00000000  A     0.25725815     0.06531786
em_pom_tetramer_73        1   1.007947  0.00000000  A     0.25725815     0.06531786
em_pom_tetramer_74        1   1.007947  0.00000000  A     0.25725815     0.06531786
em_pom_tetramer_75        1   1.007947  0.00000000  A     0.25725815     0.06531786
em_pom_tetramer_76        1   1.007947  0.00000000  A     0.25725815     0.06531786
em_pom_tetramer_77        1   1.007947  0.00000000  A     0.25725815     0.06531786
em_pom_tetramer_78        1   1.007947  0.00000000  A     0.25725815     0.06531786
em_pom_tetramer_79        1   1.007947  0.00000000  A     0.25725815     0.06531786
em_pom_tetramer_80        1   1.007947  0.00000000  A     0.25832257    0.068656285
em_pom_tetramer_81        1   1.007947  0.00000000  A     0.26445434    0.066021356
em_pom_tetramer_82        1   1.007947  0.00000000  A     0.26445434    0.066021356
em_pom_tetramer_83        1   1.007947  0.00000000  A     0.26445434    0.066021356
em_pom_tetramer_84        1   1.007947  0.00000000  A     0.11034277    0.058955969
em_pom_tetramer_85        1   1.007947  0.00000000  A     0.25725815     0.06531786
em_pom_tetramer_86        1   1.007947  0.00000000  A     0.25725815     0.06531786
em_pom_tetramer_87        1   1.007947  0.00000000  A     0.25725815     0.06531786
em_pom_tetramer_88        6  12.010780  0.00000000  A     0.33996695      0.4577296
em_pom_tetramer_89        8  15.999430  0.00000000  A     0.30251065     0.70485815
em_pom_tetramer_90        6  12.010780  0.00000000  A     0.34806469     0.36350306
em_pom_tetramer_91        6  12.010780  0.00000000  A     0.34806469     0.36350306
em_pom_tetramer_92        6  12.010780  0.00000000  A     0.34806469     0.36350306
em_pom_tetramer_93        6  12.010780  0.00000000  A     0.34806469     0.36350306
em_pom_tetramer_94        6  12.010780  0.00000000  A     0.34806469     0.36350306
em_pom_tetramer_95        6  12.010780  0.00000000  A     0.34806469     0.36350306
em_pom_tetramer_96        6  12.010780  0.00000000  A     0.34806469     0.36350306
em_pom_tetramer_97        6  12.010780  0.00000000  A     0.34806469     0.36350306
em_pom_tetramer_98        6  12.010780  0.00000000  A     0.34806469     0.36350306
em_pom_tetramer_99        6  12.010780  0.00000000  A     0.34806469     0.36350306
em_pom_tetramer_100        8  15.999430  0.00000000  A     0.30398122     0.87950233
em_pom_tetramer_101        6  12.010780  0.00000000  A     0.34806469     0.36350306
em_pom_tetramer_102        6  12.010780  0.00000000  A     0.34806469     0.36350306
em_pom_tetramer_103        6  12.010780  0.00000000  A     0.34806469     0.36350306
em_pom_tetramer_104        6  12.010780  0.00000000  A     0.34806469     0.36350306
em_pom_tetramer_105        6  12.010780  0.00000000  A     0.34806469     0.36350306
em_pom_tetramer_106        6  12.010780  0.00000000  A     0.34806469     0.36350306
em_pom_tetramer_107        6  12.010780  0.00000000  A     0.33996695      0.4577296
em_pom_tetramer_108        6  12.010780  0.00000000  A     0.33996695      0.4577296
em_pom_tetramer_109        7  14.006720  0.00000000  A      0.3206876      0.7016213
em_pom_tetramer_110        6  12.010780  0.00000000  A     0.34806469     0.36350306
em_pom_tetramer_111        6  12.010780  0.00000000  A     0.34806469     0.36350306
em_pom_tetramer_112        6  12.010780  0.00000000  A     0.34806469     0.36350306
em_pom_tetramer_113        1   1.007947  0.00000000  A     0.25832257    0.068656285
em_pom_tetramer_114        1   1.007947  0.00000000  A     0.25832257    0.068656285
em_pom_tetramer_115        1   1.007947  0.00000000  A     0.25832257    0.068656285
em_pom_tetramer_116        1   1.007947  0.00000000  A     0.25725815     0.06531786
em_pom_tetramer_117        1   1.007947  0.00000000  A     0.25725815     0.06531786
em_pom_tetramer_118        1   1.007947  0.00000000  A     0.25725815     0.06531786
em_pom_tetramer_119        1   1.007947  0.00000000  A     0.25725815     0.06531786
em_pom_tetramer_120        1   1.007947  0.00000000  A     0.25725815     0.06531786
em_pom_tetramer_121        1   1.007947  0.00000000  A     0.25725815     0.06531786
em_pom_tetramer_122        1   1.007947  0.00000000  A     0.25725815     0.06531786
em_pom_tetramer_123        1   1.007947  0.00000000  A     0.25725815     0.06531786
em_pom_tetramer_124        1   1.007947  0.00000000  A     0.25832257    0.068656285
em_pom_tetramer_125        1   1.007947  0.00000000  A     0.26445434    0.066021356
em_pom_tetramer_126        1   1.007947  0.00000000  A     0.26445434    0.066021356
em_pom_tetramer_127        1   1.007947  0.00000000  A     0.26445434    0.066021356
em_pom_tetramer_128        1   1.007947  0.00000000  A     0.11034277    0.058955969
em_pom_tetramer_129        1   1.007947  0.00000000  A     0.25725815     0.06531786
em_pom_tetramer_130        1   1.007947  0.00000000  A     0.25725815     0.06531786
em_pom_tetramer_131        1   1.007947  0.00000000  A     0.25725815     0.06531786
em_pom_tetramer_132        6  12.010780  0.00000000  A     0.33996695      0.4577296
em_pom_tetramer_133        8  15.999430  0.00000000  A     0.30251065     0.70485815
em_pom_tetramer_134        6  12.010780  0.00000000  A     0.34806469     0.36350306
em_pom_tetramer_135        6  12.010780  0.00000000  A     0.34806469     0.36350306
em_pom_tetramer_136        6  12.010780  0.00000000  A     0.34806469     0.36350306
em_pom_tetramer_137        6  12.010780  0.00000000  A     0.34806469     0.36350306
em_pom_tetramer_138        6  12.010780  0.00000000  A     0.34806469     0.36350306
em_pom_tetramer_139        6  12.010780  0.00000000  A     0.34806469     0.36350306
em_pom_tetramer_140        6  12.010780  0.00000000  A     0.34806469     0.36350306
em_pom_tetramer_141        6  12.010780  0.00000000  A     0.34806469     0.36350306
em_pom_tetramer_142        6  12.010780  0.00000000  A     0.34806469     0.36350306
em_pom_tetramer_143        6  12.010780  0.00000000  A     0.34806469     0.36350306
em_pom_tetramer_144        8  15.999430  0.00000000  A     0.30398122     0.87950233
em_pom_tetramer_145        6  12.010780  0.00000000  A     0.34806469     0.36350306
em_pom_tetramer_146        6  12.010780  0.00000000  A     0.34806469     0.36350306
em_pom_tetramer_147        6  12.010780  0.00000000  A     0.34806469     0.36350306
em_pom_tetramer_148        6  12.010780  0.00000000  A     0.34806469     0.36350306
em_pom_tetramer_149        6  12.010780  0.00000000  A     0.34806469     0.36350306
em_pom_tetramer_150        6  12.010780  0.00000000  A     0.34806469     0.36350306
em_pom_tetramer_151        6  12.010780  0.00000000  A     0.33996695      0.4577296
em_pom_tetramer_152        6  12.010780  0.00000000  A     0.33996695      0.4577296
em_pom_tetramer_153        7  14.006720  0.00000000  A      0.3206876      0.7016213
em_pom_tetramer_154        6  12.010780  0.00000000  A     0.34806469     0.36350306
em_pom_tetramer_155        6  12.010780  0.00000000  A     0.34806469     0.36350306
em_pom_tetramer_156        6  12.010780  0.00000000  A     0.34806469     0.36350306
em_pom_tetramer_157        1   1.007947  0.00000000  A     0.25832257    0.068656285
em_pom_tetramer_158        1   1.007947  0.00000000  A     0.25832257    0.068656285
em_pom_tetramer_159        1   1.007947  0.00000000  A     0.25832257    0.068656285
em_pom_tetramer_160        1   1.007947  0.00000000  A     0.25725815     0.06531786
em_pom_tetramer_161        1   1.007947  0.00000000  A     0.25725815     0.06531786
em_pom_tetramer_162        1   1.007947  0.00000000  A     0.25725815     0.06531786
em_pom_tetramer_163        1   1.007947  0.00000000  A     0.25725815     0.06531786
em_pom_tetramer_164        1   1.007947  0.00000000  A     0.25725815     0.06531786
em_pom_tetramer_165        1   1.007947  0.00000000  A     0.25725815     0.06531786
em_pom_tetramer_166        1   1.007947  0.00000000  A     0.25725815     0.06531786
em_pom_tetramer_167        1   1.007947  0.00000000  A     0.25725815     0.06531786
em_pom_tetramer_168        1   1.007947  0.00000000  A     0.25832257    0.068656285
em_pom_tetramer_169        1   1.007947  0.00000000  A     0.26445434    0.066021356
em_pom_tetramer_170        1   1.007947  0.00000000  A     0.26445434    0.066021356
em_pom_tetramer_171        1   1.007947  0.00000000  A     0.26445434    0.066021356
em_pom_tetramer_172        1   1.007947  0.00000000  A     0.11034277    0.058955969
em_pom_tetramer_173        1   1.007947  0.00000000  A     0.25725815     0.06531786
em_pom_tetramer_174        1   1.007947  0.00000000  A     0.25725815     0.06531786
em_pom_tetramer_175        1   1.007947  0.00000000  A     0.25725815     0.06531786
em_pom_tetramer_176        6  12.010780  0.00000000  A     0.33996695      0.4577296
em_pom_tetramer_177        8  15.999430  0.00000000  A     0.30251065     0.70485815
em_pom_tetramer_178        1   1.007947  0.00000000  A     0.25832257    0.068656285
em_pom_tetramer_179        1   1.007947  0.00000000  A     0.25832257    0.068656285
em_pom_tetramer_180        1   1.007947  0.00000000  A     0.25832257    0.068656285
em_pom_tetramer_181        6  12.010780  0.00000000  A     0.33996695      0.4577296
em_pom_tetramer_182        6  12.010780  0.00000000  A     0.33996695      0.4577296
em_pom_tetramer_183        6  12.010780  0.00000000  A     0.33996695      0.4577296
em_pom_tetramer_184        6  12.010780  0.00000000  A     0.33996695      0.4577296
em_pom_tetramer_185        8  15.999430  0.00000000  A     0.30251065     0.70485815
em_pom_tetramer_186        6  12.010780  0.00000000  A     0.34806469     0.36350306
em_pom_tetramer_187        8  15.999430  0.00000000  A     0.30398122     0.87950233
em_pom_tetramer_188        1   1.007947  0.00000000  A     0.26445434    0.066021356
em_pom_tetramer_189        1   1.007947  0.00000000  A     0.26445434    0.066021356
em_pom_tetramer_190        1   1.007947  0.00000000  A     0.26445434    0.066021356
em_pom_tetramer_191        1   1.007947  0.00000000  A     0.26445434    0.066021356
em_pom_tetramer_192        1   1.007947  0.00000000  A     0.26445434    0.066021356
em_pom_tetramer_193        1   1.007947  0.00000000  A     0.26445434    0.066021356
em_pom_tetramer_194        1   1.007947  0.00000000  A     0.26445434    0.066021356
em_pom_tetramer_195        1   1.007947  0.00000000  A     0.26445434    0.066021356
em_pom_tetramer_196        1   1.007947  0.00000000  A     0.26445434    0.066021356
TCM_0          6  12.010780  0.00000000  A     0.33996695      0.4577296
TCM_1         17  35.453200  0.00000000  A     0.34709414        1.10876
TCM_2         17  35.453200  0.00000000  A     0.34709414        1.10876
TCM_3          1   1.007947  0.00000000  A     0.21149936      0.0656888
TCM_4         17  35.453200  0.00000000  A     0.34709414        1.10876


[ moleculetype ]
; Name            nrexcl
system1          3

[ atoms ]
;   nr       type  resnr residue  atom   cgnr    charge       mass  typeB    chargeB      massB
; residue    1 POM rtp POM q 0.1
    1 em_pom_tetramer_0      1    POM     C1      1 0.10831000   5.963098   ; qtot 0.108310
    2 em_pom_tetramer_1      1    POM     O2      2 -0.31920001  15.999430   ; qtot -0.210890
    3 em_pom_tetramer_2      1    POM     C3      3 0.12208000  12.010780   ; qtot -0.088810
    4 em_pom_tetramer_3      1    POM     C4      4 -0.20128000   9.994886   ; qtot -0.290090
    5 em_pom_tetramer_4      1    POM     C5      5 -0.08347000   9.994886   ; qtot -0.373560
    6 em_pom_tetramer_5      1    POM     C6      6 -0.06991000  12.010780   ; qtot -0.443470
    7 em_pom_tetramer_6      1    POM     C7      7 -0.05182000  12.010780   ; qtot -0.495290
    8 em_pom_tetramer_7      1    POM     C8      8 -0.08133000   9.994886   ; qtot -0.576620
    9 em_pom_tetramer_8      1    POM     C9      9 -0.14853001   9.994886   ; qtot -0.725150
   10 em_pom_tetramer_9      1    POM    C10     10 -0.07398000   9.994886   ; qtot -0.799130
   11 em_pom_tetramer_10      1    POM    C11     11 -0.13829000  12.010780   ; qtot -0.937420
   12 em_pom_tetramer_11      1    POM    C12     12 0.64596999  12.010780   ; qtot -0.291450
   13 em_pom_tetramer_12      1    POM    O13     13 -0.54136002  15.999430   ; qtot -0.832810
   14 em_pom_tetramer_13      1    POM    C14     14 -0.05886000   9.994886   ; qtot -0.891670
   15 em_pom_tetramer_14      1    POM    C15     15 0.00619000  12.010780   ; qtot -0.885480
   16 em_pom_tetramer_15      1    POM    C16     16 -0.03904000  12.010780   ; qtot -0.924520
   17 em_pom_tetramer_16      1    POM    C17     17 -0.11095000   9.994886   ; qtot -1.035470
   18 em_pom_tetramer_17      1    POM    C18     18 -0.12223000   9.994886   ; qtot -1.157700
   19 em_pom_tetramer_18      1    POM    C19     19 -0.09717000  12.010780   ; qtot -1.254870
   20 em_pom_tetramer_19      1    POM    C20     20 0.15308000   9.994886   ; qtot -1.101790
   21 em_pom_tetramer_20      1    POM    C21     21 -0.10898000   5.963098   ; qtot -1.210770
   22 em_pom_tetramer_21      1    POM    N22     22 -0.57317001  11.990826   ; qtot -1.783940
   23 em_pom_tetramer_22      1    POM    C23     23 -0.12223000   9.994886   ; qtot -1.906170
   24 em_pom_tetramer_23      1    POM    C24     24 -0.11095000   9.994886   ; qtot -2.017120
   25 em_pom_tetramer_24      1    POM    C25     25 -0.14444000   9.994886   ; qtot -2.161560
   26 em_pom_tetramer_25      1    POM    H26     26 0.04492000   3.023841   ; qtot -2.116640
   27 em_pom_tetramer_26      1    POM    H27     27 0.04492000   3.023841   ; qtot -2.071720
   28 em_pom_tetramer_27      1    POM    H28     28 0.04492000   3.023841   ; qtot -2.026800
   29 em_pom_tetramer_28      1    POM    H29     29 0.14247000   3.023841   ; qtot -1.884330
   30 em_pom_tetramer_29      1    POM    H30     30 0.14147000   3.023841   ; qtot -1.742860
   31 em_pom_tetramer_30      1    POM    H31     31 0.14135000   3.023841   ; qtot -1.601510
   32 em_pom_tetramer_31      1    POM    H32     32 0.15001000   3.023841   ; qtot -1.451500
   33 em_pom_tetramer_32      1    POM    H33     33 0.15515000   3.023841   ; qtot -1.296350
   34 em_pom_tetramer_33      1    POM    H34     34 0.15918000   3.023841   ; qtot -1.137170
   35 em_pom_tetramer_34      1    POM    H35     35 0.13852000   3.023841   ; qtot -0.998650
   36 em_pom_tetramer_35      1    POM    H36     36 0.13665999   3.023841   ; qtot -0.861990
   37 em_pom_tetramer_36      1    POM    H37     37 0.08189000   3.023841   ; qtot -0.780100
   38 em_pom_tetramer_37      1    POM    H38     38 0.04577000   3.023841   ; qtot -0.734330
   39 em_pom_tetramer_38      1    POM    H39     39 0.04577000   3.023841   ; qtot -0.688560
   40 em_pom_tetramer_39      1    POM    H40     40 0.04577000   3.023841   ; qtot -0.642790
   41 em_pom_tetramer_40      1    POM    H41     41 0.31316999   3.023841   ; qtot -0.329620
   42 em_pom_tetramer_41      1    POM    H42     42 0.13665999   3.023841   ; qtot -0.192960
   43 em_pom_tetramer_42      1    POM    H43     43 0.13852000   3.023841   ; qtot -0.054440
   44 em_pom_tetramer_43      1    POM    H44     44 0.15769000   3.023841   ; qtot 0.103250
; residue    2 POM rtp POM q 0.0
   45 em_pom_tetramer_44      2    POM    C45     45 0.11187000   5.963098   ; qtot 0.215120
   46 em_pom_tetramer_45      2    POM    O46     46 -0.32288000  15.999430   ; qtot -0.107760
   47 em_pom_tetramer_46      2    POM    C47     47 0.14943001  12.010780   ; qtot 0.041670
   48 em_pom_tetramer_47      2    POM    C48     48 -0.16215999   9.994886   ; qtot -0.120490
   49 em_pom_tetramer_48      2    POM    C49     49 -0.08870000   9.994886   ; qtot -0.209190
   50 em_pom_tetramer_49      2    POM    C50     50 -0.07781000  12.010780   ; qtot -0.287000
   51 em_pom_tetramer_50      2    POM    C51     51 -0.03636000  12.010780   ; qtot -0.323360
   52 em_pom_tetramer_51      2    POM    C52     52 -0.09040000   9.994886   ; qtot -0.413760
   53 em_pom_tetramer_52      2    POM    C53     53 -0.14188001   9.994886   ; qtot -0.555640
   54 em_pom_tetramer_53      2    POM    C54     54 -0.07520000   9.994886   ; qtot -0.630840
   55 em_pom_tetramer_54      2    POM    C55     55 -0.14596000  12.010780   ; qtot -0.776800
   56 em_pom_tetramer_55      2    POM    C56     56 0.66979003  12.010780   ; qtot -0.107010
   57 em_pom_tetramer_56      2    POM    O57     57 -0.60781002  15.999430   ; qtot -0.714820
   58 em_pom_tetramer_57      2    POM    C58     58 -0.09421000   9.994886   ; qtot -0.809030
   59 em_pom_tetramer_58      2    POM    C59     59 0.00840000  12.010780   ; qtot -0.800630
   60 em_pom_tetramer_59      2    POM    C60     60 -0.03710000  12.010780   ; qtot -0.837730
   61 em_pom_tetramer_60      2    POM    C61     61 -0.11429000   9.994886   ; qtot -0.952020
   62 em_pom_tetramer_61      2    POM    C62     62 -0.12089000   9.994886   ; qtot -1.072910
   63 em_pom_tetramer_62      2    POM    C63     63 -0.09319000  12.010780   ; qtot -1.166100
   64 em_pom_tetramer_63      2    POM    C64     64 0.15171000   9.994886   ; qtot -1.014390
   65 em_pom_tetramer_64      2    POM    C65     65 -0.11437000   5.963098   ; qtot -1.128760
   66 em_pom_tetramer_65      2    POM    N66     66 -0.56608999  11.990826   ; qtot -1.694850
   67 em_pom_tetramer_66      2    POM    C67     67 -0.12089000   9.994886   ; qtot -1.815740
   68 em_pom_tetramer_67      2    POM    C68     68 -0.11429000   9.994886   ; qtot -1.930030
   69 em_pom_tetramer_68      2    POM    C69     69 -0.18776000   9.994886   ; qtot -2.117790
   70 em_pom_tetramer_69      2    POM    H70     70 0.04748000   3.023841   ; qtot -2.070310
   71 em_pom_tetramer_70      2    POM    H71     71 0.04748000   3.023841   ; qtot -2.022830
   72 em_pom_tetramer_71      2    POM    H72     72 0.04748000   3.023841   ; qtot -1.975350
   73 em_pom_tetramer_72      2    POM    H73     73 0.14611000   3.023841   ; qtot -1.829240
   74 em_pom_tetramer_73      2    POM    H74     74 0.13628000   3.023841   ; qtot -1.692960
   75 em_pom_tetramer_74      2    POM    H75     75 0.14038000   3.023841   ; qtot -1.552580
   76 em_pom_tetramer_75      2    POM    H76     76 0.13767999   3.023841   ; qtot -1.414900
   77 em_pom_tetramer_76      2    POM    H77     77 0.15600000   3.023841   ; qtot -1.258900
   78 em_pom_tetramer_77      2    POM    H78     78 0.13891000   3.023841   ; qtot -1.119990
   79 em_pom_tetramer_78      2    POM    H79     79 0.13696000   3.023841   ; qtot -0.983030
   80 em_pom_tetramer_79      2    POM    H80     80 0.13662000   3.023841   ; qtot -0.846410
   81 em_pom_tetramer_80      2    POM    H81     81 0.08372000   3.023841   ; qtot -0.762690
   82 em_pom_tetramer_81      2    POM    H82     82 0.04579000   3.023841   ; qtot -0.716900
   83 em_pom_tetramer_82      2    POM    H83     83 0.04579000   3.023841   ; qtot -0.671110
   84 em_pom_tetramer_83      2    POM    H84     84 0.04579000   3.023841   ; qtot -0.625320
   85 em_pom_tetramer_84      2    POM    H85     85 0.31569999   3.023841   ; qtot -0.309620
   86 em_pom_tetramer_85      2    POM    H86     86 0.13662000   3.023841   ; qtot -0.173000
   87 em_pom_tetramer_86      2    POM    H87     87 0.13696000   3.023841   ; qtot -0.036040
   88 em_pom_tetramer_87      2    POM    H88     88 0.14664000   3.023841   ; qtot 0.110600
; residue    3 POM rtp POM q -0.0
   89 em_pom_tetramer_88      3    POM    C89     89 0.11357000   5.963098   ; qtot 0.224170
   90 em_pom_tetramer_89      3    POM    O90     90 -0.32224000  15.999430   ; qtot -0.098070
   91 em_pom_tetramer_90      3    POM    C91     91 0.14650001  12.010780   ; qtot 0.048430
   92 em_pom_tetramer_91      3    POM    C92     92 -0.19992000   9.994886   ; qtot -0.151490
   93 em_pom_tetramer_92      3    POM    C93     93 -0.08383000   9.994886   ; qtot -0.235320
   94 em_pom_tetramer_93      3    POM    C94     94 -0.07188000  12.010780   ; qtot -0.307200
   95 em_pom_tetramer_94      3    POM    C95     95 -0.04026000  12.010780   ; qtot -0.347460
   96 em_pom_tetramer_95      3    POM    C96     96 -0.10395000   9.994886   ; qtot -0.451410
   97 em_pom_tetramer_96      3    POM    C97     97 -0.14550000   9.994886   ; qtot -0.596910
   98 em_pom_tetramer_97      3    POM    C98     98 -0.07994000   9.994886   ; qtot -0.676850
   99 em_pom_tetramer_98      3    POM    C99     99 -0.14376999  12.010780   ; qtot -0.820620
  100 em_pom_tetramer_99      3    POM   C100    100 0.67453003  12.010780   ; qtot -0.146090
  101 em_pom_tetramer_100      3    POM   O101    101 -0.61440003  15.999430   ; qtot -0.760490
  102 em_pom_tetramer_101      3    POM   C102    102 -0.08672000   9.994886   ; qtot -0.847210
  103 em_pom_tetramer_102      3    POM   C103    103 0.00168000  12.010780   ; qtot -0.845530
  104 em_pom_tetramer_103      3    POM   C104    104 -0.03245000  12.010780   ; qtot -0.877980
  105 em_pom_tetramer_104      3    POM   C105    105 -0.11470000   9.994886   ; qtot -0.992680
  106 em_pom_tetramer_105      3    POM   C106    106 -0.12815000   9.994886   ; qtot -1.120830
  107 em_pom_tetramer_106      3    POM   C107    107 -0.10344000  12.010780   ; qtot -1.224270
  108 em_pom_tetramer_107      3    POM   C108    108 0.15402000   9.994886   ; qtot -1.070250
  109 em_pom_tetramer_108      3    POM   C109    109 -0.11156000   5.963098   ; qtot -1.181810
  110 em_pom_tetramer_109      3    POM   N110    110 -0.57331997  11.990826   ; qtot -1.755130
  111 em_pom_tetramer_110      3    POM   C111    111 -0.12815000   9.994886   ; qtot -1.883280
  112 em_pom_tetramer_111      3    POM   C112    112 -0.11470000   9.994886   ; qtot -1.997980
  113 em_pom_tetramer_112      3    POM   C113    113 -0.12092000   9.994886   ; qtot -2.118900
  114 em_pom_tetramer_113      3    POM   H114    114 0.04332000   3.023841   ; qtot -2.075580
  115 em_pom_tetramer_114      3    POM   H115    115 0.04332000   3.023841   ; qtot -2.032260
  116 em_pom_tetramer_115      3    POM   H116    116 0.04332000   3.023841   ; qtot -1.988940
  117 em_pom_tetramer_116      3    POM   H117    117 0.13785000   3.023841   ; qtot -1.851090
  118 em_pom_tetramer_117      3    POM   H118    118 0.13634001   3.023841   ; qtot -1.714750
  119 em_pom_tetramer_118      3    POM   H119    119 0.13767000   3.023841   ; qtot -1.577080
  120 em_pom_tetramer_119      3    POM   H120    120 0.13575999   3.023841   ; qtot -1.441320
  121 em_pom_tetramer_120      3    POM   H121    121 0.15583999   3.023841   ; qtot -1.285480
  122 em_pom_tetramer_121      3    POM   H122    122 0.14985000   3.023841   ; qtot -1.135630
  123 em_pom_tetramer_122      3    POM   H123    123 0.14747000   3.023841   ; qtot -0.988160
  124 em_pom_tetramer_123      3    POM   H124    124 0.13447000   3.023841   ; qtot -0.853690
  125 em_pom_tetramer_124      3    POM   H125    125 0.07749000   3.023841   ; qtot -0.776200
  126 em_pom_tetramer_125      3    POM   H126    126 0.04491000   3.023841   ; qtot -0.731290
  127 em_pom_tetramer_126      3    POM   H127    127 0.04491000   3.023841   ; qtot -0.686380
  128 em_pom_tetramer_127      3    POM   H128    128 0.04491000   3.023841   ; qtot -0.641470
  129 em_pom_tetramer_128      3    POM   H129    129 0.31363001   3.023841   ; qtot -0.327840
  130 em_pom_tetramer_129      3    POM   H130    130 0.13447000   3.023841   ; qtot -0.193370
  131 em_pom_tetramer_130      3    POM   H131    131 0.14747000   3.023841   ; qtot -0.045900
  132 em_pom_tetramer_131      3    POM   H132    132 0.14762001   3.023841   ; qtot 0.101720
; residue    4 POM rtp POM q 0.0
  133 em_pom_tetramer_132      4    POM   C133    133 0.11341000   5.963098   ; qtot 0.215130
  134 em_pom_tetramer_133      4    POM   O134    134 -0.32670999  15.999430   ; qtot -0.111580
  135 em_pom_tetramer_134      4    POM   C135    135 0.12604000  12.010780   ; qtot 0.014460
  136 em_pom_tetramer_135      4    POM   C136    136 -0.20409000   9.994886   ; qtot -0.189630
  137 em_pom_tetramer_136      4    POM   C137    137 -0.08352000   9.994886   ; qtot -0.273150
  138 em_pom_tetramer_137      4    POM   C138    138 -0.06973000  12.010780   ; qtot -0.342880
  139 em_pom_tetramer_138      4    POM   C139    139 -0.04007000  12.010780   ; qtot -0.382950
  140 em_pom_tetramer_139      4    POM   C140    140 -0.08725000   9.994886   ; qtot -0.470200
  141 em_pom_tetramer_140      4    POM   C141    141 -0.13372000   9.994886   ; qtot -0.603920
  142 em_pom_tetramer_141      4    POM   C142    142 -0.10221000   9.994886   ; qtot -0.706130
  143 em_pom_tetramer_142      4    POM   C143    143 -0.14568999  12.010780   ; qtot -0.851820
  144 em_pom_tetramer_143      4    POM   C144    144 0.67606997  12.010780   ; qtot -0.175750
  145 em_pom_tetramer_144      4    POM   O145    145 -0.61763000  15.999430   ; qtot -0.793380
  146 em_pom_tetramer_145      4    POM   C146    146 -0.06113000   9.994886   ; qtot -0.854510
  147 em_pom_tetramer_146      4    POM   C147    147 0.01037000  12.010780   ; qtot -0.844140
  148 em_pom_tetramer_147      4    POM   C148    148 -0.03843000  12.010780   ; qtot -0.882570
  149 em_pom_tetramer_148      4    POM   C149    149 -0.11355000   9.994886   ; qtot -0.996120
  150 em_pom_tetramer_149      4    POM   C150    150 -0.10607000   9.994886   ; qtot -1.102190
  151 em_pom_tetramer_150      4    POM   C151    151 -0.10743000  12.010780   ; qtot -1.209620
  152 em_pom_tetramer_151      4    POM   C152    152 0.16913000   9.994886   ; qtot -1.040490
  153 em_pom_tetramer_152      4    POM   C153    153 -0.10474000   5.963098   ; qtot -1.145230
  154 em_pom_tetramer_153      4    POM   N154    154 -0.55796999  11.990826   ; qtot -1.703200
  155 em_pom_tetramer_154      4    POM   C155    155 -0.10607000   9.994886   ; qtot -1.809270
  156 em_pom_tetramer_155      4    POM   C156    156 -0.11355000   9.994886   ; qtot -1.922820
  157 em_pom_tetramer_156      4    POM   C157    157 -0.14706001   9.994886   ; qtot -2.069880
  158 em_pom_tetramer_157      4    POM   H158    158 0.04514000   3.023841   ; qtot -2.024740
  159 em_pom_tetramer_158      4    POM   H159    159 0.04514000   3.023841   ; qtot -1.979600
  160 em_pom_tetramer_159      4    POM   H160    160 0.04514000   3.023841   ; qtot -1.934460
  161 em_pom_tetramer_160      4    POM   H161    161 0.13967000   3.023841   ; qtot -1.794790
  162 em_pom_tetramer_161      4    POM   H162    162 0.14021000   3.023841   ; qtot -1.654580
  163 em_pom_tetramer_162      4    POM   H163    163 0.14128999   3.023841   ; qtot -1.513290
  164 em_pom_tetramer_163      4    POM   H164    164 0.13813999   3.023841   ; qtot -1.375150
  165 em_pom_tetramer_164      4    POM   H165    165 0.13023999   3.023841   ; qtot -1.244910
  166 em_pom_tetramer_165      4    POM   H166    166 0.15924001   3.023841   ; qtot -1.085670
  167 em_pom_tetramer_166      4    POM   H167    167 0.13739000   3.023841   ; qtot -0.948280
  168 em_pom_tetramer_167      4    POM   H168    168 0.13485000   3.023841   ; qtot -0.813430
  169 em_pom_tetramer_168      4    POM   H169    169 0.06588000   3.023841   ; qtot -0.747550
  170 em_pom_tetramer_169      4    POM   H170    170 0.04799000   3.023841   ; qtot -0.699560
  171 em_pom_tetramer_170      4    POM   H171    171 0.04799000   3.023841   ; qtot -0.651570
  172 em_pom_tetramer_171      4    POM   H172    172 0.04799000   3.023841   ; qtot -0.603580
  173 em_pom_tetramer_172      4    POM   H173    173 0.32648000   3.023841   ; qtot -0.277100
  174 em_pom_tetramer_173      4    POM   H174    174 0.13485000   3.023841   ; qtot -0.142250
  175 em_pom_tetramer_174      4    POM   H175    175 0.13739000   3.023841   ; qtot -0.004860
  176 em_pom_tetramer_175      4    POM   H176    176 0.15527000   3.023841   ; qtot 0.150410
; residue    5 CAP rtp CAP q -0.2
  177 em_pom_tetramer_176      5    CAP   C177    177 0.12603000   5.963098   ; qtot 0.276440
  178 em_pom_tetramer_177      5    CAP   O178    178 -0.44110999  15.999430   ; qtot -0.164670
  179 em_pom_tetramer_178      5    CAP   H179    179 0.05155000   3.023841   ; qtot -0.113120
  180 em_pom_tetramer_179      5    CAP   H180    180 0.05155000   3.023841   ; qtot -0.061570
  181 em_pom_tetramer_180      5    CAP   H181    181 0.05155000   3.023841   ; qtot -0.010020
; residue    6 CAP rtp CAP q 0.0
  182 em_pom_tetramer_181      6    CAP   C182    182 -0.11466000   5.963098   ; qtot -0.124680
  183 em_pom_tetramer_182      6    CAP   C183    183 0.18893000  12.010780   ; qtot 0.064250
  184 em_pom_tetramer_183      6    CAP   C184    184 -0.11466000   5.963098   ; qtot -0.050410
  185 em_pom_tetramer_184      6    CAP   C185    185 -0.11466000   5.963098   ; qtot -0.165070
  186 em_pom_tetramer_185      6    CAP   O186    186 -0.45127001  15.999430   ; qtot -0.616340
  187 em_pom_tetramer_186      6    CAP   C187    187 0.75248998  12.010780   ; qtot 0.136150
  188 em_pom_tetramer_187      6    CAP   O188    188 -0.59380001  15.999430   ; qtot -0.457650
  189 em_pom_tetramer_188      6    CAP   H189    189 0.05085000   3.023841   ; qtot -0.406800
  190 em_pom_tetramer_189      6    CAP   H190    190 0.05085000   3.023841   ; qtot -0.355950
  191 em_pom_tetramer_190      6    CAP   H191    191 0.05085000   3.023841   ; qtot -0.305100
  192 em_pom_tetramer_191      6    CAP   H192    192 0.05085000   3.023841   ; qtot -0.254250
  193 em_pom_tetramer_192      6    CAP   H193    193 0.05085000   3.023841   ; qtot -0.203400
  194 em_pom_tetramer_193      6    CAP   H194    194 0.05085000   3.023841   ; qtot -0.152550
  195 em_pom_tetramer_194      6    CAP   H195    195 0.05085000   3.023841   ; qtot -0.101700
  196 em_pom_tetramer_195      6    CAP   H196    196 0.05085000   3.023841   ; qtot -0.050850
  197 em_pom_tetramer_196      6    CAP   H197    197 0.05085000   3.023841   ; qtot -0.000000

[ bonds ]
;    ai     aj funct         c0         c1         c2         c3
      1      2     1   0.14259 306888.771877
      1     26     1   0.10929 317186.185379
      1     27     1   0.10929 317186.185379
      1     28     1   0.10929 317186.185379
      2      3     1   0.13629 356218.264001
      3      4     1   0.13872 301905.092579
      3     25     1   0.13872 301905.092579
      4      5     1   0.13872 301905.092579
      4     29     1   0.10854 332422.631675
      5      6     1   0.13872 301905.092579
      5     30     1   0.10854 332422.631675
      6      7     1   0.14546 233580.248618
      6     15     1   0.13872 301905.092579
      7      8     1   0.13872 301905.092579
      7     14     1   0.13872 301905.092579
      8      9     1   0.13872 301905.092579
      8     31     1   0.10854 332422.631675
      9     10     1   0.13872 301905.092579
      9     32     1   0.10854 332422.631675
     10     11     1   0.13872 301905.092579
     10     33     1   0.10854 332422.631675
     11     12     1   0.14546 233580.248618
     11     14     1   0.13872 301905.092579
     12     13     1   0.12252 487602.327766
     12    178     1   0.13457 252005.673257
     14     34     1   0.10854 332422.631675
     15     16     1   0.14546 233580.248618
     15     25     1   0.13872 301905.092579
     16     17     1   0.13872 301905.092579
     16     24     1   0.13872 301905.092579
     17     18     1   0.13872 301905.092579
     17     35     1   0.10854 332422.631675
     18     19     1   0.13872 301905.092579
     18     36     1   0.10854 332422.631675
     19     20     1   0.14986 242452.869388
     19     23     1   0.13872 301905.092579
     20     21     1   0.15219 221435.259290
     20     22     1   0.14501 294600.927776
     20     37     1   0.10929 317186.185379
     21     38     1   0.10929 317186.185379
     21     39     1   0.10929 317186.185379
     21     40     1   0.10929 317186.185379
     22     41     1   0.10195 422704.914414
     22     56     1   0.13819 412347.817359
     23     24     1   0.13872 301905.092579
     23     42     1   0.10854 332422.631675
     24     43     1   0.10854 332422.631675
     25     44     1   0.10854 332422.631675
     45     46     1   0.14259 306888.771877
     45     70     1   0.10929 317186.185379
     45     71     1   0.10929 317186.185379
     45     72     1   0.10929 317186.185379
     46     47     1   0.13629 356218.264001
     47     48     1   0.13872 301905.092579
     47     69     1   0.13872 301905.092579
     48     49     1   0.13872 301905.092579
     48     73     1   0.10854 332422.631675
     49     50     1   0.13872 301905.092579
     49     74     1   0.10854 332422.631675
     50     51     1   0.14546 233580.248618
     50     59     1   0.13872 301905.092579
     51     52     1   0.13872 301905.092579
     51     58     1   0.13872 301905.092579
     52     53     1   0.13872 301905.092579
     52     75     1   0.10854 332422.631675
     53     54     1   0.13872 301905.092579
     53     76     1   0.10854 332422.631675
     54     55     1   0.13872 301905.092579
     54     77     1   0.10854 332422.631675
     55     56     1   0.14546 233580.248618
     55     58     1   0.13872 301905.092579
     56     57     1   0.12252 487602.327766
     58     78     1   0.10854 332422.631675
     59     60     1   0.14546 233580.248618
     59     69     1   0.13872 301905.092579
     60     61     1   0.13872 301905.092579
     60     68     1   0.13872 301905.092579
     61     62     1   0.13872 301905.092579
     61     79     1   0.10854 332422.631675
     62     63     1   0.13872 301905.092579
     62     80     1   0.10854 332422.631675
     63     64     1   0.14986 242452.869388
     63     67     1   0.13872 301905.092579
     64     65     1   0.15219 221435.259290
     64     66     1   0.14501 294600.927776
     64     81     1   0.10929 317186.185379
     65     82     1   0.10929 317186.185379
     65     83     1   0.10929 317186.185379
     65     84     1   0.10929 317186.185379
     66     85     1   0.10195 422704.914414
     66    100     1   0.13819 412347.817359
     67     68     1   0.13872 301905.092579
     67     86     1   0.10854 332422.631675
     68     87     1   0.10854 332422.631675
     69     88     1   0.10854 332422.631675
     89     90     1   0.14259 306888.771877
     89    114     1   0.10929 317186.185379
     89    115     1   0.10929 317186.185379
     89    116     1   0.10929 317186.185379
     90     91     1   0.13629 356218.264001
     91     92     1   0.13872 301905.092579
     91    113     1   0.13872 301905.092579
     92     93     1   0.13872 301905.092579
     92    117     1   0.10854 332422.631675
     93     94     1   0.13872 301905.092579
     93    118     1   0.10854 332422.631675
     94     95     1   0.14546 233580.248618
     94    103     1   0.13872 301905.092579
     95     96     1   0.13872 301905.092579
     95    102     1   0.13872 301905.092579
     96     97     1   0.13872 301905.092579
     96    119     1   0.10854 332422.631675
     97     98     1   0.13872 301905.092579
     97    120     1   0.10854 332422.631675
     98     99     1   0.13872 301905.092579
     98    121     1   0.10854 332422.631675
     99    100     1   0.14546 233580.248618
     99    102     1   0.13872 301905.092579
    100    101     1   0.12252 487602.327766
    102    122     1   0.10854 332422.631675
    103    104     1   0.14546 233580.248618
    103    113     1   0.13872 301905.092579
    104    105     1   0.13872 301905.092579
    104    112     1   0.13872 301905.092579
    105    106     1   0.13872 301905.092579
    105    123     1   0.10854 332422.631675
    106    107     1   0.13872 301905.092579
    106    124     1   0.10854 332422.631675
    107    108     1   0.14986 242452.869388
    107    111     1   0.13872 301905.092579
    108    109     1   0.15219 221435.259290
    108    110     1   0.14501 294600.927776
    108    125     1   0.10929 317186.185379
    109    126     1   0.10929 317186.185379
    109    127     1   0.10929 317186.185379
    109    128     1   0.10929 317186.185379
    110    129     1   0.10195 422704.914414
    110    144     1   0.13819 412347.817359
    111    112     1   0.13872 301905.092579
    111    130     1   0.10854 332422.631675
    112    131     1   0.10854 332422.631675
    113    132     1   0.10854 332422.631675
    133    134     1   0.14259 306888.771877
    133    158     1   0.10929 317186.185379
    133    159     1   0.10929 317186.185379
    133    160     1   0.10929 317186.185379
    134    135     1   0.13629 356218.264001
    135    136     1   0.13872 301905.092579
    135    157     1   0.13872 301905.092579
    136    137     1   0.13872 301905.092579
    136    161     1   0.10854 332422.631675
    137    138     1   0.13872 301905.092579
    137    162     1   0.10854 332422.631675
    138    139     1   0.14546 233580.248618
    138    147     1   0.13872 301905.092579
    139    140     1   0.13872 301905.092579
    139    146     1   0.13872 301905.092579
    140    141     1   0.13872 301905.092579
    140    163     1   0.10854 332422.631675
    141    142     1   0.13872 301905.092579
    141    164     1   0.10854 332422.631675
    142    143     1   0.13872 301905.092579
    142    165     1   0.10854 332422.631675
    143    144     1   0.14546 233580.248618
    143    146     1   0.13872 301905.092579
    144    145     1   0.12252 487602.327766
    146    166     1   0.10854 332422.631675
    147    148     1   0.14546 233580.248618
    147    157     1   0.13872 301905.092579
    148    149     1   0.13872 301905.092579
    148    156     1   0.13872 301905.092579
    149    150     1   0.13872 301905.092579
    149    167     1   0.10854 332422.631675
    150    151     1   0.13872 301905.092579
    150    168     1   0.10854 332422.631675
    151    152     1   0.14986 242452.869388
    151    155     1   0.13872 301905.092579
    152    153     1   0.15219 221435.259290
    152    154     1   0.14501 294600.927776
    152    169     1   0.10929 317186.185379
    153    170     1   0.10929 317186.185379
    153    171     1   0.10929 317186.185379
    153    172     1   0.10929 317186.185379
    154    173     1   0.10195 422704.914414
    154    187     1   0.13819 412347.817359
    155    156     1   0.13872 301905.092579
    155    174     1   0.10854 332422.631675
    156    175     1   0.10854 332422.631675
    157    176     1   0.10854 332422.631675
    177    178     1   0.14259 306888.771877
    177    179     1   0.10929 317186.185379
    177    180     1   0.10929 317186.185379
    177    181     1   0.10929 317186.185379
    182    183     1   0.15219 221435.259290
    182    189     1   0.10929 317186.185379
    182    190     1   0.10929 317186.185379
    182    191     1   0.10929 317186.185379
    183    184     1   0.15219 221435.259290
    183    185     1   0.15219 221435.259290
    183    186     1   0.14259 306888.771877
    184    192     1   0.10929 317186.185379
    184    193     1   0.10929 317186.185379
    184    194     1   0.10929 317186.185379
    185    195     1   0.10929 317186.185379
    185    196     1   0.10929 317186.185379
    185    197     1   0.10929 317186.185379
    186    187     1   0.13457 252005.673257
    187    188     1   0.12252 487602.327766

[ pairs ]
;    ai     aj funct         c0         c1         c2         c3
     98    101     1
     29     30     1
    105    108     1
    186    195     1
     12    180     1
     57     58     1
    104    130     1
     90    132     1
    152    188     1
     81     85     1
    106    130     1
    139    162     1
     22     58     1
     42     43     1
     75     76     1
    150    169     1
    106    110     1
     68     79     1
     91    116     1
      4     44     1
    108    145     1
     41     57     1
    169    172     1
    150    154     1
     63     87     1
      6     17     1
    182    196     1
    186    193     1
     60     88     1
    184    197     1
    103    118     1
     10     34     1
     63     83     1
     55     76     1
    154    183     1
    147    155     1
    107    123     1
    182    195     1
     20     42     1
     54     75     1
    185    192     1
    123    124     1
    151    172     1
     19     41     1
    154    171     1
     12    179     1
     63     82     1
     62     66     1
    186    194     1
     94    112     1
     14     31     1
    156    167     1
     17     23     1
    155    169     1
      7     30     1
     22     38     1
     81    100     1
    164    165     1
     45     69     1
    139    144     1
     65     85     1
     50     61     1
     64     99     1
    186    190     1
      6     11     1
     98    119     1
    113    117     1
     93    102     1
     19     43     1
      9     12     1
     93    113     1
     66     98     1
    182    193     1
    186    197     1
     22     40     1
      6     29     1
     54     78     1
     15     35     1
     69     73     1
    137    146     1
    173    188     1
     61     64     1
      5     25     1
    135    162     1
    184    195     1
      4      7     1
     20     36     1
    107    131     1
    156    157     1
     52     55     1
     14    178     1
    142    166     1
    148    151     1
      5     16     1
    103    111     1
     50     55     1
    138    143     1
      7     32     1
     11    177     1
    146    165     1
     19     38     1
    136    176     1
    182    194     1
     48     59     1
     47     72     1
    149    152     1
    105    111     1
     62     68     1
     63     79     1
     46     59     1
    103    131     1
     47     74     1
     92     95     1
     99    120     1
    105    131     1
      1     25     1
    167    168     1
     18     22     1
     18     37     1
    161    162     1
     65    100     1
     85     99     1
    185    193     1
    169    173     1
     12    181     1
     19     40     1
    135    158     1
    184    187     1
     58     77     1
     21     23     1
     96    121     1
     60     80     1
     94    105     1
     64     86     1
     93    104     1
    141    146     1
     19     56     1
     41     55     1
     21     56     1
    136    139     1
    108    112     1
    133    157     1
     66     67     1
    151    173     1
    138    166     1
      6      9     1
    125    144     1
     52     59     1
     51     74     1
     62     86     1
     20     57     1
     16     42     1
     47     50     1
    185    194     1
     98    122     1
    108    124     1
     58     59     1
    134    137     1
    111    125     1
      3      6     1
     94    117     1
     54     57     1
     47     70     1
     51     69     1
    169    187     1
     95     98     1
      8     34     1
    110    128     1
     37     40     1
     18     42     1
     11     32     1
     10     13     1
    184    190     1
    157    161     1
    138    149     1
    151    187     1
      7     25     1
     90    103     1
     50     73     1
    134    176     1
      4     15     1
    140    165     1
    119    120     1
    150    153     1
     73     74     1
     51     56     1
     63     85     1
    138    176     1
    139    157     1
     14     33     1
     31     32     1
     56     78     1
    130    131     1
     48     51     1
     61     69     1
    140    143     1
     16     36     1
    142    163     1
     68     69     1
    135    138     1
     91     94     1
    106    125     1
    103    123     1
    148    176     1
     17     25     1
    169    170     1
     90     93     1
     91    114     1
     96    103     1
     96     99     1
      3     16     1
    182    187     1
     47     71     1
     18     21     1
    129    143     1
    151    170     1
     22     39     1
    125    129     1
    174    175     1
    186    191     1
    144    165     1
     79     80     1
    125    128     1
     60     86     1
     13     14     1
    110    111     1
     22     23     1
    101    102     1
    152    174     1
      6     31     1
      8     15     1
     15     43     1
     32     33     1
    110    126     1
    117    118     1
     37     41     1
     62     65     1
    140    166     1
     52     78     1
      2      5     1
     50     78     1
    138    163     1
     66     84     1
     49     52     1
     63    100     1
    138    161     1
     86     87     1
     46     49     1
     20     55     1
    152    168     1
     91    118     1
      8     33     1
    146    163     1
     93     96     1
      5      8     1
     81     84     1
    107    144     1
    110    127     1
    147    167     1
      7     10     1
      2     15     1
    185    187     1
    139    148     1
     19     39     1
    147    175     1
    135    159     1
    120    121     1
    104    132     1
    154    172     1
     50     88     1
    147    162     1
    169    171     1
    133    136     1
      6     34     1
     16     44     1
     67     81     1
    137    157     1
     20     24     1
    138    141     1
     67     80     1
    108    130     1
      8     11     1
    150    174     1
     59     74     1
     89     92     1
    109    144     1
    151    171     1
    139    164     1
    151    167     1
     12     34     1
     46     73     1
     37     38     1
     94    132     1
     35     36     1
     91    104     1
    125    126     1
    154    155     1
    151    175     1
    173    186     1
    111    124     1
     89    113     1
    112    123     1
    108    143     1
     66     83     1
     37     39     1
    102    103     1
    185    190     1
     10     31     1
    148    174     1
     95    118     1
    152    156     1
    186    189     1
    185    191     1
     14     15     1
    136    147     1
     81     83     1
    125    127     1
    182    192     1
     66     82     1
     37     56     1
    184    191     1
      2     29     1
     25     29     1
     94     99     1
     76     77     1
    105    113     1
    104    107     1
     97    102     1
     17     43     1
     90    117     1
      7     16     1
    153    155     1
      6     44     1
     96    122     1
     81     82     1
    148    168     1
     92    132     1
    104    124     1
     97    100     1
     15     18     1
    107    129     1
      9     14     1
    110    146     1
    106    112     1
    107    128     1
    141    144     1
    149    175     1
    155    168     1
    135    148     1
     64    101     1
    103    106     1
     49     58     1
     50     75     1
     94     97     1
    102    119     1
     16     19     1
    137    148     1
     10    178     1
    147    150     1
     49     60     1
     59     67     1
    140    147     1
     58     75     1
     64     80     1
     95    104     1
     23     36     1
     65     67     1
     53     58     1
    152    186     1
     62     81     1
     66    102     1
     94    119     1
    150    156     1
     21     41     1
    109    129     1
     59     87     1
     92    103     1
      3     28     1
    102    121     1
    106    109     1
      3     26     1
    149    157     1
     17     20     1
     48     88     1
    100    121     1
     51     54     1
     46     88     1
     12     33     1
    138    156     1
     51     76     1
      1      4     1
    134    161     1
     56     77     1
    139    142     1
    142    145     1
     61     67     1
     49     69     1
     85    101     1
    134    147     1
     13    177     1
     19     35     1
     18     24     1
    145    146     1
     24     35     1
    153    173     1
    184    196     1
    183    188     1
    163    164     1
     47     60     1
     23     37     1
    185    189     1
     61     87     1
    107    126     1
    110    142     1
     64     68     1
      3     30     1
    129    145     1
    184    189     1
    135    160     1
    146    147     1
    186    192     1
    112    113     1
      7     12     1
     24     25     1
      3     27     1
     50     68     1
     22     54     1
     15     23     1
    144    166     1
      2     44     1
    137    140     1
     95    120     1
    109    111     1
    149    155     1
    100    122     1
     59     62     1
     53     56     1
    107    127     1
     51     60     1
     52     77     1
      6     24     1
    153    187     1
     63     84     1
     94    122     1
     59     79     1
     50     53     1
    154    170     1
      5     14     1
    182    197     1
     95    113     1
    186    196     1
    143    164     1
     91    115     1
     45     48     1
     95    100     1
     15     30     1
     60     63     1

[ angles ]
;    ai     aj     ak funct         c0         c1         c2         c3
      1      2      3     1   110.3538806 544.678275
      2      1     26     1   107.6607822 425.669015
      2      1     27     1   107.6607822 425.669015
      2      1     28     1   107.6607822 425.669015
      2      3      4     1   126.8062420 484.492885
      2      3     25     1   126.8062420 484.492885
      3      4      5     1   126.8062420 484.492885
      3      4     29     1   129.1835930 285.070775
      3     25     15     1   126.8062420 484.492885
      3     25     44     1   129.1835930 285.070775
      4      3     25     1   126.8062420 484.492885
      4      5      6     1   126.8062420 484.492885
      4      5     30     1   129.1835930 285.070775
      5      4     29     1   129.1835930 285.070775
      5      6      7     1   126.8062420 484.492885
      5      6     15     1   126.8062420 484.492885
      6      5     30     1   129.1835930 285.070775
      6      7      8     1   126.8062420 484.492885
      6      7     14     1   126.8062420 484.492885
      6     15     16     1   126.8062420 484.492885
      6     15     25     1   126.8062420 484.492885
      7      6     15     1   126.8062420 484.492885
      7      8      9     1   126.8062420 484.492885
      7      8     31     1   129.1835930 285.070775
      7     14     11     1   126.8062420 484.492885
      7     14     34     1   129.1835930 285.070775
      8      7     14     1   126.8062420 484.492885
      8      9     10     1   126.8062420 484.492885
      8      9     32     1   129.1835930 285.070775
      9      8     31     1   129.1835930 285.070775
      9     10     11     1   126.8062420 484.492885
      9     10     33     1   129.1835930 285.070775
     10      9     32     1   129.1835930 285.070775
     10     11     12     1   126.8062420 484.492885
     10     11     14     1   126.8062420 484.492885
     11     10     33     1   129.1835930 285.070775
     11     12     13     1   126.8062420 484.492885
     11     12    178     1   126.8062420 484.492885
     11     14     34     1   129.1835930 285.070775
     12     11     14     1   126.8062420 484.492885
     12    178    177     1   110.3538806 544.678275
     13     12    178     1   127.4691416 1685.413543
     15     16     17     1   126.8062420 484.492885
     15     16     24     1   126.8062420 484.492885
     15     25     44     1   129.1835930 285.070775
     16     15     25     1   126.8062420 484.492885
     16     17     18     1   126.8062420 484.492885
     16     17     35     1   129.1835930 285.070775
     16     24     23     1   126.8062420 484.492885
     16     24     43     1   129.1835930 285.070775
     17     16     24     1   126.8062420 484.492885
     17     18     19     1   126.8062420 484.492885
     17     18     36     1   129.1835930 285.070775
     18     17     35     1   129.1835930 285.070775
     18     19     20     1   126.8062420 484.492885
     18     19     23     1   126.8062420 484.492885
     19     18     36     1   129.1835930 285.070775
     19     20     21     1   107.6607822 425.669015
     19     20     22     1   107.6607822 425.669015
     19     20     37     1   107.6607822 425.669015
     19     23     24     1   126.8062420 484.492885
     19     23     42     1   129.1835930 285.070775
     20     19     23     1   126.8062420 484.492885
     20     21     38     1   107.6607822 425.669015
     20     21     39     1   107.6607822 425.669015
     20     21     40     1   107.6607822 425.669015
     20     22     41     1   115.5071328 530.901283
     20     22     56     1   117.3465571 463.769802
     21     20     22     1   107.6607822 425.669015
     21     20     37     1   107.6607822 425.669015
     22     20     37     1   107.6607822 425.669015
     22     56     55     1   126.8062420 484.492885
     22     56     57     1   126.8062420 484.492885
     23     24     43     1   129.1835930 285.070775
     24     23     42     1   129.1835930 285.070775
     26      1     27     1   115.6031000 408.161690
     26      1     28     1   115.6031000 408.161690
     27      1     28     1   115.6031000 408.161690
     38     21     39     1   115.6031000 408.161690
     38     21     40     1   115.6031000 408.161690
     39     21     40     1   115.6031000 408.161690
     41     22     56     1   115.5071328 530.901283
     45     46     47     1   110.3538806 544.678275
     46     45     70     1   107.6607822 425.669015
     46     45     71     1   107.6607822 425.669015
     46     45     72     1   107.6607822 425.669015
     46     47     48     1   126.8062420 484.492885
     46     47     69     1   126.8062420 484.492885
     47     48     49     1   126.8062420 484.492885
     47     48     73     1   129.1835930 285.070775
     47     69     59     1   126.8062420 484.492885
     47     69     88     1   129.1835930 285.070775
     48     47     69     1   126.8062420 484.492885
     48     49     50     1   126.8062420 484.492885
     48     49     74     1   129.1835930 285.070775
     49     48     73     1   129.1835930 285.070775
     49     50     51     1   126.8062420 484.492885
     49     50     59     1   126.8062420 484.492885
     50     49     74     1   129.1835930 285.070775
     50     51     52     1   126.8062420 484.492885
     50     51     58     1   126.8062420 484.492885
     50     59     60     1   126.8062420 484.492885
     50     59     69     1   126.8062420 484.492885
     51     50     59     1   126.8062420 484.492885
     51     52     53     1   126.8062420 484.492885
     51     52     75     1   129.1835930 285.070775
     51     58     55     1   126.8062420 484.492885
     51     58     78     1   129.1835930 285.070775
     52     51     58     1   126.8062420 484.492885
     52     53     54     1   126.8062420 484.492885
     52     53     76     1   129.1835930 285.070775
     53     52     75     1   129.1835930 285.070775
     53     54     55     1   126.8062420 484.492885
     53     54     77     1   129.1835930 285.070775
     54     53     76     1   129.1835930 285.070775
     54     55     56     1   126.8062420 484.492885
     54     55     58     1   126.8062420 484.492885
     55     54     77     1   129.1835930 285.070775
     55     56     57     1   126.8062420 484.492885
     55     58     78     1   129.1835930 285.070775
     56     55     58     1   126.8062420 484.492885
     59     60     61     1   126.8062420 484.492885
     59     60     68     1   126.8062420 484.492885
     59     69     88     1   129.1835930 285.070775
     60     59     69     1   126.8062420 484.492885
     60     61     62     1   126.8062420 484.492885
     60     61     79     1   129.1835930 285.070775
     60     68     67     1   126.8062420 484.492885
     60     68     87     1   129.1835930 285.070775
     61     60     68     1   126.8062420 484.492885
     61     62     63     1   126.8062420 484.492885
     61     62     80     1   129.1835930 285.070775
     62     61     79     1   129.1835930 285.070775
     62     63     64     1   126.8062420 484.492885
     62     63     67     1   126.8062420 484.492885
     63     62     80     1   129.1835930 285.070775
     63     64     65     1   107.6607822 425.669015
     63     64     66     1   107.6607822 425.669015
     63     64     81     1   107.6607822 425.669015
     63     67     68     1   126.8062420 484.492885
     63     67     86     1   129.1835930 285.070775
     64     63     67     1   126.8062420 484.492885
     64     65     82     1   107.6607822 425.669015
     64     65     83     1   107.6607822 425.669015
     64     65     84     1   107.6607822 425.669015
     64     66     85     1   115.5071328 530.901283
     64     66    100     1   117.3465571 463.769802
     65     64     66     1   107.6607822 425.669015
     65     64     81     1   107.6607822 425.669015
     66     64     81     1   107.6607822 425.669015
     66    100     99     1   126.8062420 484.492885
     66    100    101     1   126.8062420 484.492885
     67     68     87     1   129.1835930 285.070775
     68     67     86     1   129.1835930 285.070775
     70     45     71     1   115.6031000 408.161690
     70     45     72     1   115.6031000 408.161690
     71     45     72     1   115.6031000 408.161690
     82     65     83     1   115.6031000 408.161690
     82     65     84     1   115.6031000 408.161690
     83     65     84     1   115.6031000 408.161690
     85     66    100     1   115.5071328 530.901283
     89     90     91     1   110.3538806 544.678275
     90     89    114     1   107.6607822 425.669015
     90     89    115     1   107.6607822 425.669015
     90     89    116     1   107.6607822 425.669015
     90     91     92     1   126.8062420 484.492885
     90     91    113     1   126.8062420 484.492885
     91     92     93     1   126.8062420 484.492885
     91     92    117     1   129.1835930 285.070775
     91    113    103     1   126.8062420 484.492885
     91    113    132     1   129.1835930 285.070775
     92     91    113     1   126.8062420 484.492885
     92     93     94     1   126.8062420 484.492885
     92     93    118     1   129.1835930 285.070775
     93     92    117     1   129.1835930 285.070775
     93     94     95     1   126.8062420 484.492885
     93     94    103     1   126.8062420 484.492885
     94     93    118     1   129.1835930 285.070775
     94     95     96     1   126.8062420 484.492885
     94     95    102     1   126.8062420 484.492885
     94    103    104     1   126.8062420 484.492885
     94    103    113     1   126.8062420 484.492885
     95     94    103     1   126.8062420 484.492885
     95     96     97     1   126.8062420 484.492885
     95     96    119     1   129.1835930 285.070775
     95    102     99     1   126.8062420 484.492885
     95    102    122     1   129.1835930 285.070775
     96     95    102     1   126.8062420 484.492885
     96     97     98     1   126.8062420 484.492885
     96     97    120     1   129.1835930 285.070775
     97     96    119     1   129.1835930 285.070775
     97     98     99     1   126.8062420 484.492885
     97     98    121     1   129.1835930 285.070775
     98     97    120     1   129.1835930 285.070775
     98     99    100     1   126.8062420 484.492885
     98     99    102     1   126.8062420 484.492885
     99     98    121     1   129.1835930 285.070775
     99    100    101     1   126.8062420 484.492885
     99    102    122     1   129.1835930 285.070775
    100     99    102     1   126.8062420 484.492885
    103    104    105     1   126.8062420 484.492885
    103    104    112     1   126.8062420 484.492885
    103    113    132     1   129.1835930 285.070775
    104    103    113     1   126.8062420 484.492885
    104    105    106     1   126.8062420 484.492885
    104    105    123     1   129.1835930 285.070775
    104    112    111     1   126.8062420 484.492885
    104    112    131     1   129.1835930 285.070775
    105    104    112     1   126.8062420 484.492885
    105    106    107     1   126.8062420 484.492885
    105    106    124     1   129.1835930 285.070775
    106    105    123     1   129.1835930 285.070775
    106    107    108     1   126.8062420 484.492885
    106    107    111     1   126.8062420 484.492885
    107    106    124     1   129.1835930 285.070775
    107    108    109     1   107.6607822 425.669015
    107    108    110     1   107.6607822 425.669015
    107    108    125     1   107.6607822 425.669015
    107    111    112     1   126.8062420 484.492885
    107    111    130     1   129.1835930 285.070775
    108    107    111     1   126.8062420 484.492885
    108    109    126     1   107.6607822 425.669015
    108    109    127     1   107.6607822 425.669015
    108    109    128     1   107.6607822 425.669015
    108    110    129     1   115.5071328 530.901283
    108    110    144     1   117.3465571 463.769802
    109    108    110     1   107.6607822 425.669015
    109    108    125     1   107.6607822 425.669015
    110    108    125     1   107.6607822 425.669015
    110    144    143     1   126.8062420 484.492885
    110    144    145     1   126.8062420 484.492885
    111    112    131     1   129.1835930 285.070775
    112    111    130     1   129.1835930 285.070775
    114     89    115     1   115.6031000 408.161690
    114     89    116     1   115.6031000 408.161690
    115     89    116     1   115.6031000 408.161690
    126    109    127     1   115.6031000 408.161690
    126    109    128     1   115.6031000 408.161690
    127    109    128     1   115.6031000 408.161690
    129    110    144     1   115.5071328 530.901283
    133    134    135     1   110.3538806 544.678275
    134    133    158     1   107.6607822 425.669015
    134    133    159     1   107.6607822 425.669015
    134    133    160     1   107.6607822 425.669015
    134    135    136     1   126.8062420 484.492885
    134    135    157     1   126.8062420 484.492885
    135    136    137     1   126.8062420 484.492885
    135    136    161     1   129.1835930 285.070775
    135    157    147     1   126.8062420 484.492885
    135    157    176     1   129.1835930 285.070775
    136    135    157     1   126.8062420 484.492885
    136    137    138     1   126.8062420 484.492885
    136    137    162     1   129.1835930 285.070775
    137    136    161     1   129.1835930 285.070775
    137    138    139     1   126.8062420 484.492885
    137    138    147     1   126.8062420 484.492885
    138    137    162     1   129.1835930 285.070775
    138    139    140     1   126.8062420 484.492885
    138    139    146     1   126.8062420 484.492885
    138    147    148     1   126.8062420 484.492885
    138    147    157     1   126.8062420 484.492885
    139    138    147     1   126.8062420 484.492885
    139    140    141     1   126.8062420 484.492885
    139    140    163     1   129.1835930 285.070775
    139    146    143     1   126.8062420 484.492885
    139    146    166     1   129.1835930 285.070775
    140    139    146     1   126.8062420 484.492885
    140    141    142     1   126.8062420 484.492885
    140    141    164     1   129.1835930 285.070775
    141    140    163     1   129.1835930 285.070775
    141    142    143     1   126.8062420 484.492885
    141    142    165     1   129.1835930 285.070775
    142    141    164     1   129.1835930 285.070775
    142    143    144     1   126.8062420 484.492885
    142    143    146     1   126.8062420 484.492885
    143    142    165     1   129.1835930 285.070775
    143    144    145     1   126.8062420 484.492885
    143    146    166     1   129.1835930 285.070775
    144    143    146     1   126.8062420 484.492885
    147    148    149     1   126.8062420 484.492885
    147    148    156     1   126.8062420 484.492885
    147    157    176     1   129.1835930 285.070775
    148    147    157     1   126.8062420 484.492885
    148    149    150     1   126.8062420 484.492885
    148    149    167     1   129.1835930 285.070775
    148    156    155     1   126.8062420 484.492885
    148    156    175     1   129.1835930 285.070775
    149    148    156     1   126.8062420 484.492885
    149    150    151     1   126.8062420 484.492885
    149    150    168     1   129.1835930 285.070775
    150    149    167     1   129.1835930 285.070775
    150    151    152     1   126.8062420 484.492885
    150    151    155     1   126.8062420 484.492885
    151    150    168     1   129.1835930 285.070775
    151    152    153     1   107.6607822 425.669015
    151    152    154     1   107.6607822 425.669015
    151    152    169     1   107.6607822 425.669015
    151    155    156     1   126.8062420 484.492885
    151    155    174     1   129.1835930 285.070775
    152    151    155     1   126.8062420 484.492885
    152    153    170     1   107.6607822 425.669015
    152    153    171     1   107.6607822 425.669015
    152    153    172     1   107.6607822 425.669015
    152    154    173     1   115.5071328 530.901283
    152    154    187     1   117.3465571 463.769802
    153    152    154     1   107.6607822 425.669015
    153    152    169     1   107.6607822 425.669015
    154    152    169     1   107.6607822 425.669015
    154    187    186     1   126.8062420 484.492885
    154    187    188     1   126.8062420 484.492885
    155    156    175     1   129.1835930 285.070775
    156    155    174     1   129.1835930 285.070775
    158    133    159     1   115.6031000 408.161690
    158    133    160     1   115.6031000 408.161690
    159    133    160     1   115.6031000 408.161690
    170    153    171     1   115.6031000 408.161690
    170    153    172     1   115.6031000 408.161690
    171    153    172     1   115.6031000 408.161690
    173    154    187     1   115.5071328 530.901283
    178    177    179     1   107.6607822 425.669015
    178    177    180     1   107.6607822 425.669015
    178    177    181     1   107.6607822 425.669015
    179    177    180     1   115.6031000 408.161690
    179    177    181     1   115.6031000 408.161690
    180    177    181     1   115.6031000 408.161690
    182    183    184     1   107.6607822 425.669015
    182    183    185     1   107.6607822 425.669015
    182    183    186     1   107.6607822 425.669015
    183    182    189     1   107.6607822 425.669015
    183    182    190     1   107.6607822 425.669015
    183    182    191     1   107.6607822 425.669015
    183    184    192     1   107.6607822 425.669015
    183    184    193     1   107.6607822 425.669015
    183    184    194     1   107.6607822 425.669015
    183    185    195     1   107.6607822 425.669015
    183    185    196     1   107.6607822 425.669015
    183    185    197     1   107.6607822 425.669015
    183    186    187     1   110.3538806 544.678275
    184    183    185     1   107.6607822 425.669015
    184    183    186     1   107.6607822 425.669015
    185    183    186     1   107.6607822 425.669015
    186    187    188     1   127.4691416 1685.413543
    189    182    190     1   115.6031000 408.161690
    189    182    191     1   115.6031000 408.161690
    190    182    191     1   115.6031000 408.161690
    192    184    193     1   115.6031000 408.161690
    192    184    194     1   115.6031000 408.161690
    193    184    194     1   115.6031000 408.161690
    195    185    196     1   115.6031000 408.161690
    195    185    197     1   115.6031000 408.161690
    196    185    197     1   115.6031000 408.161690

[ dihedrals ]
;    ai     aj     ak     al funct         c0         c1         c2         c3         c4         c5
      1      2      3      4     1  180.0000000  6.4108617  2
      1      2      3     25     1  180.0000000  6.4108617  2
      2      3      4      5     1  180.0000000  15.3215155  2
      2      3      4     29     1  180.0000000  15.3215155  2
      2      3     25     15     1  180.0000000  15.3215155  2
      2      3     25     44     1  180.0000000  15.3215155  2
      3      2      1     26     1  0.0000000  0.1982205  3
      3      2      1     27     1  0.0000000  0.1982205  3
      3      2      1     28     1  0.0000000  0.1982205  3
      3      4      5      6     1  180.0000000  15.3215155  2
      3      4      5     30     1  180.0000000  15.3215155  2
      3     25     15      6     1  180.0000000  15.3215155  2
      3     25     15     16     1  180.0000000  15.3215155  2
      4      3     25     15     1  180.0000000  15.3215155  2
      4      3     25     44     1  180.0000000  15.3215155  2
      4      5      6      7     1  180.0000000  15.3215155  2
      4      5      6     15     1  180.0000000  15.3215155  2
      5      4      3     25     1  180.0000000  15.3215155  2
      5      6      7      8     1  180.0000000  4.8669776  2
      5      6      7     14     1  180.0000000  4.8669776  2
      5      6     15     16     1  180.0000000  15.3215155  2
      5      6     15     25     1  180.0000000  15.3215155  2
      6      5      4     29     1  180.0000000  15.3215155  2
      6      7      8      9     1  180.0000000  15.3215155  2
      6      7      8     31     1  180.0000000  15.3215155  2
      6      7     14     11     1  180.0000000  15.3215155  2
      6      7     14     34     1  180.0000000  15.3215155  2
      6     15     16     17     1  180.0000000  4.8669776  2
      6     15     16     24     1  180.0000000  4.8669776  2
      6     15     25     44     1  180.0000000  15.3215155  2
      7      6      5     30     1  180.0000000  15.3215155  2
      7      6     15     16     1  180.0000000  15.3215155  2
      7      6     15     25     1  180.0000000  15.3215155  2
      7      8      9     10     1  180.0000000  15.3215155  2
      7      8      9     32     1  180.0000000  15.3215155  2
      7     14     11     10     1  180.0000000  15.3215155  2
      7     14     11     12     1  180.0000000  15.3215155  2
      8      7      6     15     1  180.0000000  4.8669776  2
      8      7     14     11     1  180.0000000  15.3215155  2
      8      7     14     34     1  180.0000000  15.3215155  2
      8      9     10     11     1  180.0000000  15.3215155  2
      8      9     10     33     1  180.0000000  15.3215155  2
      9      8      7     14     1  180.0000000  15.3215155  2
      9     10     11     12     1  180.0000000  15.3215155  2
      9     10     11     14     1  180.0000000  15.3215155  2
     10      9      8     31     1  180.0000000  15.3215155  2
     10     11     12     13     1  180.0000000  4.1731909  2
     10     11     12    178     1  180.0000000  4.1731909  2
     10     11     14     34     1  180.0000000  15.3215155  2
     11     10      9     32     1  180.0000000  15.3215155  2
     11     12    178    177     1  180.0000000  11.6309081  2
     12     11     10     33     1  180.0000000  15.3215155  2
     12     11     14     34     1  180.0000000  15.3215155  2
     12    178    177    179     1  0.0000000  0.1982205  3
     12    178    177    180     1  0.0000000  0.1982205  3
     12    178    177    181     1  0.0000000  0.1982205  3
     13     12     11     14     1  180.0000000  4.1731909  2
     13     12    178    177     1  180.0000000  4.8693776  2
     13     12    178    177     1  180.0000000  0.7025718  1
     14      7      6     15     1  180.0000000  4.8669776  2
     14      7      8     31     1  180.0000000  15.3215155  2
     14     11     10     33     1  180.0000000  15.3215155  2
     14     11     12    178     1  180.0000000  4.1731909  2
     15      6      5     30     1  180.0000000  15.3215155  2
     15     16     17     18     1  180.0000000  15.3215155  2
     15     16     17     35     1  180.0000000  15.3215155  2
     15     16     24     23     1  180.0000000  15.3215155  2
     15     16     24     43     1  180.0000000  15.3215155  2
     16     15     25     44     1  180.0000000  15.3215155  2
     16     17     18     19     1  180.0000000  15.3215155  2
     16     17     18     36     1  180.0000000  15.3215155  2
     16     24     23     19     1  180.0000000  15.3215155  2
     16     24     23     42     1  180.0000000  15.3215155  2
     17     16     15     25     1  180.0000000  4.8669776  2
     17     16     24     23     1  180.0000000  15.3215155  2
     17     16     24     43     1  180.0000000  15.3215155  2
     17     18     19     20     1  180.0000000  15.3215155  2
     17     18     19     23     1  180.0000000  15.3215155  2
     18     17     16     24     1  180.0000000  15.3215155  2
     18     19     20     21     1  0.0000000  0.1115010  3
     18     19     20     22     1  0.0000000  0.1115010  3
     18     19     20     37     1  0.0000000  0.1115010  3
     18     19     23     24     1  180.0000000  15.3215155  2
     18     19     23     42     1  180.0000000  15.3215155  2
     19     18     17     35     1  180.0000000  15.3215155  2
     19     20     21     38     1  0.0000000  0.4834079  3
     19     20     21     39     1  0.0000000  0.4834079  3
     19     20     21     40     1  0.0000000  0.4834079  3
     19     20     22     41     1  0.0000000  0.7624859  2
     19     20     22     41     1  0.0000000  0.1243628  3
     19     20     22     56     1  180.0000000  -2.8834993  2
     19     20     22     56     1  0.0000000  1.1413309  1
     19     23     24     43     1  180.0000000  15.3215155  2
     20     19     18     36     1  180.0000000  15.3215155  2
     20     19     23     24     1  180.0000000  15.3215155  2
     20     19     23     42     1  180.0000000  15.3215155  2
     20     22     56     55     1  180.0000000  7.5690543  2
     20     22     56     55     1  0.0000000  -0.2015131  1
     20     22     56     57     1  180.0000000  12.9785537  2
     20     22     56     57     1  0.0000000  -1.7791009  1
     21     20     19     23     1  0.0000000  0.1115010  3
     21     20     22     41     1  0.0000000  0.7624859  2
     21     20     22     41     1  0.0000000  0.1243628  3
     21     20     22     56     1  180.0000000  -0.6228629  4
     21     20     22     56     1  180.0000000  -0.5147696  3
     21     20     22     56     1  0.0000000  1.2298012  2
     21     20     22     56     1  0.0000000  -1.2652947  1
     22     20     19     23     1  0.0000000  0.1115010  3
     22     20     21     38     1  0.0000000  0.4834079  3
     22     20     21     39     1  0.0000000  0.4834079  3
     22     20     21     40     1  0.0000000  0.4834079  3
     22     56     55     54     1  180.0000000  4.1731909  2
     22     56     55     58     1  180.0000000  4.1731909  2
     23     19     18     36     1  180.0000000  15.3215155  2
     23     19     20     37     1  0.0000000  0.1115010  3
     24     16     15     25     1  180.0000000  4.8669776  2
     24     16     17     35     1  180.0000000  15.3215155  2
     25      3      4     29     1  180.0000000  15.3215155  2
     29      4      5     30     1  180.0000000  15.3215155  2
     31      8      9     32     1  180.0000000  15.3215155  2
     32      9     10     33     1  180.0000000  15.3215155  2
     35     17     18     36     1  180.0000000  15.3215155  2
     37     20     21     38     1  0.0000000  0.7999501  3
     37     20     21     39     1  0.0000000  0.7999501  3
     37     20     21     40     1  0.0000000  0.7999501  3
     37     20     22     41     1  0.0000000  0.7624859  2
     37     20     22     41     1  0.0000000  0.1243628  3
     37     20     22     56     1  0.0000000  0.7624859  2
     37     20     22     56     1  0.0000000  0.1243628  3
     41     22     56     55     1  180.0000000  7.5690543  2
     41     22     56     55     1  0.0000000  -0.2015131  1
     41     22     56     57     1  180.0000000  9.8256037  2
     41     22     56     57     1  0.0000000  5.2557574  1
     42     23     24     43     1  180.0000000  15.3215155  2
     45     46     47     48     1  180.0000000  6.4108617  2
     45     46     47     69     1  180.0000000  6.4108617  2
     46     47     48     49     1  180.0000000  15.3215155  2
     46     47     48     73     1  180.0000000  15.3215155  2
     46     47     69     59     1  180.0000000  15.3215155  2
     46     47     69     88     1  180.0000000  15.3215155  2
     47     46     45     70     1  0.0000000  0.1982205  3
     47     46     45     71     1  0.0000000  0.1982205  3
     47     46     45     72     1  0.0000000  0.1982205  3
     47     48     49     50     1  180.0000000  15.3215155  2
     47     48     49     74     1  180.0000000  15.3215155  2
     47     69     59     50     1  180.0000000  15.3215155  2
     47     69     59     60     1  180.0000000  15.3215155  2
     48     47     69     59     1  180.0000000  15.3215155  2
     48     47     69     88     1  180.0000000  15.3215155  2
     48     49     50     51     1  180.0000000  15.3215155  2
     48     49     50     59     1  180.0000000  15.3215155  2
     49     48     47     69     1  180.0000000  15.3215155  2
     49     50     51     52     1  180.0000000  4.8669776  2
     49     50     51     58     1  180.0000000  4.8669776  2
     49     50     59     60     1  180.0000000  15.3215155  2
     49     50     59     69     1  180.0000000  15.3215155  2
     50     49     48     73     1  180.0000000  15.3215155  2
     50     51     52     53     1  180.0000000  15.3215155  2
     50     51     52     75     1  180.0000000  15.3215155  2
     50     51     58     55     1  180.0000000  15.3215155  2
     50     51     58     78     1  180.0000000  15.3215155  2
     50     59     60     61     1  180.0000000  4.8669776  2
     50     59     60     68     1  180.0000000  4.8669776  2
     50     59     69     88     1  180.0000000  15.3215155  2
     51     50     49     74     1  180.0000000  15.3215155  2
     51     50     59     60     1  180.0000000  15.3215155  2
     51     50     59     69     1  180.0000000  15.3215155  2
     51     52     53     54     1  180.0000000  15.3215155  2
     51     52     53     76     1  180.0000000  15.3215155  2
     51     58     55     54     1  180.0000000  15.3215155  2
     51     58     55     56     1  180.0000000  15.3215155  2
     52     51     50     59     1  180.0000000  4.8669776  2
     52     51     58     55     1  180.0000000  15.3215155  2
     52     51     58     78     1  180.0000000  15.3215155  2
     52     53     54     55     1  180.0000000  15.3215155  2
     52     53     54     77     1  180.0000000  15.3215155  2
     53     52     51     58     1  180.0000000  15.3215155  2
     53     54     55     56     1  180.0000000  15.3215155  2
     53     54     55     58     1  180.0000000  15.3215155  2
     54     53     52     75     1  180.0000000  15.3215155  2
     54     55     56     57     1  180.0000000  4.1731909  2
     54     55     58     78     1  180.0000000  15.3215155  2
     55     54     53     76     1  180.0000000  15.3215155  2
     56     55     54     77     1  180.0000000  15.3215155  2
     56     55     58     78     1  180.0000000  15.3215155  2
     57     56     55     58     1  180.0000000  4.1731909  2
     58     51     50     59     1  180.0000000  4.8669776  2
     58     51     52     75     1  180.0000000  15.3215155  2
     58     55     54     77     1  180.0000000  15.3215155  2
     59     50     49     74     1  180.0000000  15.3215155  2
     59     60     61     62     1  180.0000000  15.3215155  2
     59     60     61     79     1  180.0000000  15.3215155  2
     59     60     68     67     1  180.0000000  15.3215155  2
     59     60     68     87     1  180.0000000  15.3215155  2
     60     59     69     88     1  180.0000000  15.3215155  2
     60     61     62     63     1  180.0000000  15.3215155  2
     60     61     62     80     1  180.0000000  15.3215155  2
     60     68     67     63     1  180.0000000  15.3215155  2
     60     68     67     86     1  180.0000000  15.3215155  2
     61     60     59     69     1  180.0000000  4.8669776  2
     61     60     68     67     1  180.0000000  15.3215155  2
     61     60     68     87     1  180.0000000  15.3215155  2
     61     62     63     64     1  180.0000000  15.3215155  2
     61     62     63     67     1  180.0000000  15.3215155  2
     62     61     60     68     1  180.0000000  15.3215155  2
     62     63     64     65     1  0.0000000  0.1115010  3
     62     63     64     66     1  0.0000000  0.1115010  3
     62     63     64     81     1  0.0000000  0.1115010  3
     62     63     67     68     1  180.0000000  15.3215155  2
     62     63     67     86     1  180.0000000  15.3215155  2
     63     62     61     79     1  180.0000000  15.3215155  2
     63     64     65     82     1  0.0000000  0.4834079  3
     63     64     65     83     1  0.0000000  0.4834079  3
     63     64     65     84     1  0.0000000  0.4834079  3
     63     64     66     85     1  0.0000000  0.7624859  2
     63     64     66     85     1  0.0000000  0.1243628  3
     63     64     66    100     1  180.0000000  -2.8834993  2
     63     64     66    100     1  0.0000000  1.1413309  1
     63     67     68     87     1  180.0000000  15.3215155  2
     64     63     62     80     1  180.0000000  15.3215155  2
     64     63     67     68     1  180.0000000  15.3215155  2
     64     63     67     86     1  180.0000000  15.3215155  2
     64     66    100     99     1  180.0000000  7.5690543  2
     64     66    100     99     1  0.0000000  -0.2015131  1
     64     66    100    101     1  180.0000000  12.9785537  2
     64     66    100    101     1  0.0000000  -1.7791009  1
     65     64     63     67     1  0.0000000  0.1115010  3
     65     64     66     85     1  0.0000000  0.7624859  2
     65     64     66     85     1  0.0000000  0.1243628  3
     65     64     66    100     1  180.0000000  -0.6228629  4
     65     64     66    100     1  180.0000000  -0.5147696  3
     65     64     66    100     1  0.0000000  1.2298012  2
     65     64     66    100     1  0.0000000  -1.2652947  1
     66     64     63     67     1  0.0000000  0.1115010  3
     66     64     65     82     1  0.0000000  0.4834079  3
     66     64     65     83     1  0.0000000  0.4834079  3
     66     64     65     84     1  0.0000000  0.4834079  3
     66    100     99     98     1  180.0000000  4.1731909  2
     66    100     99    102     1  180.0000000  4.1731909  2
     67     63     62     80     1  180.0000000  15.3215155  2
     67     63     64     81     1  0.0000000  0.1115010  3
     68     60     59     69     1  180.0000000  4.8669776  2
     68     60     61     79     1  180.0000000  15.3215155  2
     69     47     48     73     1  180.0000000  15.3215155  2
     73     48     49     74     1  180.0000000  15.3215155  2
     75     52     53     76     1  180.0000000  15.3215155  2
     76     53     54     77     1  180.0000000  15.3215155  2
     79     61     62     80     1  180.0000000  15.3215155  2
     81     64     65     82     1  0.0000000  0.7999501  3
     81     64     65     83     1  0.0000000  0.7999501  3
     81     64     65     84     1  0.0000000  0.7999501  3
     81     64     66     85     1  0.0000000  0.7624859  2
     81     64     66     85     1  0.0000000  0.1243628  3
     81     64     66    100     1  0.0000000  0.7624859  2
     81     64     66    100     1  0.0000000  0.1243628  3
     85     66    100     99     1  180.0000000  7.5690543  2
     85     66    100     99     1  0.0000000  -0.2015131  1
     85     66    100    101     1  180.0000000  9.8256037  2
     85     66    100    101     1  0.0000000  5.2557574  1
     86     67     68     87     1  180.0000000  15.3215155  2
     89     90     91     92     1  180.0000000  6.4108617  2
     89     90     91    113     1  180.0000000  6.4108617  2
     90     91     92     93     1  180.0000000  15.3215155  2
     90     91     92    117     1  180.0000000  15.3215155  2
     90     91    113    103     1  180.0000000  15.3215155  2
     90     91    113    132     1  180.0000000  15.3215155  2
     91     90     89    114     1  0.0000000  0.1982205  3
     91     90     89    115     1  0.0000000  0.1982205  3
     91     90     89    116     1  0.0000000  0.1982205  3
     91     92     93     94     1  180.0000000  15.3215155  2
     91     92     93    118     1  180.0000000  15.3215155  2
     91    113    103     94     1  180.0000000  15.3215155  2
     91    113    103    104     1  180.0000000  15.3215155  2
     92     91    113    103     1  180.0000000  15.3215155  2
     92     91    113    132     1  180.0000000  15.3215155  2
     92     93     94     95     1  180.0000000  15.3215155  2
     92     93     94    103     1  180.0000000  15.3215155  2
     93     92     91    113     1  180.0000000  15.3215155  2
     93     94     95     96     1  180.0000000  4.8669776  2
     93     94     95    102     1  180.0000000  4.8669776  2
     93     94    103    104     1  180.0000000  15.3215155  2
     93     94    103    113     1  180.0000000  15.3215155  2
     94     93     92    117     1  180.0000000  15.3215155  2
     94     95     96     97     1  180.0000000  15.3215155  2
     94     95     96    119     1  180.0000000  15.3215155  2
     94     95    102     99     1  180.0000000  15.3215155  2
     94     95    102    122     1  180.0000000  15.3215155  2
     94    103    104    105     1  180.0000000  4.8669776  2
     94    103    104    112     1  180.0000000  4.8669776  2
     94    103    113    132     1  180.0000000  15.3215155  2
     95     94     93    118     1  180.0000000  15.3215155  2
     95     94    103    104     1  180.0000000  15.3215155  2
     95     94    103    113     1  180.0000000  15.3215155  2
     95     96     97     98     1  180.0000000  15.3215155  2
     95     96     97    120     1  180.0000000  15.3215155  2
     95    102     99     98     1  180.0000000  15.3215155  2
     95    102     99    100     1  180.0000000  15.3215155  2
     96     95     94    103     1  180.0000000  4.8669776  2
     96     95    102     99     1  180.0000000  15.3215155  2
     96     95    102    122     1  180.0000000  15.3215155  2
     96     97     98     99     1  180.0000000  15.3215155  2
     96     97     98    121     1  180.0000000  15.3215155  2
     97     96     95    102     1  180.0000000  15.3215155  2
     97     98     99    100     1  180.0000000  15.3215155  2
     97     98     99    102     1  180.0000000  15.3215155  2
     98     97     96    119     1  180.0000000  15.3215155  2
     98     99    100    101     1  180.0000000  4.1731909  2
     98     99    102    122     1  180.0000000  15.3215155  2
     99     98     97    120     1  180.0000000  15.3215155  2
    100     99     98    121     1  180.0000000  15.3215155  2
    100     99    102    122     1  180.0000000  15.3215155  2
    101    100     99    102     1  180.0000000  4.1731909  2
    102     95     94    103     1  180.0000000  4.8669776  2
    102     95     96    119     1  180.0000000  15.3215155  2
    102     99     98    121     1  180.0000000  15.3215155  2
    103     94     93    118     1  180.0000000  15.3215155  2
    103    104    105    106     1  180.0000000  15.3215155  2
    103    104    105    123     1  180.0000000  15.3215155  2
    103    104    112    111     1  180.0000000  15.3215155  2
    103    104    112    131     1  180.0000000  15.3215155  2
    104    103    113    132     1  180.0000000  15.3215155  2
    104    105    106    107     1  180.0000000  15.3215155  2
    104    105    106    124     1  180.0000000  15.3215155  2
    104    112    111    107     1  180.0000000  15.3215155  2
    104    112    111    130     1  180.0000000  15.3215155  2
    105    104    103    113     1  180.0000000  4.8669776  2
    105    104    112    111     1  180.0000000  15.3215155  2
    105    104    112    131     1  180.0000000  15.3215155  2
    105    106    107    108     1  180.0000000  15.3215155  2
    105    106    107    111     1  180.0000000  15.3215155  2
    106    105    104    112     1  180.0000000  15.3215155  2
    106    107    108    109     1  0.0000000  0.1115010  3
    106    107    108    110     1  0.0000000  0.1115010  3
    106    107    108    125     1  0.0000000  0.1115010  3
    106    107    111    112     1  180.0000000  15.3215155  2
    106    107    111    130     1  180.0000000  15.3215155  2
    107    106    105    123     1  180.0000000  15.3215155  2
    107    108    109    126     1  0.0000000  0.4834079  3
    107    108    109    127     1  0.0000000  0.4834079  3
    107    108    109    128     1  0.0000000  0.4834079  3
    107    108    110    129     1  0.0000000  0.7624859  2
    107    108    110    129     1  0.0000000  0.1243628  3
    107    108    110    144     1  180.0000000  -2.8834993  2
    107    108    110    144     1  0.0000000  1.1413309  1
    107    111    112    131     1  180.0000000  15.3215155  2
    108    107    106    124     1  180.0000000  15.3215155  2
    108    107    111    112     1  180.0000000  15.3215155  2
    108    107    111    130     1  180.0000000  15.3215155  2
    108    110    144    143     1  180.0000000  7.5690543  2
    108    110    144    143     1  0.0000000  -0.2015131  1
    108    110    144    145     1  180.0000000  12.9785537  2
    108    110    144    145     1  0.0000000  -1.7791009  1
    109    108    107    111     1  0.0000000  0.1115010  3
    109    108    110    129     1  0.0000000  0.7624859  2
    109    108    110    129     1  0.0000000  0.1243628  3
    109    108    110    144     1  180.0000000  -0.6228629  4
    109    108    110    144     1  180.0000000  -0.5147696  3
    109    108    110    144     1  0.0000000  1.2298012  2
    109    108    110    144     1  0.0000000  -1.2652947  1
    110    108    107    111     1  0.0000000  0.1115010  3
    110    108    109    126     1  0.0000000  0.4834079  3
    110    108    109    127     1  0.0000000  0.4834079  3
    110    108    109    128     1  0.0000000  0.4834079  3
    110    144    143    142     1  180.0000000  4.1731909  2
    110    144    143    146     1  180.0000000  4.1731909  2
    111    107    106    124     1  180.0000000  15.3215155  2
    111    107    108    125     1  0.0000000  0.1115010  3
    112    104    103    113     1  180.0000000  4.8669776  2
    112    104    105    123     1  180.0000000  15.3215155  2
    113     91     92    117     1  180.0000000  15.3215155  2
    117     92     93    118     1  180.0000000  15.3215155  2
    119     96     97    120     1  180.0000000  15.3215155  2
    120     97     98    121     1  180.0000000  15.3215155  2
    123    105    106    124     1  180.0000000  15.3215155  2
    125    108    109    126     1  0.0000000  0.7999501  3
    125    108    109    127     1  0.0000000  0.7999501  3
    125    108    109    128     1  0.0000000  0.7999501  3
    125    108    110    129     1  0.0000000  0.7624859  2
    125    108    110    129     1  0.0000000  0.1243628  3
    125    108    110    144     1  0.0000000  0.7624859  2
    125    108    110    144     1  0.0000000  0.1243628  3
    129    110    144    143     1  180.0000000  7.5690543  2
    129    110    144    143     1  0.0000000  -0.2015131  1
    129    110    144    145     1  180.0000000  9.8256037  2
    129    110    144    145     1  0.0000000  5.2557574  1
    130    111    112    131     1  180.0000000  15.3215155  2
    133    134    135    136     1  180.0000000  6.4108617  2
    133    134    135    157     1  180.0000000  6.4108617  2
    134    135    136    137     1  180.0000000  15.3215155  2
    134    135    136    161     1  180.0000000  15.3215155  2
    134    135    157    147     1  180.0000000  15.3215155  2
    134    135    157    176     1  180.0000000  15.3215155  2
    135    134    133    158     1  0.0000000  0.1982205  3
    135    134    133    159     1  0.0000000  0.1982205  3
    135    134    133    160     1  0.0000000  0.1982205  3
    135    136    137    138     1  180.0000000  15.3215155  2
    135    136    137    162     1  180.0000000  15.3215155  2
    135    157    147    138     1  180.0000000  15.3215155  2
    135    157    147    148     1  180.0000000  15.3215155  2
    136    135    157    147     1  180.0000000  15.3215155  2
    136    135    157    176     1  180.0000000  15.3215155  2
    136    137    138    139     1  180.0000000  15.3215155  2
    136    137    138    147     1  180.0000000  15.3215155  2
    137    136    135    157     1  180.0000000  15.3215155  2
    137    138    139    140     1  180.0000000  4.8669776  2
    137    138    139    146     1  180.0000000  4.8669776  2
    137    138    147    148     1  180.0000000  15.3215155  2
    137    138    147    157     1  180.0000000  15.3215155  2
    138    137    136    161     1  180.0000000  15.3215155  2
    138    139    140    141     1  180.0000000  15.3215155  2
    138    139    140    163     1  180.0000000  15.3215155  2
    138    139    146    143     1  180.0000000  15.3215155  2
    138    139    146    166     1  180.0000000  15.3215155  2
    138    147    148    149     1  180.0000000  4.8669776  2
    138    147    148    156     1  180.0000000  4.8669776  2
    138    147    157    176     1  180.0000000  15.3215155  2
    139    138    137    162     1  180.0000000  15.3215155  2
    139    138    147    148     1  180.0000000  15.3215155  2
    139    138    147    157     1  180.0000000  15.3215155  2
    139    140    141    142     1  180.0000000  15.3215155  2
    139    140    141    164     1  180.0000000  15.3215155  2
    139    146    143    142     1  180.0000000  15.3215155  2
    139    146    143    144     1  180.0000000  15.3215155  2
    140    139    138    147     1  180.0000000  4.8669776  2
    140    139    146    143     1  180.0000000  15.3215155  2
    140    139    146    166     1  180.0000000  15.3215155  2
    140    141    142    143     1  180.0000000  15.3215155  2
    140    141    142    165     1  180.0000000  15.3215155  2
    141    140    139    146     1  180.0000000  15.3215155  2
    141    142    143    144     1  180.0000000  15.3215155  2
    141    142    143    146     1  180.0000000  15.3215155  2
    142    141    140    163     1  180.0000000  15.3215155  2
    142    143    144    145     1  180.0000000  4.1731909  2
    142    143    146    166     1  180.0000000  15.3215155  2
    143    142    141    164     1  180.0000000  15.3215155  2
    144    143    142    165     1  180.0000000  15.3215155  2
    144    143    146    166     1  180.0000000  15.3215155  2
    145    144    143    146     1  180.0000000  4.1731909  2
    146    139    138    147     1  180.0000000  4.8669776  2
    146    139    140    163     1  180.0000000  15.3215155  2
    146    143    142    165     1  180.0000000  15.3215155  2
    147    138    137    162     1  180.0000000  15.3215155  2
    147    148    149    150     1  180.0000000  15.3215155  2
    147    148    149    167     1  180.0000000  15.3215155  2
    147    148    156    155     1  180.0000000  15.3215155  2
    147    148    156    175     1  180.0000000  15.3215155  2
    148    147    157    176     1  180.0000000  15.3215155  2
    148    149    150    151     1  180.0000000  15.3215155  2
    148    149    150    168     1  180.0000000  15.3215155  2
    148    156    155    151     1  180.0000000  15.3215155  2
    148    156    155    174     1  180.0000000  15.3215155  2
    149    148    147    157     1  180.0000000  4.8669776  2
    149    148    156    155     1  180.0000000  15.3215155  2
    149    148    156    175     1  180.0000000  15.3215155  2
    149    150    151    152     1  180.0000000  15.3215155  2
    149    150    151    155     1  180.0000000  15.3215155  2
    150    149    148    156     1  180.0000000  15.3215155  2
    150    151    152    153     1  0.0000000  0.1115010  3
    150    151    152    154     1  0.0000000  0.1115010  3
    150    151    152    169     1  0.0000000  0.1115010  3
    150    151    155    156     1  180.0000000  15.3215155  2
    150    151    155    174     1  180.0000000  15.3215155  2
    151    150    149    167     1  180.0000000  15.3215155  2
    151    152    153    170     1  0.0000000  0.4834079  3
    151    152    153    171     1  0.0000000  0.4834079  3
    151    152    153    172     1  0.0000000  0.4834079  3
    151    152    154    173     1  0.0000000  0.7624859  2
    151    152    154    173     1  0.0000000  0.1243628  3
    151    152    154    187     1  180.0000000  -2.8834993  2
    151    152    154    187     1  0.0000000  1.1413309  1
    151    155    156    175     1  180.0000000  15.3215155  2
    152    151    150    168     1  180.0000000  15.3215155  2
    152    151    155    156     1  180.0000000  15.3215155  2
    152    151    155    174     1  180.0000000  15.3215155  2
    152    154    187    186     1  180.0000000  7.5690543  2
    152    154    187    186     1  0.0000000  -0.2015131  1
    152    154    187    188     1  180.0000000  7.5690543  2
    152    154    187    188     1  0.0000000  -0.2015131  1
    153    152    151    155     1  0.0000000  0.1115010  3
    153    152    154    173     1  0.0000000  0.7624859  2
    153    152    154    173     1  0.0000000  0.1243628  3
    153    152    154    187     1  180.0000000  -0.6228629  4
    153    152    154    187     1  180.0000000  -0.5147696  3
    153    152    154    187     1  0.0000000  1.2298012  2
    153    152    154    187     1  0.0000000  -1.2652947  1
    154    152    151    155     1  0.0000000  0.1115010  3
    154    152    153    170     1  0.0000000  0.4834079  3
    154    152    153    171     1  0.0000000  0.4834079  3
    154    152    153    172     1  0.0000000  0.4834079  3
    154    187    186    183     1  180.0000000  11.6309081  2
    155    151    150    168     1  180.0000000  15.3215155  2
    155    151    152    169     1  0.0000000  0.1115010  3
    156    148    147    157     1  180.0000000  4.8669776  2
    156    148    149    167     1  180.0000000  15.3215155  2
    157    135    136    161     1  180.0000000  15.3215155  2
    161    136    137    162     1  180.0000000  15.3215155  2
    163    140    141    164     1  180.0000000  15.3215155  2
    164    141    142    165     1  180.0000000  15.3215155  2
    167    149    150    168     1  180.0000000  15.3215155  2
    169    152    153    170     1  0.0000000  0.7999501  3
    169    152    153    171     1  0.0000000  0.7999501  3
    169    152    153    172     1  0.0000000  0.7999501  3
    169    152    154    173     1  0.0000000  0.7624859  2
    169    152    154    173     1  0.0000000  0.1243628  3
    169    152    154    187     1  0.0000000  0.7624859  2
    169    152    154    187     1  0.0000000  0.1243628  3
    173    154    187    186     1  180.0000000  7.5690543  2
    173    154    187    186     1  0.0000000  -0.2015131  1
    173    154    187    188     1  180.0000000  2.0338395  2
    173    154    187    188     1  0.0000000  3.7308670  1
    174    155    156    175     1  180.0000000  15.3215155  2
    182    183    184    192     1  0.0000000  0.4354138  3
    182    183    184    193     1  0.0000000  0.4354138  3
    182    183    184    194     1  0.0000000  0.4354138  3
    182    183    185    195     1  0.0000000  0.4354138  3
    182    183    185    196     1  0.0000000  0.4354138  3
    182    183    185    197     1  0.0000000  0.4354138  3
    182    183    186    187     1  0.0000000  0.8026052  3
    182    183    186    187     1  180.0000000  3.8501921  1
    183    186    187    188     1  180.0000000  4.8693776  2
    183    186    187    188     1  180.0000000  0.7025718  1
    184    183    182    189     1  0.0000000  0.4354138  3
    184    183    182    190     1  0.0000000  0.4354138  3
    184    183    182    191     1  0.0000000  0.4354138  3
    184    183    185    195     1  0.0000000  0.4354138  3
    184    183    185    196     1  0.0000000  0.4354138  3
    184    183    185    197     1  0.0000000  0.4354138  3
    184    183    186    187     1  0.0000000  0.8026052  3
    184    183    186    187     1  180.0000000  3.8501921  1
    185    183    182    189     1  0.0000000  0.4354138  3
    185    183    182    190     1  0.0000000  0.4354138  3
    185    183    182    191     1  0.0000000  0.4354138  3
    185    183    184    192     1  0.0000000  0.4354138  3
    185    183    184    193     1  0.0000000  0.4354138  3
    185    183    184    194     1  0.0000000  0.4354138  3
    185    183    186    187     1  0.0000000  0.8026052  3
    185    183    186    187     1  180.0000000  3.8501921  1
    186    183    182    189     1  0.0000000  0.4667359  3
    186    183    182    189     1  0.0000000  1.4361539  1
    186    183    182    190     1  0.0000000  0.4667359  3
    186    183    182    190     1  0.0000000  1.4361539  1
    186    183    182    191     1  0.0000000  0.4667359  3
    186    183    182    191     1  0.0000000  1.4361539  1
    186    183    184    192     1  0.0000000  0.4667359  3
    186    183    184    192     1  0.0000000  1.4361539  1
    186    183    184    193     1  0.0000000  0.4667359  3
    186    183    184    193     1  0.0000000  1.4361539  1
    186    183    184    194     1  0.0000000  0.4667359  3
    186    183    184    194     1  0.0000000  1.4361539  1
    186    183    185    195     1  0.0000000  0.4667359  3
    186    183    185    195     1  0.0000000  1.4361539  1
    186    183    185    196     1  0.0000000  0.4667359  3
    186    183    185    196     1  0.0000000  1.4361539  1
    186    183    185    197     1  0.0000000  0.4667359  3
    186    183    185    197     1  0.0000000  1.4361539  1
    151    150    152    155     4  180.0000000  1.5341333  2
     69     47     59     88     4  180.0000000  1.5341333  2
     68     87     60     67     4  180.0000000  1.5341333  2
    151    155    150    152     4  180.0000000  1.5341333  2
      7     14      6      8     4  180.0000000  1.5341333  2
     56     55     57     22     4  180.0000000  1.5341333  2
     98     97     99    121     4  180.0000000  1.5341333  2
     15     25      6     16     4  180.0000000  1.5341333  2
    105    104    106    123     4  180.0000000  1.5341333  2
     51     58     50     52     4  180.0000000  1.5341333  2
     47     46     48     69     4  180.0000000  1.5341333  2
    102     95     99    122     4  180.0000000  1.5341333  2
     97     98    120     96     4  180.0000000  1.5341333  2
     25     15     44      3     4  180.0000000  1.5341333  2
    140    141    163    139     4  180.0000000  1.5341333  2
    142    141    143    165     4  180.0000000  1.5341333  2
     93    118     92     94     4  180.0000000  1.5341333  2
    142    165    141    143     4  180.0000000  1.5341333  2
     14     34      7     11     4  180.0000000  1.5341333  2
     98    121     97     99     4  180.0000000  1.5341333  2
    154    152    173    187     4  180.0000000  1.3946667  2
    147    138    148    157     4  180.0000000  1.5341333  2
    106    105    107    124     4  180.0000000  1.5341333  2
    112    131    104    111     4  180.0000000  1.5341333  2
    136    137    161    135     4  180.0000000  1.5341333  2
    147    157    138    148     4  180.0000000  1.5341333  2
     15      6     16     25     4  180.0000000  1.5341333  2
      6      7     15      5     4  180.0000000  1.5341333  2
    150    149    151    168     4  180.0000000  1.5341333  2
     55     56     58     54     4  180.0000000  1.5341333  2
     23     24     42     19     4  180.0000000  1.5341333  2
     91    113     90     92     4  180.0000000  1.5341333  2
     62     63     80     61     4  180.0000000  1.5341333  2
    137    138    162    136     4  180.0000000  1.5341333  2
     12     13    178     11     4  180.0000000  14.6440000  2
    135    134    136    157     4  180.0000000  1.5341333  2
     94    103     93     95     4  180.0000000  1.5341333  2
     61     60     62     79     4  180.0000000  1.5341333  2
     60     59     61     68     4  180.0000000  1.5341333  2
    149    167    148    150     4  180.0000000  1.5341333  2
     91     92    113     90     4  180.0000000  1.5341333  2
    139    146    138    140     4  180.0000000  1.5341333  2
    110    129    144    108     4  180.0000000  1.3946667  2
    111    107    112    130     4  180.0000000  1.5341333  2
    157    135    147    176     4  180.0000000  1.5341333  2
     51     50     52     58     4  180.0000000  1.5341333  2
     16     15     17     24     4  180.0000000  1.5341333  2
     10      9     11     33     4  180.0000000  1.5341333  2
     47     69     46     48     4  180.0000000  1.5341333  2
    110    144    108    129     4  180.0000000  1.3946667  2
     24     16     23     43     4  180.0000000  1.5341333  2
     52     75     51     53     4  180.0000000  1.5341333  2
     14     11     34      7     4  180.0000000  1.5341333  2
     50     59     49     51     4  180.0000000  1.5341333  2
     25     44      3     15     4  180.0000000  1.5341333  2
    137    136    138    162     4  180.0000000  1.5341333  2
      9      8     10     32     4  180.0000000  1.5341333  2
     58     55     78     51     4  180.0000000  1.5341333  2
      6      5      7     15     4  180.0000000  1.5341333  2
      5     30      4      6     4  180.0000000  1.5341333  2
    103    113     94    104     4  180.0000000  1.5341333  2
     18     36     17     19     4  180.0000000  1.5341333  2
    113    132     91    103     4  180.0000000  1.5341333  2
    148    156    147    149     4  180.0000000  1.5341333  2
     52     51     53     75     4  180.0000000  1.5341333  2
     59     60     69     50     4  180.0000000  1.5341333  2
    150    168    149    151     4  180.0000000  1.5341333  2
     23     42     19     24     4  180.0000000  1.5341333  2
     67     86     63     68     4  180.0000000  1.5341333  2
    135    136    157    134     4  180.0000000  1.5341333  2
     24     23     43     16     4  180.0000000  1.5341333  2
    154    187    152    173     4  180.0000000  1.3946667  2
    148    147    149    156     4  180.0000000  1.5341333  2
     55     54     56     58     4  180.0000000  1.5341333  2
     48     47     49     73     4  180.0000000  1.5341333  2
    139    140    146    138     4  180.0000000  1.5341333  2
     93     94    118     92     4  180.0000000  1.5341333  2
      3      4     25      2     4  180.0000000  1.5341333  2
     17     16     18     35     4  180.0000000  1.5341333  2
    111    112    130    107     4  180.0000000  1.5341333  2
     99    102     98    100     4  180.0000000  1.5341333  2
     58     51     55     78     4  180.0000000  1.5341333  2
      8      9     31      7     4  180.0000000  1.5341333  2
    156    148    155    175     4  180.0000000  1.5341333  2
     19     20     23     18     4  180.0000000  1.5341333  2
    144    110    143    145     4  180.0000000  1.5341333  2
     67     68     86     63     4  180.0000000  1.5341333  2
    103     94    104    113     4  180.0000000  1.5341333  2
     50     49     51     59     4  180.0000000  1.5341333  2
     22     20     41     56     4  180.0000000  1.3946667  2
    148    149    156    147     4  180.0000000  1.5341333  2
    104    103    105    112     4  180.0000000  1.5341333  2
     66     64     85    100     4  180.0000000  1.3946667  2
    143    144    146    142     4  180.0000000  1.5341333  2
     95     94     96    102     4  180.0000000  1.5341333  2
    141    164    140    142     4  180.0000000  1.5341333  2
     63     62     64     67     4  180.0000000  1.5341333  2
    106    107    124    105     4  180.0000000  1.5341333  2
    155    174    151    156     4  180.0000000  1.5341333  2
    144    143    145    110     4  180.0000000  1.5341333  2
    136    161    135    137     4  180.0000000  1.5341333  2
     95    102     94     96     4  180.0000000  1.5341333  2
      9     10     32      8     4  180.0000000  1.5341333  2
     63     67     62     64     4  180.0000000  1.5341333  2
      9     32      8     10     4  180.0000000  1.5341333  2
    146    143    166    139     4  180.0000000  1.5341333  2
    146    166    139    143     4  180.0000000  1.5341333  2
     22     41     56     20     4  180.0000000  1.3946667  2
     69     88     47     59     4  180.0000000  1.5341333  2
    112    104    111    131     4  180.0000000  1.5341333  2
     97    120     96     98     4  180.0000000  1.5341333  2
     22     56     20     41     4  180.0000000  1.3946667  2
    154    173    187    152     4  180.0000000  1.3946667  2
     53     54     76     52     4  180.0000000  1.5341333  2
     93     92     94    118     4  180.0000000  1.5341333  2
      5      6     30      4     4  180.0000000  1.5341333  2
     56     57     22     55     4  180.0000000  1.5341333  2
     59     69     50     60     4  180.0000000  1.5341333  2
    151    152    155    150     4  180.0000000  1.5341333  2
    147    148    157    138     4  180.0000000  1.5341333  2
     16     17     24     15     4  180.0000000  1.5341333  2
     51     52     58     50     4  180.0000000  1.5341333  2
     61     79     60     62     4  180.0000000  1.5341333  2
      7      6      8     14     4  180.0000000  1.5341333  2
     48     49     73     47     4  180.0000000  1.5341333  2
     11     12     14     10     4  180.0000000  1.5341333  2
     54     53     55     77     4  180.0000000  1.5341333  2
    140    139    141    163     4  180.0000000  1.5341333  2
    146    139    143    166     4  180.0000000  1.5341333  2
    102     99    122     95     4  180.0000000  1.5341333  2
     49     74     48     50     4  180.0000000  1.5341333  2
    139    138    140    146     4  180.0000000  1.5341333  2
     63     64     67     62     4  180.0000000  1.5341333  2
    107    111    106    108     4  180.0000000  1.5341333  2
    100     99    101     66     4  180.0000000  1.5341333  2
    155    156    174    151     4  180.0000000  1.5341333  2
      8      7      9     31     4  180.0000000  1.5341333  2
    144    145    110    143     4  180.0000000  1.5341333  2
     18     17     19     36     4  180.0000000  1.5341333  2
    105    123    104    106     4  180.0000000  1.5341333  2
     49     50     74     48     4  180.0000000  1.5341333  2
     17     35     16     18     4  180.0000000  1.5341333  2
    141    142    164    140     4  180.0000000  1.5341333  2
     66     85    100     64     4  180.0000000  1.3946667  2
    138    139    147    137     4  180.0000000  1.5341333  2
     99    100    102     98     4  180.0000000  1.5341333  2
    110    108    129    144     4  180.0000000  1.3946667  2
     92    117     91     93     4  180.0000000  1.5341333  2
     19     18     20     23     4  180.0000000  1.5341333  2
      5      4      6     30     4  180.0000000  1.5341333  2
     11     10     12     14     4  180.0000000  1.5341333  2
    142    143    165    141     4  180.0000000  1.5341333  2
     54     77     53     55     4  180.0000000  1.5341333  2
    138    137    139    147     4  180.0000000  1.5341333  2
    187    154    186    188     4  180.0000000  14.6440000  2
     23     19     24     42     4  180.0000000  1.5341333  2
    106    124    105    107     4  180.0000000  1.5341333  2
     59     50     60     69     4  180.0000000  1.5341333  2
     48     73     47     49     4  180.0000000  1.5341333  2
     92     93    117     91     4  180.0000000  1.5341333  2
     54     55     77     53     4  180.0000000  1.5341333  2
     68     67     87     60     4  180.0000000  1.5341333  2
    112    111    131    104     4  180.0000000  1.5341333  2
     67     63     68     86     4  180.0000000  1.5341333  2
     92     91     93    117     4  180.0000000  1.5341333  2
    107    106    108    111     4  180.0000000  1.5341333  2
    105    106    123    104     4  180.0000000  1.5341333  2
    157    176    135    147     4  180.0000000  1.5341333  2
     94     95    103     93     4  180.0000000  1.5341333  2
     96     95     97    119     4  180.0000000  1.5341333  2
    135    157    134    136     4  180.0000000  1.5341333  2
    156    175    148    155     4  180.0000000  1.5341333  2
    141    140    142    164     4  180.0000000  1.5341333  2
      4     29      3      5     4  180.0000000  1.5341333  2
     12    178     11     13     4  180.0000000  14.6440000  2
    111    130    107    112     4  180.0000000  1.5341333  2
     10     11     33      9     4  180.0000000  1.5341333  2
     60     61     68     59     4  180.0000000  1.5341333  2
    138    147    137    139     4  180.0000000  1.5341333  2
     14      7     11     34     4  180.0000000  1.5341333  2
    140    163    139    141     4  180.0000000  1.5341333  2
     17     18     35     16     4  180.0000000  1.5341333  2
    136    135    137    161     4  180.0000000  1.5341333  2
    149    150    167    148     4  180.0000000  1.5341333  2
     19     23     18     20     4  180.0000000  1.5341333  2
     68     60     67     87     4  180.0000000  1.5341333  2
    102    122     95     99     4  180.0000000  1.5341333  2
     95     96    102     94     4  180.0000000  1.5341333  2
     52     53     75     51     4  180.0000000  1.5341333  2
    104    105    112    103     4  180.0000000  1.5341333  2
    156    155    175    148     4  180.0000000  1.5341333  2
     16     24     15     17     4  180.0000000  1.5341333  2
     50     51     59     49     4  180.0000000  1.5341333  2
    104    112    103    105     4  180.0000000  1.5341333  2
     97     96     98    120     4  180.0000000  1.5341333  2
    113    103    132     91     4  180.0000000  1.5341333  2
     94     93     95    103     4  180.0000000  1.5341333  2
    107    108    111    106     4  180.0000000  1.5341333  2
     60     68     59     61     4  180.0000000  1.5341333  2
    100     66     99    101     4  180.0000000  1.5341333  2
     47     48     69     46     4  180.0000000  1.5341333  2
     69     59     88     47     4  180.0000000  1.5341333  2
     53     52     54     76     4  180.0000000  1.5341333  2
     66    100     64     85     4  180.0000000  1.3946667  2
    149    148    150    167     4  180.0000000  1.5341333  2
    103    104    113     94     4  180.0000000  1.5341333  2
    157    147    176    135     4  180.0000000  1.5341333  2
      3      2      4     25     4  180.0000000  1.5341333  2
     96    119     95     97     4  180.0000000  1.5341333  2
    150    151    168    149     4  180.0000000  1.5341333  2
     61     62     79     60     4  180.0000000  1.5341333  2
     55     58     54     56     4  180.0000000  1.5341333  2
     11     14     10     12     4  180.0000000  1.5341333  2
      6     15      5      7     4  180.0000000  1.5341333  2
     53     76     52     54     4  180.0000000  1.5341333  2
    155    151    156    174     4  180.0000000  1.5341333  2
     99     98    100    102     4  180.0000000  1.5341333  2
      4      3      5     29     4  180.0000000  1.5341333  2
      3     25      2      4     4  180.0000000  1.5341333  2
    113     91    103    132     4  180.0000000  1.5341333  2
      4      5     29      3     4  180.0000000  1.5341333  2
     98     99    121     97     4  180.0000000  1.5341333  2
      7      8     14      6     4  180.0000000  1.5341333  2
      8     31      7      9     4  180.0000000  1.5341333  2
     62     61     63     80     4  180.0000000  1.5341333  2
    187    186    188    154     4  180.0000000  14.6440000  2
     49     48     50     74     4  180.0000000  1.5341333  2
    143    142    144    146     4  180.0000000  1.5341333  2
     18     19     36     17     4  180.0000000  1.5341333  2
     58     78     51     55     4  180.0000000  1.5341333  2
    137    162    136    138     4  180.0000000  1.5341333  2
     10     33      9     11     4  180.0000000  1.5341333  2
     15     16     25      6     4  180.0000000  1.5341333  2
     91     90     92    113     4  180.0000000  1.5341333  2
    187    188    154    186     4  180.0000000  14.6440000  2
     96     97    119     95     4  180.0000000  1.5341333  2
     24     43     16     23     4  180.0000000  1.5341333  2
    100    101     66     99     4  180.0000000  1.5341333  2
     12     11     13    178     4  180.0000000  14.6440000  2
     25      3     15     44     4  180.0000000  1.5341333  2
     56     22     55     57     4  180.0000000  1.5341333  2
     62     80     61     63     4  180.0000000  1.5341333  2
    143    146    142    144     4  180.0000000  1.5341333  2


[ moleculetype ]
; Name            nrexcl
TCM          3

[ atoms ]
;   nr       type  resnr residue  atom   cgnr    charge       mass  typeB    chargeB      massB
; residue    1 TCM rtp TCM q 0.0
    1      TCM_0      1    TCM     c1      1 0.22438000   9.994886   ; qtot 0.224380
    2      TCM_1      1    TCM    cl1      2 -0.11463000  35.453200   ; qtot 0.109750
    3      TCM_2      1    TCM    cl2      3 -0.11463000  35.453200   ; qtot -0.004880
    4      TCM_3      1    TCM     h1      4 0.11951000   3.023841   ; qtot 0.114630
    5      TCM_4      1    TCM    cl3      5 -0.11463000  35.453200   ; qtot 0.000000

[ bonds ]
;    ai     aj funct         c0         c1         c2         c3
      1      2     1   0.17948 173885.040698
      1      3     1   0.17948 173885.040698
      1      4     1   0.10929 317186.185379
      1      5     1   0.17948 173885.040698

[ angles ]
;    ai     aj     ak funct         c0         c1         c2         c3
      2      1      3     1   107.6607822 425.669015
      2      1      4     1   107.6607822 425.669015
      2      1      5     1   107.6607822 425.669015
      3      1      4     1   107.6607822 425.669015
      3      1      5     1   107.6607822 425.669015
      4      1      5     1   107.6607822 425.669015

[ system ]
; Name
FOO

[ molecules ]
; Compound       #mols
system1              1
TCM                634
