GRowing Old MAkes el Chrono Sweat
 3367
    1POM     C1    1   3.552   1.904   1.870
    1POM     O2    2   3.420   1.954   1.890
    1POM     C3    3   3.394   2.083   1.852
    1POM     C4    4   3.488   2.178   1.815
    1POM     C5    5   3.447   2.305   1.777
    1POM     C6    6   3.310   2.341   1.772
    1POM     C7    7   3.280   2.482   1.741
    1POM     C8    8   3.238   2.526   1.615
    1POM     C9    9   3.197   2.656   1.592
    1POM    C10   10   3.205   2.750   1.695
    1POM    C11   11   3.262   2.714   1.817
    1POM    C12   12   3.284   2.812   1.927
    1POM    O13   13   3.318   2.777   2.040
    1POM    C14   14   3.297   2.580   1.840
    1POM    C15   15   3.210   2.243   1.804
    1POM    C16   16   3.062   2.262   1.787
    1POM    C17   17   2.984   2.164   1.721
    1POM    C18   18   2.849   2.185   1.687
    1POM    C19   19   2.786   2.306   1.717
    1POM    C20   20   2.650   2.347   1.657
    1POM    C21   21   2.551   2.232   1.634
    1POM    N22   22   2.669   2.432   1.537
    1POM    C23   23   2.859   2.399   1.793
    1POM    C24   24   2.993   2.376   1.828
    1POM    C25   25   3.257   2.116   1.846
    1POM    H26   26   3.546   1.795   1.868
    1POM    H27   27   3.597   1.936   1.775
    1POM    H28   28   3.616   1.934   1.953
    1POM    H29   29   3.595   2.156   1.818
    1POM    H30   30   3.523   2.378   1.751
    1POM    H31   31   3.236   2.456   1.532
    1POM    H32   32   3.158   2.685   1.495
    1POM    H33   33   3.169   2.850   1.676
    1POM    H34   34   3.337   2.551   1.938
    1POM    H35   35   3.029   2.071   1.687
    1POM    H36   36   2.799   2.109   1.627
    1POM    H37   37   2.603   2.414   1.730
    1POM    H38   38   2.454   2.271   1.602
    1POM    H39   39   2.536   2.175   1.726
    1POM    H40   40   2.585   2.163   1.557
    1POM    H41   41   2.737   2.503   1.556
    1POM    H42   42   2.813   2.494   1.822
    1POM    H43   43   3.044   2.453   1.886
    1POM    H44   44   3.187   2.039   1.874
    2POM    C45   45   3.017   1.765   0.748
    2POM    O46   46   3.076   1.894   0.769
    2POM    C47   47   3.042   1.962   0.884
    2POM    C48   48   2.943   1.923   0.973
    2POM    C49   49   2.919   2.001   1.086
    2POM    C50   50   2.996   2.117   1.113
    2POM    C51   51   2.963   2.191   1.235
    2POM    C52   52   3.057   2.200   1.336
    2POM    C53   53   3.045   2.295   1.435
    2POM    C54   54   2.931   2.374   1.444
    2POM    C55   55   2.821   2.340   1.365
    2POM    C56   56   2.683   2.375   1.411
    2POM    O57   57   2.586   2.341   1.344
    2POM    C58   58   2.839   2.255   1.255
    2POM    C59   59   3.103   2.154   1.026
    2POM    C60   60   3.204   2.264   1.056
    2POM    C61   61   3.343   2.240   1.039
    2POM    C62   62   3.442   2.329   1.089
    2POM    C63   63   3.407   2.444   1.160
    2POM    C64   64   3.508   2.528   1.239
    2POM    C65   65   3.642   2.547   1.169
    2POM    N66   66   3.522   2.481   1.379
    2POM    C67   67   3.270   2.474   1.166
    2POM    C68   68   3.172   2.388   1.112
    2POM    C69   69   3.120   2.076   0.910
    2POM    H70   70   3.077   1.714   0.673
    2POM    H71   71   3.018   1.703   0.838
    2POM    H72   72   2.915   1.775   0.711
    2POM    H73   73   2.882   1.834   0.958
    2POM    H74   74   2.841   1.970   1.155
    2POM    H75   75   3.144   2.137   1.335
    2POM    H76   76   3.122   2.301   1.510
    2POM    H77   77   2.927   2.446   1.523
    2POM    H78   78   2.756   2.237   1.187
    2POM    H79   79   3.377   2.146   0.998
    2POM    H80   80   3.546   2.299   1.081
    2POM    H81   81   3.464   2.628   1.249
    2POM    H82   82   3.705   2.619   1.224
    2POM    H83   83   3.629   2.586   1.068
    2POM    H84   84   3.701   2.454   1.162
    2POM    H85   85   3.431   2.468   1.421
    2POM    H86   86   3.236   2.565   1.217
    2POM    H87   87   3.067   2.416   1.122
    2POM    H88   88   3.197   2.101   0.838
    3POM    C89   89   4.028   1.503   1.372
    3POM    O90   90   3.898   1.517   1.428
    3POM    C91   91   3.841   1.640   1.423
    3POM    C92   92   3.897   1.754   1.367
    3POM    C93   93   3.825   1.873   1.363
    3POM    C94   94   3.693   1.882   1.415
    3POM    C95   95   3.621   2.006   1.388
    3POM    C96   96   3.508   1.998   1.307
    3POM    C97   97   3.409   2.093   1.314
    3POM    C98   98   3.435   2.212   1.380
    3POM    C99   99   3.566   2.242   1.418
    3POM   C100  100   3.614   2.382   1.415
    3POM   O101  101   3.732   2.408   1.434
    3POM   C102  102   3.656   2.134   1.433
    3POM   C103  103   3.632   1.765   1.477
    3POM   C104  104   3.491   1.757   1.534
    3POM   C105  105   3.419   1.635   1.544
    3POM   C106  106   3.283   1.627   1.583
    3POM   C107  107   3.209   1.743   1.610
    3POM   C108  108   3.058   1.747   1.630
    3POM   C109  109   2.995   1.621   1.690
    3POM   N110  110   2.987   1.794   1.508
    3POM   C111  111   3.280   1.862   1.607
    3POM   C112  112   3.418   1.868   1.574
    3POM   C113  113   3.712   1.648   1.478
    3POM   H114  114   4.059   1.398   1.385
    3POM   H115  115   4.029   1.525   1.266
    3POM   H116  116   4.100   1.565   1.426
    3POM   H117  117   3.995   1.754   1.321
    3POM   H118  118   3.869   1.959   1.313
    3POM   H119  119   3.494   1.911   1.244
    3POM   H120  120   3.317   2.075   1.262
    3POM   H121  121   3.356   2.287   1.379
    3POM   H122  122   3.754   2.152   1.475
    3POM   H123  123   3.465   1.540   1.515
    3POM   H124  124   3.234   1.530   1.581
    3POM   H125  125   3.039   1.826   1.703
    3POM   H126  126   2.889   1.638   1.713
    3POM   H127  127   3.045   1.593   1.783
    3POM   H128  128   3.000   1.535   1.622
    3POM   H129  129   3.027   1.879   1.476
    3POM   H130  130   3.230   1.957   1.627
    3POM   H131  131   3.464   1.966   1.579
    3POM   H132  132   3.674   1.556   1.521
    4POM   C133  133   3.182   0.977   0.810
    4POM   O134  134   3.230   1.108   0.782
    4POM   C135  135   3.212   1.202   0.878
    4POM   C136  136   3.153   1.182   1.002
    4POM   C137  137   3.144   1.287   1.093
    4POM   C138  138   3.195   1.414   1.063
    4POM   C139  139   3.189   1.517   1.168
    4POM   C140  140   3.308   1.582   1.202
    4POM   C141  141   3.301   1.707   1.259
    4POM   C142  142   3.182   1.760   1.303
    4POM   C143  143   3.070   1.677   1.307
    4POM   C144  144   2.960   1.704   1.404
    4POM   O145  145   2.854   1.643   1.397
    4POM   C146  146   3.071   1.560   1.231
    4POM   C147  147   3.257   1.438   0.935
    4POM   C148  148   3.323   1.568   0.891
    4POM   C149  149   3.435   1.571   0.808
    4POM   C150  150   3.504   1.691   0.778
    4POM   C151  151   3.469   1.810   0.839
    4POM   C152  152   3.550   1.938   0.822
    4POM   C153  153   3.607   1.962   0.683
    4POM   N154  154   3.652   1.958   0.925
    4POM   C155  155   3.356   1.810   0.918
    4POM   C156  156   3.280   1.694   0.936
    4POM   C157  157   3.261   1.329   0.846
    4POM   H158  158   3.205   0.913   0.723
    4POM   H159  159   3.233   0.933   0.897
    4POM   H160  160   3.074   0.977   0.823
    4POM   H161  161   3.113   1.086   1.032
    4POM   H162  162   3.099   1.268   1.191
    4POM   H163  163   3.404   1.546   1.166
    4POM   H164  164   3.394   1.760   1.273
    4POM   H165  165   3.183   1.859   1.348
    4POM   H166  166   2.979   1.502   1.221
    4POM   H167  167   3.477   1.479   0.768
    4POM   H168  168   3.589   1.684   0.712
    4POM   H169  169   3.480   2.021   0.839
    4POM   H170  170   3.649   2.063   0.676
    4POM   H171  171   3.529   1.954   0.607
    4POM   H172  172   3.687   1.892   0.658
    4POM   H173  173   3.664   2.053   0.960
    4POM   H174  174   3.324   1.901   0.969
    4POM   H175  175   3.188   1.704   0.993
    4POM   H176  176   3.305   1.340   0.747
    5CAP   C177  177   3.339   3.009   1.805
    5CAP   O178  178   3.253   2.941   1.897
    5CAP   H179  179   3.419   2.944   1.765
    5CAP   H180  180   3.384   3.094   1.856
    5CAP   H181  181   3.278   3.046   1.722
    6CAP   C182  182   3.800   1.529   0.862
    6CAP   C183  183   3.864   1.664   0.895
    6CAP   C184  184   3.932   1.651   1.030
    6CAP   C185  185   3.962   1.702   0.784
    6CAP   O186  186   3.754   1.760   0.894
    6CAP   C187  187   3.765   1.884   0.945
    6CAP   O188  188   3.862   1.930   1.003
    6CAP   H189  189   3.872   1.446   0.864
    6CAP   H190  190   3.720   1.505   0.933
    6CAP   H191  191   3.753   1.530   0.762
    6CAP   H192  192   3.858   1.636   1.109
    6CAP   H193  193   3.991   1.739   1.056
    6CAP   H194  194   4.001   1.566   1.031
    6CAP   H195  195   3.910   1.717   0.689
    6CAP   H196  196   4.012   1.797   0.807
    6CAP   H197  197   4.038   1.625   0.770
    1TCM     c1  198   4.332   0.347   2.671
    1TCM    cl1  199   4.443   0.470   2.607
    1TCM    cl2  200   4.321   0.363   2.848
    1TCM     h1  201   4.231   0.361   2.626
    1TCM    cl3  202   4.392   0.185   2.630
    1TCM     c1  203   1.930   2.513   4.045
    1TCM    cl1  204   1.938   2.380   3.928
    1TCM    cl2  205   1.919   2.447   4.210
    1TCM     h1  206   2.021   2.576   4.036
    1TCM    cl3  207   1.786   2.612   4.012
    1TCM     c1  208   1.860   2.387   0.960
    1TCM    cl1  209   1.851   2.478   0.807
    1TCM    cl2  210   1.737   2.259   0.959
    1TCM     h1  211   1.961   2.341   0.969
    1TCM    cl3  212   1.831   2.497   1.096
    1TCM     c1  213   2.628   0.587   3.792
    1TCM    cl1  214   2.724   0.441   3.764
    1TCM    cl2  215   2.455   0.548   3.779
    1TCM     h1  216   2.649   0.627   3.893
    1TCM    cl3  217   2.669   0.710   3.670
    1TCM     c1  218   2.105   1.877   2.794
    1TCM    cl1  219   2.206   1.756   2.877
    1TCM    cl2  220   2.123   1.858   2.618
    1TCM     h1  221   1.999   1.863   2.822
    1TCM    cl3  222   2.158   2.040   2.841
    1TCM     c1  223   5.033   1.264   0.558
    1TCM    cl1  224   5.012   1.327   0.723
    1TCM    cl2  225   5.206   1.257   0.519
    1TCM     h1  226   4.989   1.162   0.552
    1TCM    cl3  227   4.951   1.372   0.443
    1TCM     c1  228   2.893   0.879   2.553
    1TCM    cl1  229   2.744   0.965   2.508
    1TCM    cl2  230   2.910   0.732   2.454
    1TCM     h1  231   2.981   0.945   2.536
    1TCM    cl3  232   2.885   0.833   2.725
    1TCM     c1  233   3.816   4.092   4.720
    1TCM    cl1  234   3.708   4.192   4.819
    1TCM    cl2  235   3.914   4.197   4.614
    1TCM     h1  236   3.883   4.034   4.786
    1TCM    cl3  237   3.720   3.981   4.620
    1TCM     c1  238   0.777   4.169   3.470
    1TCM    cl1  239   0.602   4.159   3.438
    1TCM    cl2  240   0.857   4.026   3.400
    1TCM     h1  241   0.818   4.261   3.423
    1TCM    cl3  242   0.805   4.173   3.645
    1TCM     c1  243   3.948   1.310   2.591
    1TCM    cl1  244   4.015   1.182   2.695
    1TCM    cl2  245   3.924   1.246   2.427
    1TCM     h1  246   3.851   1.344   2.632
    1TCM    cl3  247   4.062   1.446   2.585
    1TCM     c1  248   4.913   3.115   4.447
    1TCM    cl1  249   4.993   2.968   4.508
    1TCM    cl2  250   5.008   3.257   4.495
    1TCM     h1  251   4.907   3.110   4.336
    1TCM    cl3  252   4.750   3.126   4.516
    1TCM     c1  253   0.571   2.905   1.454
    1TCM    cl1  254   0.597   2.908   1.279
    1TCM    cl2  255   0.500   2.749   1.501
    1TCM     h1  256   0.668   2.918   1.506
    1TCM    cl3  257   0.460   3.036   1.500
    1TCM     c1  258   1.435   1.956   2.374
    1TCM    cl1  259   1.599   1.970   2.442
    1TCM    cl2  260   1.440   1.852   2.229
    1TCM     h1  261   1.368   1.911   2.449
    1TCM    cl3  262   1.375   2.117   2.329
    1TCM     c1  263   4.297   4.434   0.713
    1TCM    cl1  264   4.214   4.508   0.574
    1TCM    cl2  265   4.181   4.339   0.808
    1TCM     h1  266   4.378   4.368   0.676
    1TCM    cl3  267   4.366   4.562   0.816
    1TCM     c1  268   2.570   5.252   3.814
    1TCM    cl1  269   2.417   5.339   3.838
    1TCM    cl2  270   2.701   5.338   3.898
    1TCM     h1  271   2.561   5.149   3.855
    1TCM    cl3  272   2.607   5.244   3.640
    1TCM     c1  273   2.881   1.931   3.081
    1TCM    cl1  274   2.751   1.821   3.135
    1TCM    cl2  275   2.929   1.888   2.916
    1TCM     h1  276   2.843   2.036   3.083
    1TCM    cl3  277   3.021   1.916   3.190
    1TCM     c1  278   0.680   3.117   5.016
    1TCM    cl1  279   0.647   2.943   5.035
    1TCM    cl2  280   0.574   3.184   4.889
    1TCM     h1  281   0.660   3.169   5.112
    1TCM    cl3  282   0.850   3.140   4.970
    1TCM     c1  283   4.593   3.547   2.164
    1TCM    cl1  284   4.676   3.649   2.044
    1TCM    cl2  285   4.622   3.376   2.126
    1TCM     h1  286   4.632   3.570   2.265
    1TCM    cl3  287   4.418   3.580   2.158
    1TCM     c1  288   5.155   3.678   4.877
    1TCM    cl1  289   5.105   3.664   4.707
    1TCM    cl2  290   5.121   3.843   4.935
    1TCM     h1  291   5.099   3.605   4.938
    1TCM    cl3  292   5.330   3.646   4.890
    1TCM     c1  293   2.152   1.148   3.395
    1TCM    cl1  294   2.192   1.079   3.554
    1TCM    cl2  295   2.302   1.191   3.310
    1TCM     h1  296   2.096   1.074   3.335
    1TCM    cl3  297   2.053   1.294   3.417
    1TCM     c1  298   1.325   2.027   2.702
    1TCM    cl1  299   1.331   2.146   2.570
    1TCM    cl2  300   1.309   2.111   2.858
    1TCM     h1  301   1.238   1.959   2.688
    1TCM    cl3  302   1.475   1.931   2.702
    1TCM     c1  303   3.131   4.756   4.839
    1TCM    cl1  304   3.295   4.698   4.876
    1TCM    cl2  305   3.011   4.658   4.927
    1TCM     h1  306   3.121   4.862   4.869
    1TCM    cl3  307   3.101   4.741   4.664
    1TCM     c1  308   2.710   2.479   2.058
    1TCM    cl1  309   2.708   2.312   1.995
    1TCM    cl2  310   2.719   2.475   2.235
    1TCM     h1  311   2.798   2.532   2.017
    1TCM    cl3  312   2.561   2.563   2.008
    1TCM     c1  313   2.753   2.031   5.066
    1TCM    cl1  314   2.630   1.954   4.962
    1TCM    cl2  315   2.742   1.963   5.230
    1TCM     h1  316   2.853   2.011   5.024
    1TCM    cl3  317   2.724   2.206   5.072
    1TCM     c1  318   4.897   0.298   1.326
    1TCM    cl1  319   4.744   0.380   1.362
    1TCM    cl2  320   5.013   0.330   1.457
    1TCM     h1  321   4.880   0.189   1.317
    1TCM    cl3  322   4.963   0.361   1.173
    1TCM     c1  323   1.656   2.367   4.303
    1TCM    cl1  324   1.579   2.286   4.164
    1TCM    cl2  325   1.562   2.332   4.451
    1TCM     h1  326   1.759   2.330   4.316
    1TCM    cl3  327   1.659   2.543   4.275
    1TCM     c1  328   3.959   3.265   1.897
    1TCM    cl1  329   3.811   3.224   1.987
    1TCM    cl2  330   3.945   3.204   1.730
    1TCM     h1  331   3.972   3.375   1.895
    1TCM    cl3  332   4.099   3.189   1.976
    1TCM     c1  333   1.095   0.921   3.638
    1TCM    cl1  334   1.143   1.033   3.768
    1TCM    cl2  335   1.024   1.014   3.503
    1TCM     h1  336   1.184   0.866   3.601
    1TCM    cl3  337   0.975   0.806   3.700
    1TCM     c1  338   0.702   5.198   4.106
    1TCM    cl1  339   0.768   5.072   4.213
    1TCM    cl2  340   0.690   5.136   3.940
    1TCM     h1  341   0.602   5.228   4.142
    1TCM    cl3  342   0.810   5.340   4.108
    1TCM     c1  343   2.787   3.606   3.450
    1TCM    cl1  344   2.895   3.471   3.489
    1TCM    cl2  345   2.779   3.718   3.589
    1TCM     h1  346   2.826   3.660   3.361
    1TCM    cl3  347   2.624   3.544   3.415
    1TCM     c1  348   0.410   0.882   2.410
    1TCM    cl1  349   0.332   1.010   2.506
    1TCM    cl2  350   0.356   0.893   2.241
    1TCM     h1  351   0.520   0.894   2.415
    1TCM    cl3  352   0.365   0.723   2.476
    1TCM     c1  353   4.995   1.993   2.108
    1TCM    cl1  354   5.102   2.083   1.998
    1TCM    cl2  355   4.830   1.992   2.042
    1TCM     h1  356   5.031   1.889   2.118
    1TCM    cl3  357   4.994   2.072   2.268
    1TCM     c1  358   1.268   3.531   2.261
    1TCM    cl1  359   1.191   3.476   2.110
    1TCM    cl2  360   1.402   3.422   2.303
    1TCM     h1  361   1.307   3.634   2.247
    1TCM    cl3  362   1.147   3.530   2.392
    1TCM     c1  363   3.917   1.433   2.072
    1TCM    cl1  364   3.875   1.605   2.076
    1TCM    cl2  365   4.058   1.408   1.967
    1TCM     h1  366   3.940   1.398   2.175
    1TCM    cl3  367   3.779   1.339   2.008
    1TCM     c1  368   0.865   2.298   2.164
    1TCM    cl1  369   0.916   2.178   2.284
    1TCM    cl2  370   0.726   2.236   2.072
    1TCM     h1  371   0.837   2.392   2.215
    1TCM    cl3  372   1.000   2.330   2.052
    1TCM     c1  373   2.161   3.824   1.727
    1TCM    cl1  374   2.101   3.724   1.862
    1TCM    cl2  375   2.100   3.759   1.574
    1TCM     h1  376   2.125   3.928   1.740
    1TCM    cl3  377   2.339   3.821   1.726
    1TCM     c1  378   1.020   4.529   1.115
    1TCM    cl1  379   0.992   4.513   1.290
    1TCM    cl2  380   1.071   4.696   1.079
    1TCM     h1  381   1.098   4.458   1.083
    1TCM    cl3  382   0.869   4.494   1.028
    1TCM     c1  383   0.232   1.299   4.806
    1TCM    cl1  384   0.370   1.247   4.707
    1TCM    cl2  385   0.286   1.329   4.973
    1TCM     h1  386   0.189   1.392   4.764
    1TCM    cl3  387   0.108   1.171   4.807
    1TCM     c1  388   1.333   3.877   4.781
    1TCM    cl1  389   1.429   3.981   4.888
    1TCM    cl2  390   1.402   3.880   4.617
    1TCM     h1  391   1.334   3.773   4.820
    1TCM    cl3  392   1.165   3.937   4.776
    1TCM     c1  393   0.327   0.755   4.835
    1TCM    cl1  394   0.252   0.616   4.753
    1TCM    cl2  395   0.469   0.701   4.927
    1TCM     h1  396   0.358   0.830   4.759
    1TCM    cl3  397   0.209   0.829   4.945
    1TCM     c1  398   1.102   4.290   2.254
    1TCM    cl1  399   1.015   4.331   2.403
    1TCM    cl2  400   1.253   4.384   2.245
    1TCM     h1  401   1.126   4.181   2.254
    1TCM    cl3  402   1.000   4.327   2.113
    1TCM     c1  403   3.687   4.097   0.157
    1TCM    cl1  404   3.807   3.986   0.226
    1TCM    cl2  405   3.768   4.244   0.099
    1TCM     h1  406   3.635   4.048   0.073
    1TCM    cl3  407   3.568   4.142   0.282
    1TCM     c1  408   1.677   1.511   1.438
    1TCM    cl1  409   1.502   1.532   1.415
    1TCM    cl2  410   1.763   1.646   1.361
    1TCM     h1  411   1.700   1.510   1.546
    1TCM    cl3  412   1.729   1.358   1.364
    1TCM     c1  413   3.481   0.678   2.296
    1TCM    cl1  414   3.378   0.762   2.178
    1TCM    cl2  415   3.378   0.592   2.413
    1TCM     h1  416   3.545   0.604   2.242
    1TCM    cl3  417   3.583   0.795   2.381
    1TCM     c1  418   0.137   0.637   1.987
    1TCM    cl1  419   0.308   0.592   1.964
    1TCM    cl2  420   0.065   0.677   1.829
    1TCM     h1  421   0.083   0.552   2.032
    1TCM    cl3  422   0.127   0.778   2.094
    1TCM     c1  423   3.964   2.648   0.885
    1TCM    cl1  424   3.846   2.781   0.881
    1TCM    cl2  425   3.888   2.500   0.821
    1TCM     h1  426   4.052   2.675   0.823
    1TCM    cl3  427   4.016   2.620   1.053
    1TCM     c1  428   4.174   0.100   0.776
    1TCM    cl1  429   4.305   0.026   0.681
    1TCM    cl2  430   4.216   0.096   0.948
    1TCM     h1  431   4.159   0.205   0.743
    1TCM    cl3  432   4.023   0.008   0.750
    1TCM     c1  433   4.928   1.781   3.417
    1TCM    cl1  434   4.969   1.942   3.478
    1TCM    cl2  435   4.999   1.758   3.256
    1TCM     h1  436   4.968   1.704   3.486
    1TCM    cl3  437   4.751   1.764   3.407
    1TCM     c1  438   2.006   3.564   2.460
    1TCM    cl1  439   1.875   3.635   2.558
    1TCM    cl2  440   2.081   3.430   2.549
    1TCM     h1  441   1.964   3.526   2.365
    1TCM    cl3  442   2.128   3.689   2.426
    1TCM     c1  443   0.580   0.263   4.872
    1TCM    cl1  444   0.469   0.178   4.762
    1TCM    cl2  445   0.710   0.153   4.923
    1TCM     h1  446   0.623   0.351   4.820
    1TCM    cl3  447   0.490   0.319   5.015
    1TCM     c1  448   4.651   0.711   4.531
    1TCM    cl1  449   4.542   0.592   4.605
    1TCM    cl2  450   4.773   0.763   4.649
    1TCM     h1  451   4.701   0.666   4.443
    1TCM    cl3  452   4.556   0.853   4.478
    1TCM     c1  453   3.868   4.723   1.591
    1TCM    cl1  454   4.006   4.756   1.485
    1TCM    cl2  455   3.922   4.722   1.760
    1TCM     h1  456   3.791   4.802   1.578
    1TCM    cl3  457   3.798   4.564   1.551
    1TCM     c1  458   4.502   4.563   4.898
    1TCM    cl1  459   4.544   4.577   5.070
    1TCM    cl2  460   4.434   4.717   4.840
    1TCM     h1  461   4.593   4.538   4.839
    1TCM    cl3  462   4.381   4.434   4.876
    1TCM     c1  463   4.016   4.298   1.758
    1TCM    cl1  464   4.105   4.355   1.615
    1TCM    cl2  465   3.844   4.336   1.740
    1TCM     h1  466   4.030   4.188   1.768
    1TCM    cl3  467   4.080   4.379   1.903
    1TCM     c1  468   3.859   4.032   3.390
    1TCM    cl1  469   3.911   3.944   3.536
    1TCM    cl2  470   3.974   4.002   3.258
    1TCM     h1  471   3.758   3.997   3.360
    1TCM    cl3  472   3.854   4.207   3.425
    1TCM     c1  473   0.369   0.903   3.419
    1TCM    cl1  474   0.536   0.844   3.416
    1TCM    cl2  475   0.279   0.835   3.281
    1TCM     h1  476   0.320   0.871   3.513
    1TCM    cl3  477   0.368   1.081   3.408
    1TCM     c1  478   3.052   2.653   2.852
    1TCM    cl1  479   2.943   2.512   2.853
    1TCM    cl2  480   3.056   2.726   3.014
    1TCM     h1  481   3.154   2.620   2.823
    1TCM    cl3  482   2.992   2.772   2.734
    1TCM     c1  483   3.735   2.418   2.449
    1TCM    cl1  484   3.666   2.560   2.366
    1TCM    cl2  485   3.864   2.471   2.559
    1TCM     h1  486   3.655   2.367   2.506
    1TCM    cl3  487   3.803   2.306   2.328
    1TCM     c1  488   4.997   0.670   2.449
    1TCM    cl1  489   4.939   0.552   2.568
    1TCM    cl2  490   4.928   0.631   2.289
    1TCM     h1  491   4.965   0.772   2.479
    1TCM    cl3  492   5.174   0.664   2.440
    1TCM     c1  493   0.442   0.143   3.078
    1TCM    cl1  494   0.304   0.031   3.082
    1TCM    cl2  495   0.413   0.268   2.955
    1TCM     h1  496   0.454   0.191   3.177
    1TCM    cl3  497   0.590   0.053   3.037
    1TCM     c1  498   5.237   3.729   1.331
    1TCM    cl1  499   5.113   3.668   1.443
    1TCM    cl2  500   5.161   3.836   1.211
    1TCM     h1  501   5.314   3.786   1.388
    1TCM    cl3  502   5.314   3.592   1.248
    1TCM     c1  503   1.523   3.270   0.955
    1TCM    cl1  504   1.427   3.329   0.817
    1TCM    cl2  505   1.414   3.222   1.086
    1TCM     h1  506   1.584   3.183   0.923
    1TCM    cl3  507   1.630   3.401   1.011
    1TCM     c1  508   2.772   4.405   4.167
    1TCM    cl1  509   2.689   4.256   4.217
    1TCM    cl2  510   2.814   4.394   3.995
    1TCM     h1  511   2.705   4.492   4.183
    1TCM    cl3  512   2.920   4.426   4.263
    1TCM     c1  513   4.654   1.598   0.345
    1TCM    cl1  514   4.824   1.585   0.297
    1TCM    cl2  515   4.641   1.702   0.489
    1TCM     h1  516   4.595   1.643   0.262
    1TCM    cl3  517   4.590   1.436   0.383
    1TCM     c1  518   2.879   4.735   4.411
    1TCM    cl1  519   2.831   4.793   4.250
    1TCM    cl2  520   2.970   4.863   4.495
    1TCM     h1  521   2.788   4.710   4.470
    1TCM    cl3  522   2.981   4.591   4.395
    1TCM     c1  523   3.770   4.157   2.078
    1TCM    cl1  524   3.691   4.036   2.182
    1TCM    cl2  525   3.710   4.141   1.911
    1TCM     h1  526   3.747   4.259   2.116
    1TCM    cl3  527   3.946   4.132   2.081
    1TCM     c1  528   0.850   0.252   3.529
    1TCM    cl1  529   0.736   0.344   3.630
    1TCM    cl2  530   0.846   0.080   3.576
    1TCM     h1  531   0.822   0.262   3.422
    1TCM    cl3  532   1.015   0.316   3.553
    1TCM     c1  533   0.969   1.452   2.630
    1TCM    cl1  534   1.015   1.316   2.734
    1TCM    cl2  535   0.948   1.395   2.463
    1TCM     h1  536   0.874   1.496   2.667
    1TCM    cl3  537   1.097   1.576   2.635
    1TCM     c1  538   1.170   0.762   2.373
    1TCM    cl1  539   1.307   0.856   2.310
    1TCM    cl2  540   1.229   0.642   2.490
    1TCM     h1  541   1.099   0.830   2.423
    1TCM    cl3  542   1.088   0.679   2.239
    1TCM     c1  543   2.910   1.177   3.828
    1TCM    cl1  544   2.813   1.286   3.727
    1TCM    cl2  545   2.867   1.199   3.999
    1TCM     h1  546   2.891   1.072   3.798
    1TCM    cl3  547   3.083   1.214   3.805
    1TCM     c1  548   4.639   5.135   1.258
    1TCM    cl1  549   4.527   5.117   1.395
    1TCM    cl2  550   4.619   5.297   1.186
    1TCM     h1  551   4.743   5.123   1.294
    1TCM    cl3  552   4.603   5.012   1.135
    1TCM     c1  553   0.518   4.431   0.322
    1TCM    cl1  554   0.661   4.426   0.216
    1TCM    cl2  555   0.569   4.467   0.488
    1TCM     h1  556   0.448   4.509   0.286
    1TCM    cl3  557   0.436   4.273   0.318
    1TCM     c1  558   2.416   3.456   2.208
    1TCM    cl1  559   2.572   3.418   2.286
    1TCM    cl2  560   2.314   3.547   2.322
    1TCM     h1  561   2.434   3.518   2.118
    1TCM    cl3  562   2.335   3.305   2.162
    1TCM     c1  563   0.343   3.204   1.080
    1TCM    cl1  564   0.271   3.116   0.943
    1TCM    cl2  565   0.381   3.089   1.210
    1TCM     h1  566   0.435   3.255   1.047
    1TCM    cl3  567   0.226   3.324   1.140
    1TCM     c1  568   3.363   3.636   1.042
    1TCM    cl1  569   3.435   3.688   0.888
    1TCM    cl2  570   3.465   3.692   1.177
    1TCM     h1  571   3.261   3.680   1.052
    1TCM    cl3  572   3.352   3.459   1.046
    1TCM     c1  573   3.244   2.979   4.939
    1TCM    cl1  574   3.192   3.013   4.773
    1TCM    cl2  575   3.108   3.005   5.050
    1TCM     h1  576   3.279   2.874   4.946
    1TCM    cl3  577   3.378   3.088   4.983
    1TCM     c1  578   1.133   1.268   1.843
    1TCM    cl1  579   1.281   1.279   1.746
    1TCM    cl2  580   1.167   1.316   2.011
    1TCM     h1  581   1.056   1.336   1.800
    1TCM    cl3  582   1.072   1.101   1.840
    1TCM     c1  583   1.965   2.646   4.811
    1TCM    cl1  584   1.961   2.723   4.651
    1TCM    cl2  585   1.998   2.770   4.935
    1TCM     h1  586   1.867   2.599   4.832
    1TCM    cl3  587   2.092   2.523   4.815
    1TCM     c1  588   2.167   4.099   4.074
    1TCM    cl1  589   2.257   4.052   4.220
    1TCM    cl2  590   2.266   4.208   3.976
    1TCM     h1  591   2.142   4.008   4.016
    1TCM    cl3  592   2.017   4.182   4.122
    1TCM     c1  593   0.803   0.333   0.148
    1TCM    cl1  594   0.699   0.266   0.021
    1TCM    cl2  595   0.703   0.386   0.285
    1TCM     h1  596   0.875   0.256   0.182
    1TCM    cl3  597   0.893   0.473   0.083
    1TCM     c1  598   1.090   0.594   2.903
    1TCM    cl1  599   1.051   0.430   2.960
    1TCM    cl2  600   1.124   0.699   3.042
    1TCM     h1  601   1.180   0.590   2.837
    1TCM    cl3  602   0.952   0.660   2.812
    1TCM     c1  603   4.529   3.142   3.227
    1TCM    cl1  604   4.415   3.212   3.344
    1TCM    cl2  605   4.476   3.180   3.062
    1TCM     h1  606   4.630   3.184   3.244
    1TCM    cl3  607   4.535   2.965   3.249
    1TCM     c1  608   3.165   4.751   5.274
    1TCM    cl1  609   3.173   4.586   5.340
    1TCM    cl2  610   3.096   4.746   5.110
    1TCM     h1  611   3.101   4.814   5.339
    1TCM    cl3  612   3.329   4.821   5.268
    1TCM     c1  613   1.849   0.133   3.587
    1TCM    cl1  614   1.929   0.290   3.604
    1TCM    cl2  615   1.971   0.007   3.555
    1TCM     h1  616   1.795   0.108   3.680
    1TCM    cl3  617   1.734   0.139   3.451
    1TCM     c1  618   0.914   0.832   4.043
    1TCM    cl1  619   0.895   0.678   3.956
    1TCM    cl2  620   0.937   0.799   4.216
    1TCM     h1  621   1.003   0.886   4.004
    1TCM    cl3  622   0.769   0.932   4.020
    1TCM     c1  623   2.057   5.152   2.400
    1TCM    cl1  624   1.903   5.242   2.397
    1TCM    cl2  625   2.048   5.017   2.285
    1TCM     h1  626   2.140   5.220   2.371
    1TCM    cl3  627   2.085   5.089   2.564
    1TCM     c1  628   1.197   1.243   2.370
    1TCM    cl1  629   1.345   1.243   2.470
    1TCM    cl2  630   1.059   1.188   2.468
    1TCM     h1  631   1.178   1.347   2.334
    1TCM    cl3  632   1.219   1.135   2.231
    1TCM     c1  633   1.603   1.643   0.180
    1TCM    cl1  634   1.649   1.506   0.284
    1TCM    cl2  635   1.578   1.586   0.014
    1TCM     h1  636   1.509   1.688   0.218
    1TCM    cl3  637   1.732   1.765   0.182
    1TCM     c1  638   4.240   3.102   2.470
    1TCM    cl1  639   4.129   3.165   2.347
    1TCM    cl2  640   4.147   3.020   2.598
    1TCM     h1  641   4.311   3.030   2.424
    1TCM    cl3  642   4.332   3.237   2.542
    1TCM     c1  643   2.926   4.863   1.424
    1TCM    cl1  644   2.811   4.996   1.448
    1TCM    cl2  645   3.026   4.897   1.280
    1TCM     h1  646   2.992   4.854   1.513
    1TCM    cl3  647   2.837   4.711   1.400
    1TCM     c1  648   4.314   2.478   3.331
    1TCM    cl1  649   4.345   2.633   3.412
    1TCM    cl2  650   4.218   2.373   3.439
    1TCM     h1  651   4.257   2.496   3.237
    1TCM    cl3  652   4.468   2.399   3.294
    1TCM     c1  653   4.303   0.796   3.683
    1TCM    cl1  654   4.359   0.687   3.813
    1TCM    cl2  655   4.302   0.708   3.529
    1TCM     h1  656   4.201   0.831   3.706
    1TCM    cl3  657   4.413   0.935   3.671
    1TCM     c1  658   4.229   0.965   3.313
    1TCM    cl1  659   4.406   0.953   3.323
    1TCM    cl2  660   4.176   0.929   3.147
    1TCM     h1  661   4.183   0.893   3.383
    1TCM    cl3  662   4.178   1.130   3.356
    1TCM     c1  663   2.098   0.278   3.352
    1TCM    cl1  664   2.189   0.159   3.256
    1TCM    cl2  665   2.172   0.293   3.513
    1TCM     h1  666   2.101   0.377   3.301
    1TCM    cl3  667   1.929   0.226   3.369
    1TCM     c1  668   0.520   4.482   3.680
    1TCM    cl1  669   0.662   4.588   3.662
    1TCM    cl2  670   0.573   4.314   3.704
    1TCM     h1  671   0.461   4.515   3.768
    1TCM    cl3  672   0.419   4.492   3.534
    1TCM     c1  673   0.279   1.961   4.824
    1TCM    cl1  674   0.239   2.099   4.929
    1TCM    cl2  675   0.320   2.020   4.661
    1TCM     h1  676   0.365   1.906   4.866
    1TCM    cl3  677   0.139   1.852   4.813
    1TCM     c1  678   1.090   5.196   5.170
    1TCM    cl1  679   0.951   5.088   5.196
    1TCM    cl2  680   1.076   5.338   5.277
    1TCM     h1  681   1.184   5.142   5.194
    1TCM    cl3  682   1.093   5.250   5.001
    1TCM     c1  683   0.841   2.258   1.264
    1TCM    cl1  684   0.993   2.239   1.355
    1TCM    cl2  685   0.872   2.233   1.090
    1TCM     h1  686   0.767   2.183   1.299
    1TCM    cl3  687   0.776   2.421   1.289
    1TCM     c1  688   4.794   1.683   2.372
    1TCM    cl1  689   4.709   1.810   2.463
    1TCM    cl2  690   4.803   1.730   2.200
    1TCM     h1  691   4.897   1.671   2.412
    1TCM    cl3  692   4.706   1.530   2.387
    1TCM     c1  693   2.916   1.333   2.582
    1TCM    cl1  694   2.898   1.464   2.702
    1TCM    cl2  695   2.881   1.177   2.659
    1TCM     h1  696   2.846   1.350   2.498
    1TCM    cl3  697   3.083   1.333   2.521
    1TCM     c1  698   3.165   0.538   2.679
    1TCM    cl1  699   3.226   0.445   2.540
    1TCM    cl2  700   3.294   0.555   2.800
    1TCM     h1  701   3.133   0.638   2.645
    1TCM    cl3  702   3.027   0.453   2.751
    1TCM     c1  703   2.387   4.684   1.066
    1TCM    cl1  704   2.485   4.793   1.168
    1TCM    cl2  705   2.444   4.694   0.898
    1TCM     h1  706   2.398   4.580   1.103
    1TCM    cl3  707   2.217   4.732   1.074
    1TCM     c1  708   0.581   3.441   4.126
    1TCM    cl1  709   0.466   3.541   4.218
    1TCM    cl2  710   0.577   3.488   3.954
    1TCM     h1  711   0.683   3.455   4.166
    1TCM    cl3  712   0.535   3.270   4.141
    1TCM     c1  713   2.530   0.067   1.658
    1TCM    cl1  714   2.356   0.051   1.695
    1TCM    cl2  715   2.625   0.016   1.799
    1TCM     h1  716   2.555   0.002   1.571
    1TCM    cl3  717   2.567   0.236   1.619
    1TCM     c1  718   2.657   4.941   3.647
    1TCM    cl1  719   2.560   4.886   3.785
    1TCM    cl2  720   2.675   4.809   3.530
    1TCM     h1  721   2.606   5.027   3.598
    1TCM    cl3  722   2.817   4.992   3.704
    1TCM     c1  723   3.673   3.577   4.916
    1TCM    cl1  724   3.725   3.723   4.828
    1TCM    cl2  725   3.539   3.618   5.026
    1TCM     h1  726   3.638   3.501   4.843
    1TCM    cl3  727   3.809   3.512   5.009
    1TCM     c1  728   1.733   0.231   4.756
    1TCM    cl1  729   1.622   0.092   4.758
    1TCM    cl2  730   1.848   0.214   4.622
    1TCM     h1  731   1.674   0.325   4.743
    1TCM    cl3  732   1.822   0.238   4.910
    1TCM     c1  733   3.424   3.766   1.896
    1TCM    cl1  734   3.418   3.899   2.013
    1TCM    cl2  735   3.519   3.815   1.754
    1TCM     h1  736   3.471   3.677   1.943
    1TCM    cl3  737   3.259   3.724   1.845
    1TCM     c1  738   0.157   2.717   2.145
    1TCM    cl1  739   0.001   2.756   2.067
    1TCM    cl2  740   0.131   2.693   2.319
    1TCM     h1  741   0.198   2.624   2.100
    1TCM    cl3  742   0.271   2.851   2.119
    1TCM     c1  743   1.877   0.919   3.625
    1TCM    cl1  744   1.747   0.887   3.507
    1TCM    cl2  745   1.855   0.812   3.766
    1TCM     h1  746   1.975   0.899   3.578
    1TCM    cl3  747   1.868   1.089   3.677
    1TCM     c1  748   1.437   4.573   3.672
    1TCM    cl1  749   1.402   4.424   3.763
    1TCM    cl2  750   1.507   4.530   3.514
    1TCM     h1  751   1.342   4.629   3.657
    1TCM    cl3  752   1.552   4.673   3.763
    1TCM     c1  753   1.262   3.267   3.576
    1TCM    cl1  754   1.326   3.409   3.661
    1TCM    cl2  755   1.246   3.132   3.690
    1TCM     h1  756   1.163   3.291   3.532
    1TCM    cl3  757   1.374   3.220   3.445
    1TCM     c1  758   4.850   2.346   2.479
    1TCM    cl1  759   5.002   2.413   2.416
    1TCM    cl2  760   4.796   2.442   2.618
    1TCM     h1  761   4.772   2.349   2.400
    1TCM    cl3  762   4.876   2.177   2.530
    1TCM     c1  763   2.416   1.343   1.901
    1TCM    cl1  764   2.403   1.409   2.066
    1TCM    cl2  765   2.538   1.214   1.899
    1TCM     h1  766   2.318   1.303   1.870
    1TCM    cl3  767   2.466   1.473   1.790
    1TCM     c1  768   1.332   0.147   3.674
    1TCM    cl1  769   1.434   0.001   3.674
    1TCM    cl2  770   1.392   0.261   3.552
    1TCM     h1  771   1.227   0.119   3.651
    1TCM    cl3  772   1.339   0.224   3.835
    1TCM     c1  773   4.365   3.815   2.727
    1TCM    cl1  774   4.225   3.887   2.809
    1TCM    cl2  775   4.515   3.878   2.800
    1TCM     h1  776   4.362   3.705   2.738
    1TCM    cl3  777   4.361   3.857   2.555
    1TCM     c1  778   4.461   1.307   4.019
    1TCM    cl1  779   4.318   1.202   4.030
    1TCM    cl2  780   4.453   1.403   3.870
    1TCM     h1  781   4.464   1.375   4.107
    1TCM    cl3  782   4.608   1.207   4.018
    1TCM     c1  783   3.778   2.002   2.655
    1TCM    cl1  784   3.946   1.999   2.595
    1TCM    cl2  785   3.773   2.091   2.809
    1TCM     h1  786   3.713   2.053   2.580
    1TCM    cl3  787   3.721   1.836   2.680
    1TCM     c1  788   4.996   4.007   3.385
    1TCM    cl1  789   4.970   4.169   3.453
    1TCM    cl2  790   5.114   3.919   3.486
    1TCM     h1  791   4.900   3.951   3.384
    1TCM    cl3  792   5.059   4.021   3.220
    1TCM     c1  793   0.460   1.859   0.617
    1TCM    cl1  794   0.389   2.021   0.606
    1TCM    cl2  795   0.432   1.772   0.464
    1TCM     h1  796   0.569   1.867   0.635
    1TCM    cl3  797   0.384   1.770   0.751
    1TCM     c1  798   3.679   1.805   3.639
    1TCM    cl1  799   3.735   1.719   3.494
    1TCM    cl2  800   3.559   1.705   3.725
    1TCM     h1  801   3.765   1.824   3.707
    1TCM    cl3  802   3.605   1.959   3.592
    1TCM     c1  803   1.428   2.424   2.995
    1TCM    cl1  804   1.557   2.503   3.089
    1TCM    cl2  805   1.363   2.538   2.875
    1TCM     h1  806   1.469   2.335   2.943
    1TCM    cl3  807   1.298   2.373   3.105
    1TCM     c1  808   0.305   3.044   0.185
    1TCM    cl1  809   0.444   3.027   0.294
    1TCM    cl2  810   0.348   2.980   0.024
    1TCM     h1  811   0.219   2.987   0.226
    1TCM    cl3  812   0.262   3.216   0.171
    1TCM     c1  813   0.770   4.615   5.064
    1TCM    cl1  814   0.637   4.612   5.182
    1TCM    cl2  815   0.786   4.779   4.997
    1TCM     h1  816   0.864   4.585   5.114
    1TCM    cl3  817   0.734   4.501   4.932
    1TCM     c1  818   4.736   4.850   0.137
    1TCM    cl1  819   4.882   4.781   0.213
    1TCM    cl2  820   4.638   4.931   0.261
    1TCM     h1  821   4.766   4.923   0.059
    1TCM    cl3  822   4.641   4.719   0.063
    1TCM     c1  823   0.803   1.547   0.607
    1TCM    cl1  824   0.906   1.406   0.640
    1TCM    cl2  825   0.711   1.589   0.753
    1TCM     h1  826   0.867   1.633   0.577
    1TCM    cl3  827   0.690   1.509   0.475
    1TCM     c1  828   2.432   0.387   3.540
    1TCM    cl1  829   2.478   0.253   3.648
    1TCM    cl2  830   2.403   0.323   3.376
    1TCM     h1  831   2.340   0.435   3.578
    1TCM    cl3  832   2.564   0.506   3.534
    1TCM     c1  833   0.534   1.475   3.341
    1TCM    cl1  834   0.538   1.626   3.246
    1TCM    cl2  835   0.495   1.513   3.510
    1TCM     h1  836   0.456   1.408   3.299
    1TCM    cl3  837   0.692   1.395   3.332
    1TCM     c1  838   0.294   4.482   5.008
    1TCM    cl1  839   0.385   4.613   5.087
    1TCM    cl2  840   0.268   4.350   5.124
    1TCM     h1  841   0.196   4.521   4.974
    1TCM    cl3  842   0.386   4.422   4.869
    1TCM     c1  843   4.310   1.426   2.213
    1TCM    cl1  844   4.292   1.349   2.053
    1TCM    cl2  845   4.183   1.368   2.322
    1TCM     h1  846   4.410   1.400   2.255
    1TCM    cl3  847   4.297   1.602   2.195
    1TCM     c1  848   1.502   0.649   1.800
    1TCM    cl1  849   1.370   0.636   1.681
    1TCM    cl2  850   1.437   0.620   1.963
    1TCM     h1  851   1.580   0.574   1.777
    1TCM    cl3  852   1.573   0.812   1.792
    1TCM     c1  853   2.061   1.914   3.565
    1TCM    cl1  854   2.186   2.021   3.496
    1TCM    cl2  855   2.103   1.744   3.530
    1TCM     h1  856   2.057   1.929   3.675
    1TCM    cl3  857   1.903   1.952   3.493
    1TCM     c1  858   2.612   3.545   3.817
    1TCM    cl1  859   2.567   3.568   3.646
    1TCM    cl2  860   2.783   3.499   3.827
    1TCM     h1  861   2.595   3.639   3.873
    1TCM    cl3  862   2.512   3.416   3.888
    1TCM     c1  863   0.887   1.416   3.678
    1TCM    cl1  864   0.827   1.255   3.632
    1TCM    cl2  865   0.972   1.406   3.833
    1TCM     h1  866   0.956   1.454   3.600
    1TCM    cl3  867   0.749   1.528   3.693
    1TCM     c1  868   0.786   4.425   1.926
    1TCM    cl1  869   0.648   4.472   2.028
    1TCM    cl2  870   0.757   4.481   1.759
    1TCM     h1  871   0.879   4.472   1.965
    1TCM    cl3  872   0.803   4.248   1.927
    1TCM     c1  873   3.734   4.180   2.533
    1TCM    cl1  874   3.856   4.185   2.403
    1TCM    cl2  875   3.810   4.229   2.686
    1TCM     h1  876   3.651   4.249   2.509
    1TCM    cl3  877   3.671   4.015   2.548
    1TCM     c1  878   0.606   2.481   3.549
    1TCM    cl1  879   0.622   2.341   3.658
    1TCM    cl2  880   0.586   2.629   3.646
    1TCM     h1  881   0.697   2.490   3.487
    1TCM    cl3  882   0.464   2.459   3.444
    1TCM     c1  883   1.733   3.997   1.803
    1TCM    cl1  884   1.909   4.009   1.819
    1TCM    cl2  885   1.685   3.826   1.794
    1TCM     h1  886   1.684   4.044   1.891
    1TCM    cl3  887   1.681   4.081   1.655
    1TCM     c1  888   1.725   1.659   2.664
    1TCM    cl1  889   1.671   1.758   2.526
    1TCM    cl2  890   1.693   1.487   2.629
    1TCM     h1  891   1.833   1.674   2.680
    1TCM    cl3  892   1.635   1.707   2.810
    1TCM     c1  893   3.950   0.107   4.045
    1TCM    cl1  894   3.804   0.016   4.000
    1TCM    cl2  895   4.033   0.164   3.899
    1TCM     h1  896   3.922   0.194   4.108
    1TCM    cl3  897   4.060   0.001   4.138
    1TCM     c1  898   0.173   4.536   4.600
    1TCM    cl1  899   0.165   4.677   4.709
    1TCM    cl2  900   0.284   4.571   4.466
    1TCM     h1  901   0.209   4.448   4.657
    1TCM    cl3  902   0.011   4.503   4.535
    1TCM     c1  903   1.114   1.776   0.873
    1TCM    cl1  904   1.057   1.775   1.042
    1TCM    cl2  905   1.071   1.621   0.796
    1TCM     h1  906   1.066   1.859   0.818
    1TCM    cl3  907   1.290   1.796   0.870
    1TCM     c1  908   2.684   2.812   0.221
    1TCM    cl1  909   2.589   2.816   0.071
    1TCM    cl2  910   2.584   2.750   0.354
    1TCM     h1  911   2.773   2.747   0.207
    1TCM    cl3  912   2.739   2.977   0.261
    1TCM     c1  913   3.650   1.419   3.481
    1TCM    cl1  914   3.643   1.337   3.638
    1TCM    cl2  915   3.595   1.308   3.354
    1TCM     h1  916   3.585   1.509   3.483
    1TCM    cl3  917   3.818   1.468   3.448
    1TCM     c1  918   3.530   0.293   1.974
    1TCM    cl1  919   3.690   0.325   1.904
    1TCM    cl2  920   3.547   0.259   2.148
    1TCM     h1  921   3.465   0.382   1.960
    1TCM    cl3  922   3.457   0.153   1.893
    1TCM     c1  923   4.139   2.692   1.567
    1TCM    cl1  924   4.251   2.761   1.448
    1TCM    cl2  925   4.213   2.549   1.643
    1TCM     h1  926   4.116   2.767   1.645
    1TCM    cl3  927   3.988   2.643   1.485
    1TCM     c1  928   2.989   4.252   2.682
    1TCM    cl1  929   2.979   4.346   2.833
    1TCM    cl2  930   3.118   4.131   2.696
    1TCM     h1  931   2.892   4.201   2.664
    1TCM    cl3  932   3.024   4.362   2.546
    1TCM     c1  933   4.436   1.117   2.772
    1TCM    cl1  934   4.538   1.167   2.910
    1TCM    cl2  935   4.420   0.940   2.771
    1TCM     h1  936   4.336   1.163   2.782
    1TCM    cl3  937   4.512   1.171   2.621
    1TCM     c1  938   1.091   2.131   4.935
    1TCM    cl1  939   1.139   2.275   5.028
    1TCM    cl2  940   1.193   2.119   4.789
    1TCM     h1  941   1.105   2.040   4.997
    1TCM    cl3  942   0.921   2.146   4.887
    1TCM     c1  943   2.405   4.633   4.621
    1TCM    cl1  944   2.443   4.563   4.780
    1TCM    cl2  945   2.518   4.765   4.586
    1TCM     h1  946   2.414   4.554   4.543
    1TCM    cl3  947   2.238   4.696   4.623
    1TCM     c1  948   2.332   5.157   5.104
    1TCM    cl1  949   2.429   5.079   5.231
    1TCM    cl2  950   2.435   5.189   4.963
    1TCM     h1  951   2.249   5.089   5.075
    1TCM    cl3  952   2.265   5.310   5.165
    1TCM     c1  953   2.031   1.308   2.995
    1TCM    cl1  954   1.886   1.408   2.964
    1TCM    cl2  955   2.085   1.234   2.842
    1TCM     h1  956   2.112   1.372   3.036
    1TCM    cl3  957   1.991   1.180   3.111
    1TCM     c1  958   1.926   2.217   5.135
    1TCM    cl1  959   1.849   2.195   5.294
    1TCM    cl2  960   2.018   2.071   5.093
    1TCM     h1  961   1.848   2.235   5.058
    1TCM    cl3  962   2.036   2.357   5.142
    1TCM     c1  963   2.275   1.911   1.653
    1TCM    cl1  964   2.422   1.914   1.753
    1TCM    cl2  965   2.260   2.064   1.564
    1TCM     h1  966   2.281   1.827   1.580
    1TCM    cl3  967   2.132   1.888   1.757
    1TCM     c1  968   2.689   2.763   0.886
    1TCM    cl1  969   2.781   2.847   0.759
    1TCM    cl2  970   2.788   2.631   0.953
    1TCM     h1  971   2.664   2.835   0.967
    1TCM    cl3  972   2.540   2.696   0.817
    1TCM     c1  973   2.985   1.952   2.235
    1TCM    cl1  974   2.949   1.908   2.067
    1TCM    cl2  975   2.925   1.826   2.345
    1TCM     h1  976   3.095   1.963   2.248
    1TCM    cl3  977   2.906   2.107   2.274
    1TCM     c1  978   4.652   4.513   2.766
    1TCM    cl1  979   4.774   4.517   2.894
    1TCM    cl2  980   4.510   4.608   2.816
    1TCM     h1  981   4.694   4.556   2.672
    1TCM    cl3  982   4.602   4.344   2.736
    1TCM     c1  983   3.230   0.481   4.930
    1TCM    cl1  984   3.076   0.482   5.020
    1TCM    cl2  985   3.203   0.544   4.766
    1TCM     h1  986   3.304   0.544   4.983
    1TCM    cl3  987   3.291   0.314   4.920
    1TCM     c1  988   3.959   3.986   4.145
    1TCM    cl1  989   4.056   4.121   4.207
    1TCM    cl2  990   4.067   3.854   4.094
    1TCM     h1  991   3.892   3.949   4.226
    1TCM    cl3  992   3.862   4.040   4.007
    1TCM     c1  993   2.098   1.343   2.633
    1TCM    cl1  994   2.069   1.492   2.725
    1TCM    cl2  995   1.963   1.230   2.659
    1TCM     h1  996   2.105   1.367   2.525
    1TCM    cl3  997   2.249   1.268   2.688
    1TCM     c1  998   2.678   0.473   0.144
    1TCM    cl1  999   2.558   0.495   0.015
    1TCM    cl2 1000   2.605   0.512   0.301
    1TCM     h1 1001   2.713   0.367   0.145
    1TCM    cl3 1002   2.817   0.580   0.116
    1TCM     c1 1003   2.448   2.920   2.012
    1TCM    cl1 1004   2.324   2.833   1.920
    1TCM    cl2 1005   2.461   2.849   2.175
    1TCM     h1 1006   2.546   2.912   1.960
    1TCM    cl3 1007   2.402   3.091   2.026
    1TCM     c1 1008   1.146   4.917   1.677
    1TCM    cl1 1009   1.096   4.993   1.830
    1TCM    cl2 1010   1.072   5.005   1.541
    1TCM     h1 1011   1.257   4.922   1.668
    1TCM    cl3 1012   1.094   4.748   1.674
    1TCM     c1 1013   4.248   2.321   4.426
    1TCM    cl1 1014   4.338   2.363   4.279
    1TCM    cl2 1015   4.187   2.469   4.503
    1TCM     h1 1016   4.162   2.255   4.400
    1TCM    cl3 1017   4.356   2.235   4.539
    1TCM     c1 1018   1.926   5.084   5.121
    1TCM    cl1 1019   2.010   4.973   5.010
    1TCM    cl2 1020   1.858   4.990   5.257
    1TCM     h1 1021   1.998   5.159   5.160
    1TCM    cl3 1022   1.795   5.166   5.035
    1TCM     c1 1023   3.462   3.901   0.654
    1TCM    cl1 1024   3.540   4.043   0.583
    1TCM    cl2 1025   3.584   3.803   0.739
    1TCM     h1 1026   3.384   3.933   0.726
    1TCM    cl3 1027   3.388   3.803   0.526
    1TCM     c1 1028   4.654   0.985   1.070
    1TCM    cl1 1029   4.634   0.817   1.123
    1TCM    cl2 1030   4.760   1.071   1.184
    1TCM     h1 1031   4.700   0.987   0.969
    1TCM    cl3 1032   4.496   1.065   1.064
    1TCM     c1 1033   4.181   1.883   1.985
    1TCM    cl1 1034   4.077   1.941   2.118
    1TCM    cl2 1035   4.136   1.966   1.834
    1TCM     h1 1036   4.287   1.905   2.010
    1TCM    cl3 1037   4.159   1.708   1.965
    1TCM     c1 1038   4.127   1.735   0.107
    1TCM    cl1 1039   4.183   1.884   0.187
    1TCM    cl2 1040   3.980   1.677   0.188
    1TCM     h1 1041   4.105   1.757   0.001
    1TCM    cl3 1042   4.253   1.611   0.118
    1TCM     c1 1043   3.990   3.233   4.804
    1TCM    cl1 1044   4.080   3.283   4.660
    1TCM    cl2 1045   3.880   3.363   4.854
    1TCM     h1 1046   3.931   3.141   4.781
    1TCM    cl3 1047   4.104   3.197   4.936
    1TCM     c1 1048   1.285   0.516   3.768
    1TCM    cl1 1049   1.179   0.404   3.680
    1TCM    cl2 1050   1.336   0.647   3.660
    1TCM     h1 1051   1.230   0.558   3.854
    1TCM    cl3 1052   1.428   0.428   3.827
    1TCM     c1 1053   3.631   0.353   1.516
    1TCM    cl1 1054   3.726   0.381   1.664
    1TCM    cl2 1055   3.621   0.178   1.485
    1TCM     h1 1056   3.529   0.394   1.529
    1TCM    cl3 1057   3.710   0.433   1.379
    1TCM     c1 1058   1.228   0.372   4.228
    1TCM    cl1 1059   1.121   0.483   4.316
    1TCM    cl2 1060   1.397   0.404   4.272
    1TCM     h1 1061   1.202   0.267   4.254
    1TCM    cl3 1062   1.206   0.396   4.053
    1TCM     c1 1063   3.201   5.280   3.606
    1TCM    cl1 1064   3.356   5.339   3.542
    1TCM    cl2 1065   3.068   5.340   3.504
    1TCM     h1 1066   3.201   5.169   3.606
    1TCM    cl3 1067   3.180   5.339   3.773
    1TCM     c1 1068   2.317   1.129   4.186
    1TCM    cl1 1069   2.235   1.011   4.290
    1TCM    cl2 1070   2.257   1.113   4.019
    1TCM     h1 1071   2.296   1.232   4.223
    1TCM    cl3 1072   2.492   1.100   4.189
    1TCM     c1 1073   3.328   0.772   0.313
    1TCM    cl1 1074   3.284   0.618   0.390
    1TCM    cl2 1075   3.404   0.741   0.156
    1TCM     h1 1076   3.237   0.834   0.299
    1TCM    cl3 1077   3.443   0.860   0.418
    1TCM     c1 1078   1.716   2.227   2.827
    1TCM    cl1 1079   1.872   2.143   2.817
    1TCM    cl2 1080   1.735   2.395   2.769
    1TCM     h1 1081   1.641   2.175   2.764
    1TCM    cl3 1082   1.660   2.229   2.996
    1TCM     c1 1083   4.964   4.033   4.665
    1TCM    cl1 1084   5.139   3.999   4.676
    1TCM    cl2 1085   4.900   4.066   4.828
    1TCM     h1 1086   4.948   4.122   4.600
    1TCM    cl3 1087   4.880   3.893   4.595
    1TCM     c1 1088   0.857   0.948   2.732
    1TCM    cl1 1089   0.794   0.815   2.831
    1TCM    cl2 1090   0.880   0.892   2.565
    1TCM     h1 1091   0.785   1.033   2.733
    1TCM    cl3 1092   1.013   1.003   2.798
    1TCM     c1 1093   4.721   1.000   3.686
    1TCM    cl1 1094   4.651   0.899   3.813
    1TCM    cl2 1095   4.669   0.940   3.527
    1TCM     h1 1096   4.687   1.105   3.698
    1TCM    cl3 1097   4.899   0.994   3.696
    1TCM     c1 1098   5.085   4.804   0.657
    1TCM    cl1 1099   5.153   4.954   0.591
    1TCM    cl2 1100   5.047   4.827   0.829
    1TCM     h1 1101   4.992   4.778   0.602
    1TCM    cl3 1102   5.202   4.672   0.639
    1TCM     c1 1103   0.750   3.371   0.342
    1TCM    cl1 1104   0.737   3.430   0.175
    1TCM    cl2 1105   0.628   3.451   0.444
    1TCM     h1 1106   0.733   3.261   0.344
    1TCM    cl3 1107   0.913   3.406   0.405
    1TCM     c1 1108   1.224   2.477   4.724
    1TCM    cl1 1109   1.253   2.305   4.688
    1TCM    cl2 1110   1.308   2.521   4.874
    1TCM     h1 1111   1.263   2.539   4.640
    1TCM    cl3 1112   1.050   2.505   4.742
    1TCM     c1 1113   0.755   3.238   0.674
    1TCM    cl1 1114   0.707   3.409   0.669
    1TCM    cl2 1115   0.702   3.167   0.828
    1TCM     h1 1116   0.708   3.184   0.590
    1TCM    cl3 1117   0.932   3.227   0.661
    1TCM     c1 1118   4.291   1.703   2.615
    1TCM    cl1 1119   4.128   1.651   2.662
    1TCM    cl2 1120   4.315   1.672   2.442
    1TCM     h1 1121   4.303   1.811   2.636
    1TCM    cl3 1122   4.411   1.611   2.709
    1TCM     c1 1123   2.136   0.603   4.408
    1TCM    cl1 1124   2.250   0.521   4.516
    1TCM    cl2 1125   2.054   0.483   4.305
    1TCM     h1 1126   2.060   0.657   4.468
    1TCM    cl3 1127   2.224   0.719   4.305
    1TCM     c1 1128   0.343   0.187   2.606
    1TCM    cl1 1129   0.324   0.031   2.691
    1TCM    cl2 1130   0.336   0.160   2.431
    1TCM     h1 1131   0.261   0.255   2.637
    1TCM    cl3 1132   0.499   0.259   2.649
    1TCM     c1 1133   1.832   4.591   4.423
    1TCM    cl1 1134   1.924   4.735   4.473
    1TCM    cl2 1135   1.863   4.458   4.536
    1TCM     h1 1136   1.724   4.615   4.422
    1TCM    cl3 1137   1.883   4.543   4.259
    1TCM     c1 1138   4.271   4.620   1.511
    1TCM    cl1 1139   4.228   4.457   1.453
    1TCM    cl2 1140   4.305   4.725   1.372
    1TCM     h1 1141   4.186   4.662   1.569
    1TCM    cl3 1142   4.414   4.610   1.615
    1TCM     c1 1143   1.110   2.574   0.590
    1TCM    cl1 1144   1.058   2.637   0.747
    1TCM    cl2 1145   1.279   2.519   0.601
    1TCM     h1 1146   1.046   2.489   0.560
    1TCM    cl3 1147   1.098   2.703   0.468
    1TCM     c1 1148   1.416   0.884   4.275
    1TCM    cl1 1149   1.381   0.736   4.183
    1TCM    cl2 1150   1.263   0.957   4.330
    1TCM     h1 1151   1.479   0.859   4.363
    1TCM    cl3 1152   1.502   1.000   4.171
    1TCM     c1 1153   1.890   1.542   0.888
    1TCM    cl1 1154   1.943   1.515   0.720
    1TCM    cl2 1155   1.889   1.387   0.976
    1TCM     h1 1156   1.960   1.612   0.938
    1TCM    cl3 1157   1.726   1.610   0.888
    1TCM     c1 1158   1.252   4.622   1.430
    1TCM    cl1 1159   1.334   4.719   1.553
    1TCM    cl2 1160   1.355   4.609   1.286
    1TCM     h1 1161   1.231   4.521   1.470
    1TCM    cl3 1162   1.098   4.700   1.385
    1TCM     c1 1163   4.998   2.770   2.581
    1TCM    cl1 1164   4.893   2.644   2.651
    1TCM    cl2 1165   4.963   2.787   2.408
    1TCM     h1 1166   4.978   2.867   2.632
    1TCM    cl3 1167   5.168   2.725   2.603
    1TCM     c1 1168   0.877   2.473   0.191
    1TCM    cl1 1169   1.001   2.493   0.317
    1TCM    cl2 1170   0.953   2.416   0.041
    1TCM     h1 1171   0.802   2.399   0.225
    1TCM    cl3 1172   0.797   2.629   0.161
    1TCM     c1 1173   3.674   4.750   3.425
    1TCM    cl1 1174   3.737   4.675   3.574
    1TCM    cl2 1175   3.537   4.857   3.466
    1TCM     h1 1176   3.754   4.810   3.377
    1TCM    cl3 1177   3.618   4.623   3.313
    1TCM     c1 1178   2.175   1.027   2.426
    1TCM    cl1 1179   2.011   1.087   2.396
    1TCM    cl2 1180   2.277   1.161   2.484
    1TCM     h1 1181   2.172   0.947   2.503
    1TCM    cl3 1182   2.243   0.962   2.275
    1TCM     c1 1183   0.701   4.574   4.505
    1TCM    cl1 1184   0.745   4.693   4.380
    1TCM    cl2 1185   0.604   4.444   4.432
    1TCM     h1 1186   0.793   4.531   4.549
    1TCM    cl3 1187   0.607   4.654   4.633
    1TCM     c1 1188   2.040   4.848   3.928
    1TCM    cl1 1189   2.159   4.971   3.976
    1TCM    cl2 1190   2.080   4.694   4.009
    1TCM     h1 1191   1.939   4.880   3.959
    1TCM    cl3 1192   2.045   4.826   3.752
    1TCM     c1 1193   1.204   0.304   1.294
    1TCM    cl1 1194   1.106   0.258   1.153
    1TCM    cl2 1195   1.133   0.447   1.372
    1TCM     h1 1196   1.207   0.220   1.366
    1TCM    cl3 1197   1.370   0.342   1.240
    1TCM     c1 1198   2.512   3.099   1.084
    1TCM    cl1 1199   2.559   3.242   0.989
    1TCM    cl2 1200   2.651   2.989   1.096
    1TCM     h1 1201   2.482   3.131   1.186
    1TCM    cl3 1202   2.377   3.016   1.005
    1TCM     c1 1203   1.015   3.634   1.093
    1TCM    cl1 1204   1.132   3.651   1.226
    1TCM    cl2 1205   0.850   3.654   1.157
    1TCM     h1 1206   1.034   3.711   1.016
    1TCM    cl3 1207   1.031   3.472   1.020
    1TCM     c1 1208   3.876   2.452   2.209
    1TCM    cl1 1209   3.700   2.434   2.214
    1TCM    cl2 1210   3.940   2.464   2.375
    1TCM     h1 1211   3.921   2.364   2.158
    1TCM    cl3 1212   3.918   2.599   2.119
    1TCM     c1 1213   2.447   2.391   1.161
    1TCM    cl1 1214   2.520   2.518   1.060
    1TCM    cl2 1215   2.421   2.453   1.325
    1TCM     h1 1216   2.350   2.359   1.117
    1TCM    cl3 1217   2.557   2.251   1.168
    1TCM     c1 1218   2.739   3.504   4.286
    1TCM    cl1 1219   2.817   3.516   4.445
    1TCM    cl2 1220   2.730   3.333   4.237
    1TCM     h1 1221   2.636   3.545   4.292
    1TCM    cl3 1222   2.834   3.595   4.166
    1TCM     c1 1223   1.228   2.789   4.107
    1TCM    cl1 1224   1.396   2.806   4.051
    1TCM    cl2 1225   1.206   2.881   4.258
    1TCM     h1 1226   1.159   2.827   4.030
    1TCM    cl3 1227   1.194   2.617   4.138
    1TCM     c1 1228   1.552   2.936   3.459
    1TCM    cl1 1229   1.635   2.794   3.390
    1TCM    cl2 1230   1.638   3.084   3.413
    1TCM     h1 1231   1.448   2.940   3.421
    1TCM    cl3 1232   1.549   2.922   3.637
    1TCM     c1 1233   3.859   4.817   3.925
    1TCM    cl1 1234   3.923   4.965   3.851
    1TCM    cl2 1235   3.697   4.783   3.861
    1TCM     h1 1236   3.927   4.732   3.903
    1TCM    cl3 1237   3.849   4.839   4.102
    1TCM     c1 1238   0.184   3.217   0.522
    1TCM    cl1 1239   0.062   3.286   0.631
    1TCM    cl2 1240   0.203   3.324   0.381
    1TCM     h1 1241   0.281   3.209   0.576
    1TCM    cl3 1242   0.132   3.056   0.468
    1TCM     c1 1243   1.458   2.316   5.098
    1TCM    cl1 1244   1.472   2.234   4.940
    1TCM    cl2 1245   1.324   2.243   5.190
    1TCM     h1 1246   1.552   2.305   5.154
    1TCM    cl3 1247   1.424   2.489   5.072
    1TCM     c1 1248   0.244   1.901   3.024
    1TCM    cl1 1249   0.409   1.939   2.970
    1TCM    cl2 1250   0.192   2.021   3.145
    1TCM     h1 1251   0.175   1.904   2.937
    1TCM    cl3 1252   0.241   1.739   3.097
    1TCM     c1 1253   3.685   0.184   4.940
    1TCM    cl1 1254   3.550   0.082   4.994
    1TCM    cl2 1255   3.733   0.294   5.071
    1TCM     h1 1256   3.771   0.120   4.912
    1TCM    cl3 1257   3.634   0.280   4.799
    1TCM     c1 1258   1.721   2.803   2.055
    1TCM    cl1 1259   1.744   2.939   2.167
    1TCM    cl2 1260   1.701   2.652   2.147
    1TCM     h1 1261   1.630   2.821   1.993
    1TCM    cl3 1262   1.863   2.789   1.949
    1TCM     c1 1263   4.223   0.623   4.268
    1TCM    cl1 1264   4.210   0.631   4.091
    1TCM    cl2 1265   4.199   0.786   4.337
    1TCM     h1 1266   4.146   0.554   4.308
    1TCM    cl3 1267   4.384   0.564   4.313
    1TCM     c1 1268   0.263   3.829   1.591
    1TCM    cl1 1269   0.286   3.810   1.766
    1TCM    cl2 1270   0.422   3.841   1.511
    1TCM     h1 1271   0.208   3.741   1.551
    1TCM    cl3 1272   0.169   3.976   1.558
    1TCM     c1 1273   0.257   1.628   0.924
    1TCM    cl1 1274   0.250   1.553   0.763
    1TCM    cl2 1275   0.423   1.612   0.989
    1TCM     h1 1276   0.230   1.735   0.917
    1TCM    cl3 1277   0.144   1.545   1.033
    1TCM     c1 1278   3.721   2.618   2.835
    1TCM    cl1 1279   3.625   2.588   2.982
    1TCM    cl2 1280   3.652   2.758   2.748
    1TCM     h1 1281   3.826   2.640   2.863
    1TCM    cl3 1282   3.716   2.475   2.730
    1TCM     c1 1283   0.251   4.873   2.877
    1TCM    cl1 1284   0.262   4.852   3.054
    1TCM    cl2 1285   0.089   4.824   2.822
    1TCM     h1 1286   0.268   4.980   2.852
    1TCM    cl3 1287   0.374   4.773   2.798
    1TCM     c1 1288   0.177   4.615   2.458
    1TCM    cl1 1289   0.039   4.714   2.406
    1TCM    cl2 1290   0.171   4.592   2.634
    1TCM     h1 1291   0.172   4.516   2.408
    1TCM    cl3 1292   0.329   4.696   2.413
    1TCM     c1 1293   0.581   2.523   2.452
    1TCM    cl1 1294   0.659   2.550   2.609
    1TCM    cl2 1295   0.603   2.666   2.349
    1TCM     h1 1296   0.627   2.434   2.403
    1TCM    cl3 1297   0.407   2.494   2.476
    1TCM     c1 1298   0.640   4.011   2.863
    1TCM    cl1 1299   0.507   4.021   2.745
    1TCM    cl2 1300   0.708   3.847   2.862
    1TCM     h1 1301   0.719   4.084   2.836
    1TCM    cl3 1302   0.578   4.048   3.026
    1TCM     c1 1303   2.329   0.665   4.056
    1TCM    cl1 1304   2.362   0.565   4.200
    1TCM    cl2 1305   2.474   0.760   4.016
    1TCM     h1 1306   2.302   0.600   3.971
    1TCM    cl3 1307   2.194   0.776   4.091
    1TCM     c1 1308   1.761   1.866   2.067
    1TCM    cl1 1309   1.834   1.704   2.078
    1TCM    cl2 1310   1.707   1.918   2.228
    1TCM     h1 1311   1.836   1.938   2.028
    1TCM    cl3 1312   1.621   1.860   1.957
    1TCM     c1 1313   0.901   3.280   2.305
    1TCM    cl1 1314   1.035   3.269   2.422
    1TCM    cl2 1315   0.862   3.451   2.276
    1TCM     h1 1316   0.932   3.232   2.210
    1TCM    cl3 1317   0.759   3.196   2.370
    1TCM     c1 1318   4.748   3.758   3.100
    1TCM    cl1 1319   4.688   3.824   3.254
    1TCM    cl2 1320   4.741   3.581   3.104
    1TCM     h1 1321   4.686   3.796   3.017
    1TCM    cl3 1322   4.917   3.810   3.076
    1TCM     c1 1323   4.210   1.044   4.596
    1TCM    cl1 1324   4.265   1.186   4.687
    1TCM    cl2 1325   4.102   1.095   4.464
    1TCM     h1 1326   4.298   0.991   4.553
    1TCM    cl3 1327   4.122   0.934   4.705
    1TCM     c1 1328   0.157   3.113   4.649
    1TCM    cl1 1329   0.164   3.284   4.695
    1TCM    cl2 1330   0.134   3.100   4.473
    1TCM     h1 1331   0.251   3.062   4.678
    1TCM    cl3 1332   0.020   3.034   4.731
    1TCM     c1 1333   1.052   1.902   0.403
    1TCM    cl1 1334   1.099   1.959   0.565
    1TCM    cl2 1335   1.123   2.009   0.280
    1TCM     h1 1336   1.089   1.798   0.388
    1TCM    cl3 1337   0.874   1.905   0.389
    1TCM     c1 1338   1.906   2.175   1.772
    1TCM    cl1 1339   2.017   2.158   1.910
    1TCM    cl2 1340   1.903   2.023   1.679
    1TCM     h1 1341   1.804   2.197   1.809
    1TCM    cl3 1342   1.962   2.308   1.668
    1TCM     c1 1343   2.566   4.494   3.837
    1TCM    cl1 1344   2.540   4.393   3.981
    1TCM    cl2 1345   2.684   4.416   3.730
    1TCM     h1 1346   2.470   4.507   3.783
    1TCM    cl3 1347   2.628   4.654   3.887
    1TCM     c1 1348   3.284   0.559   1.768
    1TCM    cl1 1349   3.409   0.593   1.889
    1TCM    cl2 1350   3.351   0.585   1.605
    1TCM     h1 1351   3.250   0.454   1.777
    1TCM    cl3 1352   3.146   0.668   1.793
    1TCM     c1 1353   2.487   4.871   4.957
    1TCM    cl1 1354   2.563   4.721   4.899
    1TCM    cl2 1355   2.613   4.982   5.017
    1TCM     h1 1356   2.433   4.919   4.873
    1TCM    cl3 1357   2.373   4.834   5.088
    1TCM     c1 1358   2.675   1.874   3.418
    1TCM    cl1 1359   2.848   1.836   3.427
    1TCM    cl2 1360   2.610   1.894   3.582
    1TCM     h1 1361   2.661   1.968   3.361
    1TCM    cl3 1362   2.589   1.741   3.336
    1TCM     c1 1363   0.870   1.778   5.031
    1TCM    cl1 1364   0.862   1.940   5.105
    1TCM    cl2 1365   0.832   1.655   5.153
    1TCM     h1 1366   0.797   1.772   4.948
    1TCM    cl3 1367   1.034   1.751   4.967
    1TCM     c1 1368   3.147   1.148   3.125
    1TCM    cl1 1369   3.255   1.217   3.248
    1TCM    cl2 1370   3.221   1.165   2.964
    1TCM     h1 1371   3.129   1.041   3.146
    1TCM    cl3 1372   2.991   1.235   3.128
    1TCM     c1 1373   3.727   0.709   1.681
    1TCM    cl1 1374   3.732   0.887   1.678
    1TCM    cl2 1375   3.792   0.651   1.836
    1TCM     h1 1376   3.623   0.675   1.668
    1TCM    cl3 1377   3.827   0.646   1.548
    1TCM     c1 1378   0.451   0.347   0.723
    1TCM    cl1 1379   0.585   0.351   0.840
    1TCM    cl2 1380   0.417   0.178   0.678
    1TCM     h1 1381   0.361   0.391   0.769
    1TCM    cl3 1382   0.496   0.439   0.578
    1TCM     c1 1383   0.890   3.874   3.754
    1TCM    cl1 1384   0.890   3.719   3.667
    1TCM    cl2 1385   1.033   3.968   3.707
    1TCM     h1 1386   0.798   3.931   3.728
    1TCM    cl3 1387   0.894   3.844   3.929
    1TCM     c1 1388   5.235   4.249   4.403
    1TCM    cl1 1389   5.269   4.300   4.569
    1TCM    cl2 1390   5.072   4.304   4.356
    1TCM     h1 1391   5.310   4.294   4.334
    1TCM    cl3 1392   5.243   4.072   4.391
    1TCM     c1 1393   1.640   2.687   4.552
    1TCM    cl1 1394   1.657   2.526   4.480
    1TCM    cl2 1395   1.751   2.702   4.690
    1TCM     h1 1396   1.664   2.764   4.477
    1TCM    cl3 1397   1.472   2.709   4.608
    1TCM     c1 1398   3.453   4.441   3.741
    1TCM    cl1 1399   3.456   4.580   3.631
    1TCM    cl2 1400   3.617   4.372   3.754
    1TCM     h1 1401   3.420   4.474   3.842
    1TCM    cl3 1402   3.342   4.318   3.679
    1TCM     c1 1403   1.706   4.726   3.243
    1TCM    cl1 1404   1.845   4.758   3.138
    1TCM    cl2 1405   1.671   4.870   3.341
    1TCM     h1 1406   1.617   4.701   3.181
    1TCM    cl3 1407   1.743   4.589   3.351
    1TCM     c1 1408   2.643   0.512   2.624
    1TCM    cl1 1409   2.700   0.665   2.696
    1TCM    cl2 1410   2.537   0.429   2.740
    1TCM     h1 1411   2.587   0.533   2.531
    1TCM    cl3 1412   2.783   0.409   2.587
    1TCM     c1 1413   3.331   2.141   4.225
    1TCM    cl1 1414   3.320   1.997   4.120
    1TCM    cl2 1415   3.170   2.178   4.291
    1TCM     h1 1416   3.401   2.121   4.308
    1TCM    cl3 1417   3.390   2.279   4.129
    1TCM     c1 1418   2.957   2.424   0.553
    1TCM    cl1 1419   2.780   2.437   0.542
    1TCM    cl2 1420   3.032   2.555   0.458
    1TCM     h1 1421   2.988   2.434   0.660
    1TCM    cl3 1422   3.010   2.267   0.490
    1TCM     c1 1423   1.588   0.579   4.889
    1TCM    cl1 1424   1.435   0.599   4.800
    1TCM    cl2 1425   1.580   0.432   4.988
    1TCM     h1 1426   1.672   0.570   4.817
    1TCM    cl3 1427   1.614   0.720   4.993
    1TCM     c1 1428   0.766   1.633   1.681
    1TCM    cl1 1429   0.685   1.613   1.838
    1TCM    cl2 1430   0.771   1.476   1.597
    1TCM     h1 1431   0.709   1.706   1.619
    1TCM    cl3 1432   0.931   1.692   1.707
    1TCM     c1 1433   5.035   3.193   0.320
    1TCM    cl1 1434   4.873   3.188   0.394
    1TCM    cl2 1435   5.019   3.225   0.146
    1TCM     h1 1436   5.095   3.273   0.368
    1TCM    cl3 1437   5.116   3.036   0.344
    1TCM     c1 1438   0.657   1.690   4.010
    1TCM    cl1 1439   0.709   1.854   3.964
    1TCM    cl2 1440   0.578   1.695   4.169
    1TCM     h1 1441   0.585   1.652   3.934
    1TCM    cl3 1442   0.798   1.582   4.016
    1TCM     c1 1443   0.941   0.778   0.430
    1TCM    cl1 1444   0.765   0.750   0.438
    1TCM    cl2 1445   1.019   0.700   0.569
    1TCM     h1 1446   0.980   0.735   0.336
    1TCM    cl3 1447   0.973   0.953   0.434
    1TCM     c1 1448   3.570   4.921   4.898
    1TCM    cl1 1449   3.642   5.013   5.032
    1TCM    cl2 1450   3.542   4.753   4.950
    1TCM     h1 1451   3.473   4.967   4.870
    1TCM    cl3 1452   3.680   4.923   4.759
    1TCM     c1 1453   3.151   3.977   3.641
    1TCM    cl1 1454   3.145   3.839   3.529
    1TCM    cl2 1455   3.227   3.926   3.794
    1TCM     h1 1456   3.211   4.059   3.596
    1TCM    cl3 1457   2.986   4.035   3.673
    1TCM     c1 1458   2.857   4.396   3.337
    1TCM    cl1 1459   2.766   4.280   3.237
    1TCM    cl2 1460   2.763   4.435   3.483
    1TCM     h1 1461   2.954   4.351   3.367
    1TCM    cl3 1462   2.887   4.544   3.244
    1TCM     c1 1463   3.465   1.370   2.716
    1TCM    cl1 1464   3.598   1.252   2.711
    1TCM    cl2 1465   3.407   1.401   2.551
    1TCM     h1 1466   3.382   1.329   2.777
    1TCM    cl3 1467   3.523   1.521   2.788
    1TCM     c1 1468   4.554   2.076   5.160
    1TCM    cl1 1469   4.662   2.216   5.140
    1TCM    cl2 1470   4.643   1.943   5.237
    1TCM     h1 1471   4.468   2.105   5.224
    1TCM    cl3 1472   4.495   2.024   5.001
    1TCM     c1 1473   3.181   2.150   0.593
    1TCM    cl1 1474   3.083   2.256   0.697
    1TCM    cl2 1475   3.200   2.226   0.433
    1TCM     h1 1476   3.281   2.136   0.639
    1TCM    cl3 1477   3.100   1.993   0.575
    1TCM     c1 1478   4.628   4.828   1.588
    1TCM    cl1 1479   4.611   4.683   1.486
    1TCM    cl2 1480   4.650   4.779   1.757
    1TCM     h1 1481   4.716   4.886   1.554
    1TCM    cl3 1482   4.481   4.927   1.574
    1TCM     c1 1483   4.691   0.740   3.239
    1TCM    cl1 1484   4.547   0.688   3.149
    1TCM    cl2 1485   4.675   0.693   3.409
    1TCM     h1 1486   4.781   0.692   3.196
    1TCM    cl3 1487   4.707   0.917   3.228
    1TCM     c1 1488   3.566   2.231   0.411
    1TCM    cl1 1489   3.405   2.189   0.473
    1TCM    cl2 1490   3.680   2.247   0.546
    1TCM     h1 1491   3.600   2.152   0.342
    1TCM    cl3 1492   3.556   2.386   0.323
    1TCM     c1 1493   1.761   0.146   2.723
    1TCM    cl1 1494   1.684   0.301   2.684
    1TCM    cl2 1495   1.745   0.114   2.897
    1TCM     h1 1496   1.712   0.065   2.665
    1TCM    cl3 1497   1.934   0.153   2.681
    1TCM     c1 1498   1.322   4.584   5.107
    1TCM    cl1 1499   1.371   4.562   4.938
    1TCM    cl2 1500   1.246   4.743   5.127
    1TCM     h1 1501   1.250   4.504   5.135
    1TCM    cl3 1502   1.465   4.573   5.212
    1TCM     c1 1503   5.115   0.296   4.508
    1TCM    cl1 1504   5.270   0.274   4.422
    1TCM    cl2 1505   5.143   0.288   4.683
    1TCM     h1 1506   5.072   0.395   4.482
    1TCM    cl3 1507   5.002   0.168   4.460
    1TCM     c1 1508   4.309   4.846   0.274
    1TCM    cl1 1509   4.284   4.994   0.178
    1TCM    cl2 1510   4.319   4.706   0.165
    1TCM     h1 1511   4.403   4.855   0.332
    1TCM    cl3 1512   4.173   4.824   0.386
    1TCM     c1 1513   0.684   2.663   3.982
    1TCM    cl1 1514   0.841   2.727   3.931
    1TCM    cl2 1515   0.647   2.516   3.889
    1TCM     h1 1516   0.687   2.638   4.090
    1TCM    cl3 1517   0.558   2.784   3.953
    1TCM     c1 1518   4.155   1.327   1.670
    1TCM    cl1 1519   4.181   1.502   1.654
    1TCM    cl2 1520   4.232   1.269   1.819
    1TCM     h1 1521   4.046   1.306   1.674
    1TCM    cl3 1522   4.226   1.243   1.530
    1TCM     c1 1523   1.455   4.920   0.345
    1TCM    cl1 1524   1.538   4.832   0.475
    1TCM    cl2 1525   1.313   4.827   0.292
    1TCM     h1 1526   1.422   5.019   0.382
    1TCM    cl3 1527   1.566   4.941   0.208
    1TCM     c1 1528   3.309   1.077   4.057
    1TCM    cl1 1529   3.409   1.187   3.960
    1TCM    cl2 1530   3.248   1.164   4.200
    1TCM     h1 1531   3.223   1.041   3.997
    1TCM    cl3 1532   3.407   0.939   4.110
    1TCM     c1 1533   4.653   3.543   3.696
    1TCM    cl1 1534   4.530   3.671   3.688
    1TCM    cl2 1535   4.574   3.385   3.714
    1TCM     h1 1536   4.714   3.544   3.603
    1TCM    cl3 1537   4.759   3.572   3.836
    1TCM     c1 1538   1.413   0.856   0.663
    1TCM    cl1 1539   1.572   0.785   0.700
    1TCM    cl2 1540   1.325   0.751   0.550
    1TCM     h1 1541   1.354   0.867   0.757
    1TCM    cl3 1542   1.436   1.016   0.589
    1TCM     c1 1543   1.282   1.964   1.099
    1TCM    cl1 1544   1.300   2.079   1.234
    1TCM    cl2 1545   1.139   2.008   1.002
    1TCM     h1 1546   1.373   1.968   1.035
    1TCM    cl3 1547   1.262   1.799   1.163
    1TCM     c1 1548   3.462   3.078   2.419
    1TCM    cl1 1549   3.474   3.225   2.319
    1TCM    cl2 1550   3.434   3.124   2.588
    1TCM     h1 1551   3.378   3.016   2.383
    1TCM    cl3 1552   3.614   2.987   2.407
    1TCM     c1 1553   3.236   3.563   2.827
    1TCM    cl1 1554   3.400   3.630   2.811
    1TCM    cl2 1555   3.193   3.552   3.000
    1TCM     h1 1556   3.164   3.629   2.776
    1TCM    cl3 1557   3.231   3.401   2.755
    1TCM     c1 1558   1.303   1.189   0.235
    1TCM    cl1 1559   1.184   1.063   0.274
    1TCM    cl2 1560   1.422   1.201   0.367
    1TCM     h1 1561   1.356   1.162   0.141
    1TCM    cl3 1562   1.221   1.345   0.215
    1TCM     c1 1563   3.039   0.252   0.888
    1TCM    cl1 1564   3.197   0.233   0.809
    1TCM    cl2 1565   3.053   0.207   1.060
    1TCM     h1 1566   3.007   0.358   0.881
    1TCM    cl3 1567   2.919   0.147   0.809
    1TCM     c1 1568   1.947   3.390   1.010
    1TCM    cl1 1569   2.007   3.480   0.870
    1TCM    cl2 1570   2.065   3.402   1.143
    1TCM     h1 1571   1.850   3.432   1.043
    1TCM    cl3 1572   1.925   3.219   0.966
    1TCM     c1 1573   2.968   3.803   2.008
    1TCM    cl1 1574   2.795   3.768   1.981
    1TCM    cl2 1575   3.042   3.855   1.855
    1TCM     h1 1576   2.978   3.884   2.083
    1TCM    cl3 1577   3.049   3.656   2.066
    1TCM     c1 1578   4.665   0.429   4.073
    1TCM    cl1 1579   4.508   0.347   4.052
    1TCM    cl2 1580   4.758   0.417   3.922
    1TCM     h1 1581   4.649   0.535   4.097
    1TCM    cl3 1582   4.756   0.350   4.204
    1TCM     c1 1583   4.646   2.990   4.803
    1TCM    cl1 1584   4.616   3.114   4.927
    1TCM    cl2 1585   4.819   2.985   4.765
    1TCM     h1 1586   4.613   2.891   4.840
    1TCM    cl3 1587   4.554   3.031   4.656
    1TCM     c1 1588   1.084   4.673   2.393
    1TCM    cl1 1589   1.216   4.677   2.274
    1TCM    cl2 1590   0.935   4.736   2.318
    1TCM     h1 1591   1.067   4.568   2.426
    1TCM    cl3 1592   1.127   4.773   2.533
    1TCM     c1 1593   5.138   0.239   0.364
    1TCM    cl1 1594   4.968   0.234   0.417
    1TCM    cl2 1595   5.144   0.245   0.186
    1TCM     h1 1596   5.187   0.330   0.406
    1TCM    cl3 1597   5.223   0.094   0.421
    1TCM     c1 1598   4.574   0.456   3.675
    1TCM    cl1 1599   4.485   0.599   3.618
    1TCM    cl2 1600   4.511   0.405   3.833
    1TCM     h1 1601   4.562   0.374   3.601
    1TCM    cl3 1602   4.747   0.496   3.691
    1TCM     c1 1603   3.612   5.122   4.439
    1TCM    cl1 1604   3.719   5.260   4.405
    1TCM    cl2 1605   3.661   4.984   4.338
    1TCM     h1 1606   3.620   5.094   4.546
    1TCM    cl3 1607   3.444   5.166   4.401
    1TCM     c1 1608   1.366   1.923   1.550
    1TCM    cl1 1609   1.319   2.092   1.577
    1TCM    cl2 1610   1.221   1.821   1.543
    1TCM     h1 1611   1.421   1.916   1.454
    1TCM    cl3 1612   1.471   1.869   1.683
    1TCM     c1 1613   5.265   0.193   1.437
    1TCM    cl1 1614   5.339   0.090   1.313
    1TCM    cl2 1615   5.121   0.112   1.504
    1TCM     h1 1616   5.338   0.211   1.519
    1TCM    cl3 1617   5.217   0.348   1.365
    1TCM     c1 1618   3.323   1.796   2.840
    1TCM    cl1 1619   3.456   1.812   2.723
    1TCM    cl2 1620   3.376   1.692   2.975
    1TCM     h1 1621   3.296   1.896   2.879
    1TCM    cl3 1622   3.182   1.722   2.761
    1TCM     c1 1623   3.644   0.357   0.496
    1TCM    cl1 1624   3.792   0.437   0.553
    1TCM    cl2 1625   3.642   0.356   0.318
    1TCM     h1 1626   3.642   0.252   0.534
    1TCM    cl3 1627   3.502   0.445   0.557
    1TCM     c1 1628   0.689   1.404   2.006
    1TCM    cl1 1629   0.811   1.458   2.124
    1TCM    cl2 1630   0.624   1.247   2.057
    1TCM     h1 1631   0.607   1.479   2.001
    1TCM    cl3 1632   0.765   1.388   1.846
    1TCM     c1 1633   2.789   3.845   1.356
    1TCM    cl1 1634   2.687   3.752   1.243
    1TCM    cl2 1635   2.773   3.777   1.519
    1TCM     h1 1636   2.895   3.838   1.324
    1TCM    cl3 1637   2.738   4.015   1.356
    1TCM     c1 1638   2.413   2.556   4.411
    1TCM    cl1 1639   2.372   2.388   4.371
    1TCM    cl2 1640   2.386   2.659   4.269
    1TCM     h1 1641   2.349   2.590   4.495
    1TCM    cl3 1642   2.584   2.565   4.460
    1TCM     c1 1643   0.563   2.292   0.838
    1TCM    cl1 1644   0.425   2.340   0.737
    1TCM    cl2 1645   0.535   2.344   1.005
    1TCM     h1 1646   0.574   2.181   0.835
    1TCM    cl3 1647   0.711   2.368   0.776
    1TCM     c1 1648   2.516   0.539   1.678
    1TCM    cl1 1649   2.424   0.497   1.531
    1TCM    cl2 1650   2.684   0.483   1.660
    1TCM     h1 1651   2.514   0.649   1.692
    1TCM    cl3 1652   2.441   0.460   1.819
    1TCM     c1 1653   2.476   3.670   0.129
    1TCM    cl1 1654   2.542   3.526   0.048
    1TCM    cl2 1655   2.530   3.671   0.299
    1TCM     h1 1656   2.512   3.761   0.078
    1TCM    cl3 1657   2.299   3.665   0.123
    1TCM     c1 1658   0.162   3.454   4.972
    1TCM    cl1 1659   0.038   3.339   5.027
    1TCM    cl2 1660   0.132   3.497   4.802
    1TCM     h1 1661   0.158   3.545   5.035
    1TCM    cl3 1662   0.323   3.378   4.987
    1TCM     c1 1663   3.899   1.868   1.847
    1TCM    cl1 1664   3.931   2.039   1.884
    1TCM    cl2 1665   3.818   1.791   1.985
    1TCM     h1 1666   3.834   1.861   1.757
    1TCM    cl3 1667   4.053   1.785   1.814
    1TCM     c1 1668   2.270   2.870   2.764
    1TCM    cl1 1669   2.301   2.708   2.697
    1TCM    cl2 1670   2.320   2.875   2.935
    1TCM     h1 1671   2.327   2.946   2.707
    1TCM    cl3 1672   2.096   2.907   2.753
    1TCM     c1 1673   4.490   2.800   0.767
    1TCM    cl1 1674   4.477   2.975   0.794
    1TCM    cl2 1675   4.661   2.755   0.751
    1TCM     h1 1676   4.445   2.746   0.854
    1TCM    cl3 1677   4.403   2.756   0.619
    1TCM     c1 1678   5.145   4.297   1.775
    1TCM    cl1 1679   5.109   4.469   1.801
    1TCM    cl2 1680   5.008   4.199   1.832
    1TCM     h1 1681   5.161   4.279   1.667
    1TCM    cl3 1682   5.291   4.252   1.865
    1TCM     c1 1683   3.246   1.711   3.810
    1TCM    cl1 1684   3.363   1.814   3.725
    1TCM    cl2 1685   3.185   1.795   3.954
    1TCM     h1 1686   3.161   1.688   3.742
    1TCM    cl3 1687   3.325   1.559   3.859
    1TCM     c1 1688   0.903   3.814   2.456
    1TCM    cl1 1689   0.983   3.682   2.543
    1TCM    cl2 1690   0.900   3.777   2.282
    1TCM     h1 1691   0.799   3.825   2.493
    1TCM    cl3 1692   0.992   3.966   2.483
    1TCM     c1 1693   3.005   4.102   2.287
    1TCM    cl1 1694   2.874   4.222   2.287
    1TCM    cl2 1695   3.110   4.128   2.427
    1TCM     h1 1696   2.961   4.000   2.292
    1TCM    cl3 1697   3.100   4.118   2.137
    1TCM     c1 1698   1.368   2.976   2.384
    1TCM    cl1 1699   1.399   3.151   2.383
    1TCM    cl2 1700   1.443   2.904   2.528
    1TCM     h1 1701   1.259   2.958   2.385
    1TCM    cl3 1702   1.439   2.903   2.237
    1TCM     c1 1703   4.598   0.159   5.172
    1TCM    cl1 1704   4.755   0.147   5.089
    1TCM    cl2 1705   4.625   0.211   5.340
    1TCM     h1 1706   4.535   0.233   5.120
    1TCM    cl3 1707   4.518   0.000   5.172
    1TCM     c1 1708   4.178   4.945   2.368
    1TCM    cl1 1709   4.204   5.086   2.263
    1TCM    cl2 1710   4.096   4.817   2.276
    1TCM     h1 1711   4.276   4.907   2.405
    1TCM    cl3 1712   4.077   4.992   2.507
    1TCM     c1 1713   1.410   5.051   3.095
    1TCM    cl1 1714   1.484   5.018   2.937
    1TCM    cl2 1715   1.521   5.001   3.225
    1TCM     h1 1716   1.389   5.160   3.105
    1TCM    cl3 1717   1.257   4.960   3.110
    1TCM     c1 1718   3.457   4.968   3.812
    1TCM    cl1 1719   3.429   4.799   3.860
    1TCM    cl2 1720   3.401   4.992   3.645
    1TCM     h1 1721   3.401   5.035   3.879
    1TCM    cl3 1722   3.631   5.005   3.821
    1TCM     c1 1723   3.627   2.193   4.864
    1TCM    cl1 1724   3.714   2.037   4.861
    1TCM    cl2 1725   3.721   2.315   4.775
    1TCM     h1 1726   3.528   2.180   4.816
    1TCM    cl3 1727   3.606   2.245   5.033
    1TCM     c1 1728   4.846   4.259   2.483
    1TCM    cl1 1729   4.877   4.286   2.310
    1TCM    cl2 1730   4.698   4.162   2.503
    1TCM     h1 1731   4.932   4.205   2.528
    1TCM    cl3 1732   4.825   4.416   2.565
    1TCM     c1 1733   5.062   3.135   2.483
    1TCM    cl1 1734   5.160   2.989   2.514
    1TCM    cl2 1735   5.080   3.248   2.618
    1TCM     h1 1736   5.097   3.183   2.389
    1TCM    cl3 1737   4.892   3.088   2.466
    1TCM     c1 1738   1.418   2.326   0.922
    1TCM    cl1 1739   1.381   2.255   0.763
    1TCM    cl2 1740   1.413   2.198   1.046
    1TCM     h1 1741   1.519   2.371   0.920
    1TCM    cl3 1742   1.298   2.451   0.961
    1TCM     c1 1743   1.118   1.986   4.087
    1TCM    cl1 1744   1.239   2.104   4.034
    1TCM    cl2 1745   1.194   1.825   4.101
    1TCM     h1 1746   1.077   2.016   4.185
    1TCM    cl3 1747   0.986   1.978   3.967
    1TCM     c1 1748   4.155   3.525   1.328
    1TCM    cl1 1749   4.076   3.375   1.273
    1TCM    cl2 1750   4.190   3.513   1.502
    1TCM     h1 1751   4.250   3.539   1.272
    1TCM    cl3 1752   4.047   3.662   1.299
    1TCM     c1 1753   0.266   5.155   2.143
    1TCM    cl1 1754   0.167   5.236   2.267
    1TCM    cl2 1755   0.338   5.277   2.036
    1TCM     h1 1756   0.346   5.097   2.193
    1TCM    cl3 1757   0.163   5.045   2.048
    1TCM     c1 1758   1.345   2.533   1.768
    1TCM    cl1 1759   1.300   2.697   1.821
    1TCM    cl2 1760   1.410   2.540   1.603
    1TCM     h1 1761   1.422   2.492   1.837
    1TCM    cl3 1762   1.201   2.428   1.771
    1TCM     c1 1763   0.844   2.336   4.120
    1TCM    cl1 1764   0.765   2.221   4.010
    1TCM    cl2 1765   0.722   2.444   4.191
    1TCM     h1 1766   0.896   2.280   4.201
    1TCM    cl3 1767   0.964   2.432   4.030
    1TCM     c1 1768   1.112   0.891   5.177
    1TCM    cl1 1769   1.018   0.937   5.033
    1TCM    cl2 1770   1.003   0.829   5.302
    1TCM     h1 1771   1.186   0.812   5.149
    1TCM    cl3 1772   1.199   1.033   5.239
    1TCM     c1 1773   3.650   3.016   0.957
    1TCM    cl1 1774   3.716   3.180   0.933
    1TCM    cl2 1775   3.730   2.941   1.097
    1TCM     h1 1776   3.541   3.022   0.976
    1TCM    cl3 1777   3.680   2.918   0.812
    1TCM     c1 1778   3.689   4.986   3.016
    1TCM    cl1 1779   3.703   5.074   3.170
    1TCM    cl2 1780   3.688   5.102   2.881
    1TCM     h1 1781   3.775   4.917   3.005
    1TCM    cl3 1782   3.537   4.892   3.014
    1TCM     c1 1783   4.627   3.211   5.167
    1TCM    cl1 1784   4.620   3.253   5.340
    1TCM    cl2 1785   4.499   3.299   5.080
    1TCM     h1 1786   4.726   3.239   5.126
    1TCM    cl3 1787   4.602   3.036   5.148
    1TCM     c1 1788   4.464   2.819   2.961
    1TCM    cl1 1789   4.458   2.996   2.943
    1TCM    cl2 1790   4.309   2.749   2.909
    1TCM     h1 1791   4.546   2.779   2.898
    1TCM    cl3 1792   4.494   2.778   3.131
    1TCM     c1 1793   2.305   4.524   3.568
    1TCM    cl1 1794   2.213   4.543   3.416
    1TCM    cl2 1795   2.341   4.352   3.594
    1TCM     h1 1796   2.399   4.582   3.561
    1TCM    cl3 1797   2.207   4.586   3.703
    1TCM     c1 1798   3.675   2.458   0.846
    1TCM    cl1 1799   3.707   2.328   0.963
    1TCM    cl2 1800   3.750   2.415   0.690
    1TCM     h1 1801   3.566   2.469   0.832
    1TCM    cl3 1802   3.744   2.610   0.905
    1TCM     c1 1803   2.503   1.985   2.679
    1TCM    cl1 1804   2.555   1.827   2.741
    1TCM    cl2 1805   2.391   2.060   2.795
    1TCM     h1 1806   2.591   2.051   2.665
    1TCM    cl3 1807   2.421   1.963   2.523
    1TCM     c1 1808   2.919   2.890   3.453
    1TCM    cl1 1809   2.982   2.989   3.319
    1TCM    cl2 1810   2.840   2.995   3.572
    1TCM     h1 1811   2.846   2.817   3.414
    1TCM    cl3 1812   3.054   2.803   3.531
    1TCM     c1 1813   5.031   1.897   1.666
    1TCM    cl1 1814   5.127   1.920   1.518
    1TCM    cl2 1815   4.860   1.874   1.622
    1TCM     h1 1816   5.067   1.807   1.720
    1TCM    cl3 1817   5.046   2.040   1.770
    1TCM     c1 1818   1.640   1.368   3.599
    1TCM    cl1 1819   1.732   1.352   3.750
    1TCM    cl2 1820   1.691   1.241   3.485
    1TCM     h1 1821   1.532   1.357   3.620
    1TCM    cl3 1822   1.670   1.528   3.527
    1TCM     c1 1823   3.430   4.193   2.227
    1TCM    cl1 1824   3.595   4.238   2.275
    1TCM    cl2 1825   3.314   4.251   2.348
    1TCM     h1 1826   3.406   4.238   2.128
    1TCM    cl3 1827   3.418   4.016   2.215
    1TCM     c1 1828   2.077   3.592   0.490
    1TCM    cl1 1829   1.949   3.501   0.573
    1TCM    cl2 1830   2.014   3.653   0.335
    1TCM     h1 1831   2.109   3.677   0.553
    1TCM    cl3 1832   2.215   3.484   0.460
    1TCM     c1 1833   4.621   2.132   3.228
    1TCM    cl1 1834   4.707   2.255   3.132
    1TCM    cl2 1835   4.610   2.187   3.397
    1TCM     h1 1836   4.519   2.117   3.187
    1TCM    cl3 1837   4.711   1.978   3.221
    1TCM     c1 1838   2.426   3.902   1.393
    1TCM    cl1 1839   2.460   4.019   1.523
    1TCM    cl2 1840   2.474   3.972   1.237
    1TCM     h1 1841   2.484   3.809   1.411
    1TCM    cl3 1842   2.252   3.865   1.391
    1TCM     c1 1843   1.049   4.943   4.729
    1TCM    cl1 1844   0.928   4.813   4.739
    1TCM    cl2 1845   1.184   4.906   4.840
    1TCM     h1 1846   1.087   4.950   4.626
    1TCM    cl3 1847   0.975   5.097   4.777
    1TCM     c1 1848   3.625   3.215   3.727
    1TCM    cl1 1849   3.627   3.212   3.549
    1TCM    cl2 1850   3.623   3.048   3.789
    1TCM     h1 1851   3.715   3.267   3.764
    1TCM    cl3 1852   3.479   3.300   3.783
    1TCM     c1 1853   3.724   3.892   1.262
    1TCM    cl1 1854   3.894   3.840   1.252
    1TCM    cl2 1855   3.674   3.959   1.105
    1TCM     h1 1856   3.660   3.805   1.286
    1TCM    cl3 1857   3.706   4.016   1.387
    1TCM     c1 1858   2.577   1.312   3.983
    1TCM    cl1 1859   2.446   1.314   3.863
    1TCM    cl2 1860   2.517   1.380   4.136
    1TCM     h1 1861   2.610   1.208   4.000
    1TCM    cl3 1862   2.713   1.409   3.924
    1TCM     c1 1863   2.137   3.584   4.885
    1TCM    cl1 1864   2.047   3.620   5.035
    1TCM    cl2 1865   2.164   3.409   4.873
    1TCM     h1 1866   2.078   3.619   4.798
    1TCM    cl3 1867   2.293   3.668   4.888
    1TCM     c1 1868   4.281   3.898   3.229
    1TCM    cl1 1869   4.433   3.960   3.162
    1TCM    cl2 1870   4.315   3.760   3.336
    1TCM     h1 1871   4.231   3.978   3.287
    1TCM    cl3 1872   4.174   3.846   3.097
    1TCM     c1 1873   3.073   1.569   5.005
    1TCM    cl1 1874   3.199   1.670   5.081
    1TCM    cl2 1875   3.110   1.551   4.832
    1TCM     h1 1876   3.072   1.469   5.053
    1TCM    cl3 1877   2.915   1.647   5.024
    1TCM     c1 1878   0.660   0.569   4.142
    1TCM    cl1 1879   0.602   0.594   4.308
    1TCM    cl2 1880   0.522   0.543   4.034
    1TCM     h1 1881   0.717   0.658   4.109
    1TCM    cl3 1882   0.766   0.426   4.138
    1TCM     c1 1883   3.546   0.901   2.065
    1TCM    cl1 1884   3.672   0.976   1.964
    1TCM    cl2 1885   3.482   0.758   1.982
    1TCM     h1 1886   3.590   0.871   2.163
    1TCM    cl3 1887   3.415   1.018   2.092
    1TCM     c1 1888   2.691   4.551   2.515
    1TCM    cl1 1889   2.531   4.622   2.542
    1TCM    cl2 1890   2.775   4.639   2.385
    1TCM     h1 1891   2.751   4.558   2.608
    1TCM    cl3 1892   2.674   4.380   2.469
    1TCM     c1 1893   0.868   1.026   2.188
    1TCM    cl1 1894   0.851   1.084   2.020
    1TCM    cl2 1895   0.731   0.920   2.228
    1TCM     h1 1896   0.963   0.970   2.198
    1TCM    cl3 1897   0.870   1.166   2.298
    1TCM     c1 1898   2.405   4.354   3.172
    1TCM    cl1 1899   2.457   4.516   3.122
    1TCM    cl2 1900   2.547   4.257   3.218
    1TCM     h1 1901   2.336   4.362   3.259
    1TCM    cl3 1902   2.320   4.274   3.038
    1TCM     c1 1903   4.257   1.898   4.761
    1TCM    cl1 1904   4.359   1.799   4.654
    1TCM    cl2 1905   4.318   1.886   4.928
    1TCM     h1 1906   4.260   2.004   4.728
    1TCM    cl3 1907   4.090   1.839   4.754
    1TCM     c1 1908   0.296   0.596   0.229
    1TCM    cl1 1909   0.254   0.540   0.066
    1TCM    cl2 1910   0.200   0.739   0.269
    1TCM     h1 1911   0.275   0.515   0.303
    1TCM    cl3 1912   0.469   0.637   0.235
    1TCM     c1 1913   3.884   3.894   5.154
    1TCM    cl1 1914   3.931   4.008   5.027
    1TCM    cl2 1915   3.899   3.973   5.313
    1TCM     h1 1916   3.778   3.863   5.139
    1TCM    cl3 1917   3.989   3.751   5.148
    1TCM     c1 1918   2.030   2.301   2.685
    1TCM    cl1 1919   2.179   2.388   2.640
    1TCM    cl2 1920   1.892   2.373   2.600
    1TCM     h1 1921   2.040   2.194   2.657
    1TCM    cl3 1922   2.006   2.314   2.861
    1TCM     c1 1923   2.107   4.124   1.548
    1TCM    cl1 1924   1.996   4.188   1.672
    1TCM    cl2 1925   2.275   4.143   1.604
    1TCM     h1 1926   2.086   4.016   1.532
    1TCM    cl3 1927   2.085   4.213   1.396
    1TCM     c1 1928   4.074   3.601   1.891
    1TCM    cl1 1929   4.079   3.498   1.747
    1TCM    cl2 1930   4.124   3.766   1.848
    1TCM     h1 1931   3.970   3.603   1.931
    1TCM    cl3 1932   4.184   3.536   2.015
    1TCM     c1 1933   2.630   4.638   0.678
    1TCM    cl1 1934   2.631   4.500   0.566
    1TCM    cl2 1935   2.666   4.581   0.842
    1TCM     h1 1936   2.708   4.711   0.646
    1TCM    cl3 1937   2.470   4.716   0.675
    1TCM     c1 1938   2.834   2.351   4.681
    1TCM    cl1 1939   2.826   2.276   4.842
    1TCM    cl2 1940   2.809   2.227   4.556
    1TCM     h1 1941   2.754   2.428   4.673
    1TCM    cl3 1942   2.993   2.427   4.659
    1TCM     c1 1943   1.560   3.340   2.688
    1TCM    cl1 1944   1.474   3.435   2.812
    1TCM    cl2 1945   1.604   3.447   2.553
    1TCM     h1 1946   1.651   3.296   2.733
    1TCM    cl3 1947   1.454   3.210   2.629
    1TCM     c1 1948   0.714   4.154   4.901
    1TCM    cl1 1949   0.883   4.109   4.929
    1TCM    cl2 1950   0.634   4.186   5.057
    1TCM     h1 1951   0.710   4.245   4.838
    1TCM    cl3 1952   0.630   4.021   4.818
    1TCM     c1 1953   0.164   2.391   1.825
    1TCM    cl1 1954   0.038   2.363   1.703
    1TCM    cl2 1955   0.089   2.434   1.980
    1TCM     h1 1956   0.225   2.299   1.838
    1TCM    cl3 1957   0.270   2.524   1.771
    1TCM     c1 1958   4.443   1.022   4.267
    1TCM    cl1 1959   4.490   1.190   4.299
    1TCM    cl2 1960   4.581   0.933   4.199
    1TCM     h1 1961   4.411   0.974   4.362
    1TCM    cl3 1962   4.307   1.019   4.152
    1TCM     c1 1963   3.996   1.103   0.326
    1TCM    cl1 1964   4.028   1.276   0.301
    1TCM    cl2 1965   3.870   1.084   0.450
    1TCM     h1 1966   3.961   1.057   0.231
    1TCM    cl3 1967   4.144   1.022   0.380
    1TCM     c1 1968   1.920   1.746   3.920
    1TCM    cl1 1969   1.875   1.654   3.774
    1TCM    cl2 1970   1.786   1.854   3.965
    1TCM     h1 1971   1.941   1.676   4.003
    1TCM    cl3 1972   2.065   1.843   3.886
    1TCM     c1 1973   0.257   1.780   1.923
    1TCM    cl1 1974   0.108   1.841   1.847
    1TCM    cl2 1975   0.227   1.751   2.095
    1TCM     h1 1976   0.287   1.686   1.874
    1TCM    cl3 1977   0.386   1.901   1.905
    1TCM     c1 1978   1.649   0.559   3.430
    1TCM    cl1 1979   1.567   0.686   3.524
    1TCM    cl2 1980   1.569   0.542   3.272
    1TCM     h1 1981   1.755   0.588   3.415
    1TCM    cl3 1982   1.641   0.405   3.518
    1TCM     c1 1983   2.283   4.213   1.175
    1TCM    cl1 1984   2.318   4.238   1.347
    1TCM    cl2 1985   2.388   4.318   1.077
    1TCM     h1 1986   2.302   4.107   1.148
    1TCM    cl3 1987   2.113   4.253   1.142
    1TCM     c1 1988   3.461   1.735   4.323
    1TCM    cl1 1989   3.462   1.646   4.169
    1TCM    cl2 1990   3.309   1.702   4.410
    1TCM     h1 1991   3.547   1.703   4.385
    1TCM    cl3 1992   3.473   1.910   4.290
    1TCM     c1 1993   2.292   3.732   4.224
    1TCM    cl1 1994   2.321   3.852   4.352
    1TCM    cl2 1995   2.274   3.815   4.068
    1TCM     h1 1996   2.378   3.661   4.219
    1TCM    cl3 1997   2.143   3.642   4.260
    1TCM     c1 1998   3.154   0.984   4.946
    1TCM    cl1 1999   3.246   0.932   4.803
    1TCM    cl2 2000   3.224   1.134   5.011
    1TCM     h1 2001   3.048   1.001   4.918
    1TCM    cl3 2002   3.161   0.857   5.071
    1TCM     c1 2003   3.131   2.787   2.399
    1TCM    cl1 2004   3.247   2.863   2.287
    1TCM    cl2 2005   3.162   2.845   2.564
    1TCM     h1 2006   3.028   2.814   2.369
    1TCM    cl3 2007   3.151   2.611   2.394
    1TCM     c1 2008   4.754   4.228   0.861
    1TCM    cl1 2009   4.770   4.400   0.822
    1TCM    cl2 2010   4.826   4.196   1.020
    1TCM     h1 2011   4.647   4.200   0.862
    1TCM    cl3 2012   4.838   4.131   0.737
    1TCM     c1 2013   2.125   2.926   4.423
    1TCM    cl1 2014   2.254   3.047   4.402
    1TCM    cl2 2015   2.019   2.976   4.558
    1TCM     h1 2016   2.065   2.919   4.330
    1TCM    cl3 2017   2.197   2.768   4.460
    1TCM     c1 2018   2.572   4.078   4.451
    1TCM    cl1 2019   2.483   4.011   4.313
    1TCM    cl2 2020   2.686   3.957   4.514
    1TCM     h1 2021   2.628   4.168   4.419
    1TCM    cl3 2022   2.457   4.123   4.580
    1TCM     c1 2023   4.407   5.157   2.683
    1TCM    cl1 2024   4.542   5.253   2.746
    1TCM    cl2 2025   4.308   5.097   2.818
    1TCM     h1 2026   4.344   5.220   2.616
    1TCM    cl3 2027   4.471   5.019   2.590
    1TCM     c1 2028   1.824   3.656   2.057
    1TCM    cl1 2029   1.674   3.735   2.005
    1TCM    cl2 2030   1.795   3.566   2.208
    1TCM     h1 2031   1.858   3.586   1.978
    1TCM    cl3 2032   1.950   3.779   2.085
    1TCM     c1 2033   3.615   0.735   0.852
    1TCM    cl1 2034   3.721   0.793   0.983
    1TCM    cl2 2035   3.480   0.642   0.922
    1TCM     h1 2036   3.576   0.822   0.796
    1TCM    cl3 2037   3.708   0.630   0.743
    1TCM     c1 2038   0.314   3.761   3.039
    1TCM    cl1 2039   0.271   3.827   3.198
    1TCM    cl2 2040   0.264   3.876   2.912
    1TCM     h1 2041   0.424   3.746   3.033
    1TCM    cl3 2042   0.231   3.606   3.014
    1TCM     c1 2043   2.818   2.707   4.928
    1TCM    cl1 2044   2.688   2.688   4.808
    1TCM    cl2 2045   2.763   2.648   5.086
    1TCM     h1 2046   2.907   2.648   4.895
    1TCM    cl3 2047   2.863   2.879   4.941
    1TCM     c1 2048   2.278   0.655   0.691
    1TCM    cl1 2049   2.245   0.713   0.526
    1TCM    cl2 2050   2.124   0.641   0.780
    1TCM     h1 2051   2.327   0.556   0.686
    1TCM    cl3 2052   2.383   0.771   0.774
    1TCM     c1 2053   2.951   0.326   2.289
    1TCM    cl1 2054   2.999   0.325   2.460
    1TCM    cl2 2055   2.783   0.381   2.275
    1TCM     h1 2056   3.017   0.394   2.232
    1TCM    cl3 2057   2.965   0.161   2.223
    1TCM     c1 2058   1.784   3.578   4.662
    1TCM    cl1 2059   1.834   3.749   4.673
    1TCM    cl2 2060   1.915   3.475   4.723
    1TCM     h1 2061   1.693   3.562   4.724
    1TCM    cl3 2062   1.749   3.537   4.493
    1TCM     c1 2063   0.753   2.829   0.773
    1TCM    cl1 2064   0.892   2.889   0.679
    1TCM    cl2 2065   0.702   2.954   0.890
    1TCM     h1 2066   0.669   2.806   0.705
    1TCM    cl3 2067   0.800   2.681   0.861
    1TCM     c1 2068   2.991   0.219   3.430
    1TCM    cl1 2069   2.916   0.310   3.564
    1TCM    cl2 2070   2.977   0.045   3.462
    1TCM     h1 2071   2.939   0.244   3.336
    1TCM    cl3 2072   3.162   0.264   3.417
    1TCM     c1 2073   2.091   3.048   1.164
    1TCM    cl1 2074   2.166   3.029   1.324
    1TCM    cl2 2075   1.915   3.027   1.178
    1TCM     h1 2076   2.113   3.149   1.125
    1TCM    cl3 2077   2.157   2.925   1.053
    1TCM     c1 2078   3.111   5.159   4.028
    1TCM    cl1 2079   3.270   5.236   4.006
    1TCM    cl2 2080   3.134   4.991   4.082
    1TCM     h1 2081   3.053   5.215   4.104
    1TCM    cl3 2082   3.023   5.160   3.873
    1TCM     c1 2083   2.981   3.309   0.116
    1TCM    cl1 2084   2.848   3.289   0.000
    1TCM    cl2 2085   3.123   3.377   0.033
    1TCM     h1 2086   2.950   3.377   0.198
    1TCM    cl3 2087   3.024   3.150   0.184
    1TCM     c1 2088   0.309   0.342   4.270
    1TCM    cl1 2089   0.310   0.214   4.393
    1TCM    cl2 2090   0.322   0.500   4.350
    1TCM     h1 2091   0.396   0.328   4.201
    1TCM    cl3 2092   0.158   0.334   4.177
    1TCM     c1 2093   2.466   2.644   3.947
    1TCM    cl1 2094   2.352   2.778   3.919
    1TCM    cl2 2095   2.579   2.690   4.077
    1TCM     h1 2096   2.410   2.554   3.978
    1TCM    cl3 2097   2.557   2.611   3.798
    1TCM     c1 2098   0.748   1.386   0.160
    1TCM    cl1 2099   0.615   1.500   0.188
    1TCM    cl2 2100   0.729   1.311   0.000
    1TCM     h1 2101   0.845   1.440   0.164
    1TCM    cl3 2102   0.745   1.260   0.285
    1TCM     c1 2103   4.668   2.989   1.949
    1TCM    cl1 2104   4.742   3.019   1.790
    1TCM    cl2 2105   4.563   2.845   1.939
    1TCM     h1 2106   4.747   2.971   2.024
    1TCM    cl3 2107   4.570   3.129   1.997
    1TCM     c1 2108   3.110   3.238   0.598
    1TCM    cl1 2109   3.059   3.395   0.664
    1TCM    cl2 2110   3.260   3.186   0.679
    1TCM     h1 2111   3.031   3.163   0.616
    1TCM    cl3 2112   3.139   3.253   0.424
    1TCM     c1 2113   2.585   4.878   1.565
    1TCM    cl1 2114   2.515   4.791   1.703
    1TCM    cl2 2115   2.663   5.027   1.623
    1TCM     h1 2116   2.660   4.814   1.514
    1TCM    cl3 2117   2.455   4.921   1.450
    1TCM     c1 2118   2.717   4.045   4.863
    1TCM    cl1 2119   2.887   4.023   4.816
    1TCM    cl2 2120   2.674   3.929   4.991
    1TCM     h1 2121   2.703   4.149   4.902
    1TCM    cl3 2122   2.612   4.019   4.722
    1TCM     c1 2123   3.922   3.923   2.796
    1TCM    cl1 2124   4.038   3.987   2.914
    1TCM    cl2 2125   3.990   3.939   2.632
    1TCM     h1 2126   3.902   3.816   2.817
    1TCM    cl3 2127   3.770   4.016   2.806
    1TCM     c1 2128   2.336   1.524   2.510
    1TCM    cl1 2129   2.445   1.385   2.532
    1TCM    cl2 2130   2.225   1.491   2.375
    1TCM     h1 2131   2.278   1.541   2.603
    1TCM    cl3 2132   2.432   1.669   2.473
    1TCM     c1 2133   4.895   2.401   0.649
    1TCM    cl1 2134   4.717   2.411   0.652
    1TCM    cl2 2135   4.963   2.564   0.632
    1TCM     h1 2136   4.931   2.355   0.743
    1TCM    cl3 2137   4.946   2.300   0.512
    1TCM     c1 2138   4.190   0.554   3.192
    1TCM    cl1 2139   4.056   0.630   3.102
    1TCM    cl2 2140   4.136   0.513   3.356
    1TCM     h1 2141   4.222   0.462   3.140
    1TCM    cl3 2142   4.326   0.668   3.201
    1TCM     c1 2143   4.812   2.355   0.172
    1TCM    cl1 2144   4.976   2.380   0.235
    1TCM    cl2 2145   4.793   2.186   0.122
    1TCM     h1 2146   4.738   2.379   0.251
    1TCM    cl3 2147   4.786   2.462   0.032
    1TCM     c1 2148   2.029   2.532   4.400
    1TCM    cl1 2149   2.109   2.401   4.310
    1TCM    cl2 2150   1.901   2.463   4.503
    1TCM     h1 2151   2.104   2.584   4.464
    1TCM    cl3 2152   1.957   2.648   4.286
    1TCM     c1 2153   2.811   4.380   4.737
    1TCM    cl1 2154   2.637   4.362   4.770
    1TCM    cl2 2155   2.860   4.263   4.613
    1TCM     h1 2156   2.831   4.483   4.701
    1TCM    cl3 2157   2.903   4.350   4.886
    1TCM     c1 2158   1.528   5.262   0.671
    1TCM    cl1 2159   1.445   5.340   0.534
    1TCM    cl2 2160   1.666   5.167   0.610
    1TCM     h1 2161   1.565   5.340   0.740
    1TCM    cl3 2162   1.415   5.155   0.756
    1TCM     c1 2163   1.427   3.303   4.496
    1TCM    cl1 2164   1.520   3.352   4.639
    1TCM    cl2 2165   1.497   3.378   4.351
    1TCM     h1 2166   1.431   3.193   4.485
    1TCM    cl3 2167   1.258   3.355   4.513
    1TCM     c1 2168   1.154   2.334   2.469
    1TCM    cl1 2169   1.316   2.363   2.534
    1TCM    cl2 2170   1.166   2.237   2.320
    1TCM     h1 2171   1.093   2.279   2.544
    1TCM    cl3 2172   1.076   2.490   2.432
    1TCM     c1 2173   1.393   1.323   0.654
    1TCM    cl1 2174   1.257   1.428   0.703
    1TCM    cl2 2175   1.514   1.319   0.784
    1TCM     h1 2176   1.355   1.221   0.636
    1TCM    cl3 2177   1.466   1.388   0.506
    1TCM     c1 2178   0.340   5.206   3.258
    1TCM    cl1 2179   0.260   5.155   3.107
    1TCM    cl2 2180   0.514   5.228   3.229
    1TCM     h1 2181   0.295   5.301   3.293
    1TCM    cl3 2182   0.317   5.081   3.382
    1TCM     c1 2183   2.797   3.970   0.326
    1TCM    cl1 2184   2.653   3.865   0.324
    1TCM    cl2 2185   2.765   4.117   0.231
    1TCM     h1 2186   2.821   3.998   0.431
    1TCM    cl3 2187   2.935   3.883   0.254
    1TCM     c1 2188   5.125   1.851   0.912
    1TCM    cl1 2189   5.180   1.842   1.081
    1TCM    cl2 2190   5.008   1.721   0.880
    1TCM     h1 2191   5.076   1.949   0.894
    1TCM    cl3 2192   5.265   1.833   0.803
    1TCM     c1 2193   3.226   4.727   4.110
    1TCM    cl1 2194   3.112   4.757   3.977
    1TCM    cl2 2195   3.220   4.555   4.156
    1TCM     h1 2196   3.329   4.753   4.077
    1TCM    cl3 2197   3.182   4.827   4.250
    1TCM     c1 2198   0.404   3.191   3.466
    1TCM    cl1 2199   0.571   3.155   3.514
    1TCM    cl2 2200   0.357   3.085   3.330
    1TCM     h1 2201   0.336   3.174   3.551
    1TCM    cl3 2202   0.393   3.361   3.414
    1TCM     c1 2203   2.820   0.454   1.922
    1TCM    cl1 2204   2.738   0.610   1.903
    1TCM    cl2 2205   2.723   0.349   2.029
    1TCM     h1 2206   2.831   0.405   1.823
    1TCM    cl3 2207   2.980   0.479   1.994
    1TCM     c1 2208   4.834   5.022   4.338
    1TCM    cl1 2209   4.739   5.032   4.488
    1TCM    cl2 2210   4.748   4.921   4.220
    1TCM     h1 2211   4.848   5.124   4.296
    1TCM    cl3 2212   4.993   4.950   4.373
    1TCM     c1 2213   4.134   0.947   2.032
    1TCM    cl1 2214   4.057   0.818   2.125
    1TCM    cl2 2215   4.121   1.101   2.120
    1TCM     h1 2216   4.241   0.923   2.016
    1TCM    cl3 2217   4.054   0.963   1.874
    1TCM     c1 2218   2.325   4.754   2.409
    1TCM    cl1 2219   2.346   4.600   2.322
    1TCM    cl2 2220   2.257   4.722   2.570
    1TCM     h1 2221   2.424   4.804   2.419
    1TCM    cl3 2222   2.215   4.859   2.317
    1TCM     c1 2223   2.284   2.644   0.900
    1TCM    cl1 2224   2.391   2.530   0.816
    1TCM    cl2 2225   2.311   2.632   1.075
    1TCM     h1 2226   2.307   2.747   0.867
    1TCM    cl3 2227   2.115   2.605   0.863
    1TCM     c1 2228   2.151   4.728   0.371
    1TCM    cl1 2229   2.272   4.651   0.266
    1TCM    cl2 2230   2.057   4.846   0.277
    1TCM     h1 2231   2.083   4.651   0.413
    1TCM    cl3 2232   2.234   4.812   0.504
    1TCM     c1 2233   3.629   1.109   2.431
    1TCM    cl1 2234   3.527   0.987   2.510
    1TCM    cl2 2235   3.703   1.040   2.285
    1TCM     h1 2236   3.568   1.197   2.403
    1TCM    cl3 2237   3.757   1.160   2.543
    1TCM     c1 2238   3.744   4.018   0.851
    1TCM    cl1 2239   3.727   4.118   0.706
    1TCM    cl2 2240   3.847   3.877   0.815
    1TCM     h1 2241   3.791   4.078   0.932
    1TCM    cl3 2242   3.584   3.962   0.904
    1TCM     c1 2243   1.729   4.312   2.080
    1TCM    cl1 2244   1.879   4.325   1.986
    1TCM    cl2 2245   1.752   4.386   2.240
    1TCM     h1 2246   1.647   4.365   2.027
    1TCM    cl3 2247   1.686   4.141   2.100
    1TCM     c1 2248   5.046   2.779   3.033
    1TCM    cl1 2249   4.903   2.754   2.930
    1TCM    cl2 2250   5.003   2.747   3.203
    1TCM     h1 2251   5.127   2.710   3.002
    1TCM    cl3 2252   5.102   2.947   3.017
    1TCM     c1 2253   1.601   1.320   2.270
    1TCM    cl1 2254   1.548   1.398   2.421
    1TCM    cl2 2255   1.459   1.286   2.168
    1TCM     h1 2256   1.670   1.387   2.216
    1TCM    cl3 2257   1.684   1.167   2.309
    1TCM     c1 2258   1.078   4.365   0.264
    1TCM    cl1 2259   1.140   4.255   0.139
    1TCM    cl2 2260   1.140   4.315   0.423
    1TCM     h1 2261   1.111   4.469   0.242
    1TCM    cl3 2262   0.900   4.359   0.265
    1TCM     c1 2263   3.118   2.776   0.848
    1TCM    cl1 2264   3.255   2.863   0.922
    1TCM    cl2 2265   2.992   2.749   0.971
    1TCM     h1 2266   3.076   2.836   0.766
    1TCM    cl3 2267   3.174   2.619   0.785
    1TCM     c1 2268   0.625   1.980   2.521
    1TCM    cl1 2269   0.456   1.991   2.575
    1TCM    cl2 2270   0.729   1.935   2.658
    1TCM     h1 2271   0.634   1.904   2.441
    1TCM    cl3 2272   0.677   2.138   2.457
    1TCM     c1 2273   2.611   0.778   4.997
    1TCM    cl1 2274   2.620   0.830   4.827
    1TCM    cl2 2275   2.736   0.863   5.091
    1TCM     h1 2276   2.511   0.803   5.038
    1TCM    cl3 2277   2.637   0.603   5.006
    1TCM     c1 2278   0.421   4.314   4.216
    1TCM    cl1 2279   0.524   4.450   4.165
    1TCM    cl2 2280   0.252   4.369   4.228
    1TCM     h1 2281   0.428   4.232   4.142
    1TCM    cl3 2282   0.475   4.255   4.375
    1TCM     c1 2283   5.027   3.986   1.571
    1TCM    cl1 2284   4.947   4.010   1.728
    1TCM    cl2 2285   5.198   3.943   1.598
    1TCM     h1 2286   4.977   3.904   1.516
    1TCM    cl3 2287   5.018   4.136   1.477
    1TCM     c1 2288   2.576   2.309   0.433
    1TCM    cl1 2289   2.602   2.229   0.590
    1TCM    cl2 2290   2.465   2.212   0.334
    1TCM     h1 2291   2.532   2.410   0.450
    1TCM    cl3 2292   2.732   2.326   0.349
    1TCM     c1 2293   5.186   5.033   3.601
    1TCM    cl1 2294   5.135   5.161   3.488
    1TCM    cl2 2295   5.217   5.105   3.760
    1TCM     h1 2296   5.105   4.957   3.609
    1TCM    cl3 2297   5.334   4.956   3.540
    1TCM     c1 2298   3.357   2.504   2.336
    1TCM    cl1 2299   3.364   2.645   2.445
    1TCM    cl2 2300   3.351   2.560   2.168
    1TCM     h1 2301   3.448   2.441   2.351
    1TCM    cl3 2302   3.212   2.408   2.372
    1TCM     c1 2303   4.070   1.261   5.215
    1TCM    cl1 2304   4.061   1.127   5.098
    1TCM    cl2 2305   4.212   1.240   5.319
    1TCM     h1 2306   4.079   1.357   5.160
    1TCM    cl3 2307   3.923   1.263   5.314
    1TCM     c1 2308   1.109   2.000   4.484
    1TCM    cl1 2309   1.179   1.933   4.633
    1TCM    cl2 2310   0.948   1.929   4.456
    1TCM     h1 2311   1.100   2.110   4.494
    1TCM    cl3 2312   1.215   1.961   4.347
    1TCM     c1 2313   0.405   0.379   2.177
    1TCM    cl1 2314   0.419   0.556   2.188
    1TCM    cl2 2315   0.395   0.330   2.006
    1TCM     h1 2316   0.493   0.331   2.224
    1TCM    cl3 2317   0.257   0.326   2.262
    1TCM     c1 2318   3.840   0.463   1.079
    1TCM    cl1 2319   3.767   0.325   0.993
    1TCM    cl2 2320   3.875   0.593   0.962
    1TCM     h1 2321   3.769   0.500   1.156
    1TCM    cl3 2322   3.991   0.411   1.156
    1TCM     c1 2323   3.129   2.275   3.638
    1TCM    cl1 2324   3.299   2.223   3.648
    1TCM    cl2 2325   3.023   2.134   3.659
    1TCM     h1 2326   3.109   2.349   3.718
    1TCM    cl3 2327   3.099   2.349   3.480
    1TCM     c1 2328   3.741   2.880   3.545
    1TCM    cl1 2329   3.793   2.711   3.565
    1TCM    cl2 2330   3.790   2.938   3.385
    1TCM     h1 2331   3.631   2.886   3.555
    1TCM    cl3 2332   3.817   2.980   3.671
    1TCM     c1 2333   3.174   4.464   1.821
    1TCM    cl1 2334   3.202   4.378   1.974
    1TCM    cl2 2335   3.253   4.377   1.689
    1TCM     h1 2336   3.065   4.470   1.802
    1TCM    cl3 2337   3.240   4.628   1.833
    1TCM     c1 2338   0.535   1.327   4.198
    1TCM    cl1 2339   0.362   1.307   4.231
    1TCM    cl2 2340   0.627   1.199   4.281
    1TCM     h1 2341   0.553   1.321   4.089
    1TCM    cl3 2342   0.589   1.486   4.258
    1TCM     c1 2343   0.384   1.856   1.580
    1TCM    cl1 2344   0.242   1.948   1.635
    1TCM    cl2 2345   0.463   1.779   1.719
    1TCM     h1 2346   0.352   1.778   1.508
    1TCM    cl3 2347   0.498   1.966   1.500
    1TCM     c1 2348   0.121   2.887   1.380
    1TCM    cl1 2349   0.150   3.059   1.416
    1TCM    cl2 2350   0.275   2.798   1.388
    1TCM     h1 2351   0.050   2.845   1.454
    1TCM    cl3 2352   0.052   2.871   1.217
    1TCM     c1 2353   0.913   3.669   0.070
    1TCM    cl1 2354   0.818   3.536   0.000
    1TCM    cl2 2355   0.984   3.616   0.225
    1TCM     h1 2356   0.995   3.697   0.000
    1TCM    cl3 2357   0.808   3.809   0.098
    1TCM     c1 2358   3.745   1.145   1.759
    1TCM    cl1 2359   3.836   1.058   1.884
    1TCM    cl2 2360   3.847   1.166   1.615
    1TCM     h1 2361   3.654   1.088   1.732
    1TCM    cl3 2362   3.697   1.305   1.821
    1TCM     c1 2363   3.525   1.737   4.805
    1TCM    cl1 2364   3.431   1.660   4.935
    1TCM    cl2 2365   3.695   1.752   4.855
    1TCM     h1 2366   3.519   1.675   4.713
    1TCM    cl3 2367   3.458   1.898   4.771
    1TCM     c1 2368   0.698   3.994   4.287
    1TCM    cl1 2369   0.531   4.045   4.255
    1TCM    cl2 2370   0.704   3.902   4.439
    1TCM     h1 2371   0.734   3.930   4.204
    1TCM    cl3 2372   0.803   4.137   4.301
    1TCM     c1 2373   3.599   3.208   5.188
    1TCM    cl1 2374   3.600   3.214   5.010
    1TCM    cl2 2375   3.717   3.325   5.252
    1TCM     h1 2376   3.498   3.234   5.225
    1TCM    cl3 2377   3.643   3.045   5.242
    1TCM     c1 2378   0.974   2.659   1.553
    1TCM    cl1 2379   0.798   2.632   1.555
    1TCM    cl2 2380   1.045   2.571   1.415
    1TCM     h1 2381   0.994   2.767   1.542
    1TCM    cl3 2382   1.045   2.599   1.704
    1TCM     c1 2383   4.401   5.088   5.216
    1TCM    cl1 2384   4.306   4.938   5.215
    1TCM    cl2 2385   4.318   5.212   5.120
    1TCM     h1 2386   4.413   5.124   5.321
    1TCM    cl3 2387   4.562   5.057   5.147
    1TCM     c1 2388   4.373   1.138   0.319
    1TCM    cl1 2389   4.240   1.128   0.201
    1TCM    cl2 2390   4.438   0.976   0.349
    1TCM     h1 2391   4.453   1.204   0.278
    1TCM    cl3 2392   4.312   1.207   0.471
    1TCM     c1 2393   3.096   0.825   3.508
    1TCM    cl1 2394   2.980   0.897   3.393
    1TCM    cl2 2395   3.231   0.752   3.418
    1TCM     h1 2396   3.135   0.904   3.575
    1TCM    cl3 2397   3.014   0.700   3.604
    1TCM     c1 2398   4.321   1.402   4.893
    1TCM    cl1 2399   4.170   1.471   4.955
    1TCM    cl2 2400   4.333   1.231   4.941
    1TCM     h1 2401   4.323   1.409   4.782
    1TCM    cl3 2402   4.459   1.492   4.960
    1TCM     c1 2403   4.761   2.173   3.812
    1TCM    cl1 2404   4.891   2.064   3.866
    1TCM    cl2 2405   4.628   2.077   3.744
    1TCM     h1 2406   4.725   2.233   3.897
    1TCM    cl3 2407   4.825   2.282   3.686
    1TCM     c1 2408   0.077   4.937   3.722
    1TCM    cl1 2409   0.239   4.929   3.795
    1TCM    cl2 2410   0.091   4.924   3.545
    1TCM     h1 2411   0.015   4.853   3.760
    1TCM    cl3 2412   0.000   5.091   3.764
    1TCM     c1 2413   3.377   0.731   3.788
    1TCM    cl1 2414   3.384   0.633   3.936
    1TCM    cl2 2415   3.537   0.800   3.754
    1TCM     h1 2416   3.345   0.667   3.703
    1TCM    cl3 2417   3.259   0.863   3.810
    1TCM     c1 2418   3.860   3.790   1.560
    1TCM    cl1 2419   3.687   3.815   1.591
    1TCM    cl2 2420   3.924   3.673   1.677
    1TCM     h1 2421   3.874   3.750   1.457
    1TCM    cl3 2422   3.947   3.944   1.577
    1TCM     c1 2423   0.554   0.174   1.369
    1TCM    cl1 2424   0.416   0.280   1.405
    1TCM    cl2 2425   0.526   0.091   1.214
    1TCM     h1 2426   0.647   0.234   1.362
    1TCM    cl3 2427   0.571   0.053   1.498
    1TCM     c1 2428   2.162   3.966   3.679
    1TCM    cl1 2429   2.141   4.138   3.718
    1TCM    cl2 2430   2.186   3.874   3.829
    1TCM     h1 2431   2.072   3.928   3.626
    1TCM    cl3 2432   2.305   3.946   3.574
    1TCM     c1 2433   4.505   3.923   1.377
    1TCM    cl1 2434   4.567   4.016   1.515
    1TCM    cl2 2435   4.576   3.985   1.226
    1TCM     h1 2436   4.531   3.816   1.388
    1TCM    cl3 2437   4.328   3.939   1.369
    1TCM     c1 2438   3.191   4.394   4.554
    1TCM    cl1 2439   3.142   4.257   4.452
    1TCM    cl2 2440   3.254   4.333   4.709
    1TCM     h1 2441   3.270   4.452   4.502
    1TCM    cl3 2442   3.051   4.498   4.584
    1TCM     c1 2443   2.070   1.873   4.795
    1TCM    cl1 2444   2.116   1.814   4.633
    1TCM    cl2 2445   2.113   1.750   4.917
    1TCM     h1 2446   2.124   1.967   4.817
    1TCM    cl3 2447   1.895   1.902   4.799
    1TCM     c1 2448   1.561   3.447   2.024
    1TCM    cl1 2449   1.713   3.364   2.063
    1TCM    cl2 2450   1.538   3.584   2.135
    1TCM     h1 2451   1.565   3.485   1.919
    1TCM    cl3 2452   1.425   3.334   2.040
    1TCM     c1 2453   4.208   4.398   3.777
    1TCM    cl1 2454   4.196   4.274   3.904
    1TCM    cl2 2455   4.258   4.321   3.624
    1TCM     h1 2456   4.109   4.446   3.763
    1TCM    cl3 2457   4.328   4.520   3.824
    1TCM     c1 2458   0.704   1.039   3.771
    1TCM    cl1 2459   0.644   1.081   3.608
    1TCM    cl2 2460   0.871   1.097   3.790
    1TCM     h1 2461   0.639   1.087   3.847
    1TCM    cl3 2462   0.700   0.863   3.792
    1TCM     c1 2463   1.692   4.466   0.704
    1TCM    cl1 2464   1.791   4.333   0.640
    1TCM    cl2 2465   1.773   4.536   0.846
    1TCM     h1 2466   1.680   4.544   0.626
    1TCM    cl3 2467   1.533   4.404   0.752
    1TCM     c1 2468   3.258   0.406   0.153
    1TCM    cl1 2469   3.132   0.482   0.253
    1TCM    cl2 2470   3.275   0.495   0.000
    1TCM     h1 2471   3.355   0.408   0.208
    1TCM    cl3 2472   3.213   0.237   0.119
    1TCM     c1 2473   3.819   0.913   3.291
    1TCM    cl1 2474   3.877   1.001   3.148
    1TCM    cl2 2475   3.725   0.771   3.239
    1TCM     h1 2476   3.906   0.879   3.351
    1TCM    cl3 2477   3.716   1.020   3.388
    1TCM     c1 2478   0.187   4.585   4.018
    1TCM    cl1 2479   0.082   4.725   3.983
    1TCM    cl2 2480   0.342   4.606   3.933
    1TCM     h1 2481   0.205   4.579   4.127
    1TCM    cl3 2482   0.108   4.436   3.962
    1TCM     c1 2483   4.455   1.701   5.210
    1TCM    cl1 2484   4.322   1.603   5.144
    1TCM    cl2 2485   4.541   1.783   5.077
    1TCM     h1 2486   4.414   1.777   5.280
    1TCM    cl3 2487   4.569   1.595   5.297
    1TCM     c1 2488   0.425   0.683   2.808
    1TCM    cl1 2489   0.374   0.826   2.715
    1TCM    cl2 2490   0.341   0.683   2.965
    1TCM     h1 2491   0.399   0.591   2.752
    1TCM    cl3 2492   0.600   0.689   2.835
    1TCM     c1 2493   0.488   2.151   2.195
    1TCM    cl1 2494   0.496   2.236   2.350
    1TCM    cl2 2495   0.338   2.055   2.188
    1TCM     h1 2496   0.488   2.224   2.112
    1TCM    cl3 2497   0.628   2.042   2.179
    1TCM     c1 2498   3.918   2.311   1.819
    1TCM    cl1 2499   3.998   2.220   1.689
    1TCM    cl2 2500   3.840   2.456   1.751
    1TCM     h1 2501   3.841   2.247   1.867
    1TCM    cl3 2502   4.038   2.360   1.940
    1TCM     c1 2503   2.647   0.972   4.404
    1TCM    cl1 2504   2.702   1.004   4.238
    1TCM    cl2 2505   2.703   1.103   4.511
    1TCM     h1 2506   2.537   0.966   4.407
    1TCM    cl3 2507   2.716   0.817   4.460
    1TCM     c1 2508   4.648   2.540   4.932
    1TCM    cl1 2509   4.796   2.582   4.845
    1TCM    cl2 2510   4.655   2.605   5.098
    1TCM     h1 2511   4.560   2.583   4.879
    1TCM    cl3 2512   4.631   2.363   4.939
    1TCM     c1 2513   3.837   0.785   2.851
    1TCM    cl1 2514   3.693   0.886   2.879
    1TCM    cl2 2515   3.812   0.687   2.705
    1TCM     h1 2516   3.926   0.851   2.837
    1TCM    cl3 2517   3.864   0.679   2.990
    1TCM     c1 2518   3.359   2.113   3.322
    1TCM    cl1 2519   3.267   2.015   3.438
    1TCM    cl2 2520   3.280   2.272   3.303
    1TCM     h1 2521   3.463   2.128   3.359
    1TCM    cl3 2522   3.364   2.030   3.165
    1TCM     c1 2523   3.553   1.343   1.418
    1TCM    cl1 2524   3.578   1.393   1.587
    1TCM    cl2 2525   3.698   1.258   1.359
    1TCM     h1 2526   3.466   1.275   1.413
    1TCM    cl3 2527   3.524   1.487   1.318
    1TCM     c1 2528   0.489   3.422   1.605
    1TCM    cl1 2529   0.494   3.285   1.492
    1TCM    cl2 2530   0.513   3.362   1.771
    1TCM     h1 2531   0.570   3.494   1.580
    1TCM    cl3 2532   0.332   3.503   1.594
    1TCM     c1 2533   2.405   3.777   4.624
    1TCM    cl1 2534   2.243   3.712   4.591
    1TCM    cl2 2535   2.520   3.642   4.645
    1TCM     h1 2536   2.438   3.841   4.539
    1TCM    cl3 2537   2.400   3.874   4.773
    1TCM     c1 2538   1.943   1.570   1.927
    1TCM    cl1 2539   1.802   1.490   2.001
    1TCM    cl2 2540   1.890   1.718   1.844
    1TCM     h1 2541   2.016   1.596   2.006
    1TCM    cl3 2542   2.018   1.460   1.809
    1TCM     c1 2543   4.557   2.592   0.361
    1TCM    cl1 2544   4.596   2.457   0.470
    1TCM    cl2 2545   4.565   2.538   0.192
    1TCM     h1 2546   4.455   2.629   0.384
    1TCM    cl3 2547   4.674   2.724   0.387
    1TCM     c1 2548   3.122   4.598   3.569
    1TCM    cl1 2549   3.132   4.639   3.397
    1TCM    cl2 2550   3.172   4.429   3.593
    1TCM     h1 2551   3.189   4.665   3.627
    1TCM    cl3 2552   2.954   4.619   3.625
    1TCM     c1 2553   5.055   3.869   5.255
    1TCM    cl1 2554   5.217   3.806   5.289
    1TCM    cl2 2555   4.992   3.794   5.107
    1TCM     h1 2556   4.987   3.846   5.340
    1TCM    cl3 2557   5.064   4.046   5.233
    1TCM     c1 2558   1.163   2.668   3.328
    1TCM    cl1 2559   1.317   2.623   3.404
    1TCM    cl2 2560   1.033   2.661   3.449
    1TCM     h1 2561   1.171   2.770   3.287
    1TCM    cl3 2562   1.127   2.554   3.196
    1TCM     c1 2563   2.545   2.828   1.377
    1TCM    cl1 2564   2.718   2.846   1.343
    1TCM    cl2 2565   2.505   2.911   1.529
    1TCM     h1 2566   2.486   2.873   1.294
    1TCM    cl3 2567   2.505   2.655   1.390
    1TCM     c1 2568   0.106   3.565   3.598
    1TCM    cl1 2569   0.000   3.701   3.642
    1TCM    cl2 2570   0.187   3.601   3.444
    1TCM     h1 2571   0.182   3.550   3.678
    1TCM    cl3 2572   0.008   3.418   3.581
    1TCM     c1 2573   2.484   4.799   3.298
    1TCM    cl1 2574   2.553   4.673   3.403
    1TCM    cl2 2575   2.526   4.960   3.363
    1TCM     h1 2576   2.526   4.789   3.196
    1TCM    cl3 2577   2.307   4.782   3.293
    1TCM     c1 2578   5.028   2.695   4.196
    1TCM    cl1 2579   5.059   2.862   4.251
    1TCM    cl2 2580   5.047   2.686   4.019
    1TCM     h1 2581   5.100   2.626   4.245
    1TCM    cl3 2582   4.862   2.649   4.240
    1TCM     c1 2583   2.583   2.307   3.526
    1TCM    cl1 2584   2.720   2.417   3.503
    1TCM    cl2 2585   2.593   2.232   3.687
    1TCM     h1 2586   2.488   2.364   3.517
    1TCM    cl3 2587   2.586   2.180   3.401
    1TCM     c1 2588   2.000   0.975   4.067
    1TCM    cl1 2589   1.872   0.897   3.971
    1TCM    cl2 2590   2.004   0.903   4.230
    1TCM     h1 2591   2.098   0.961   4.017
    1TCM    cl3 2592   1.965   1.150   4.081
    1TCM     c1 2593   0.952   0.325   0.888
    1TCM    cl1 2594   0.892   0.184   0.799
    1TCM    cl2 2595   0.845   0.358   1.026
    1TCM     h1 2596   1.055   0.305   0.924
    1TCM    cl3 2597   0.955   0.466   0.780
    1TCM     c1 2598   4.181   1.431   3.668
    1TCM    cl1 2599   4.252   1.593   3.687
    1TCM    cl2 2600   4.017   1.445   3.602
    1TCM     h1 2601   4.244   1.372   3.599
    1TCM    cl3 2602   4.175   1.350   3.827
    1TCM     c1 2603   3.100   4.963   3.415
    1TCM    cl1 2604   3.065   5.137   3.419
    1TCM    cl2 2605   2.997   4.879   3.534
    1TCM     h1 2606   3.080   4.923   3.314
    1TCM    cl3 2607   3.271   4.937   3.457
    1TCM     c1 2608   2.187   2.514   3.089
    1TCM    cl1 2609   2.095   2.583   2.953
    1TCM    cl2 2610   2.079   2.416   3.190
    1TCM     h1 2611   2.270   2.451   3.050
    1TCM    cl3 2612   2.255   2.647   3.187
    1TCM     c1 2613   1.513   0.646   5.234
    1TCM    cl1 2614   1.661   0.743   5.216
    1TCM    cl2 2615   1.392   0.741   5.324
    1TCM     h1 2616   1.473   0.620   5.134
    1TCM    cl3 2617   1.550   0.497   5.324
    1TCM     c1 2618   2.174   4.397   4.415
    1TCM    cl1 2619   2.311   4.313   4.491
    1TCM    cl2 2620   2.159   4.344   4.245
    1TCM     h1 2621   2.080   4.372   4.469
    1TCM    cl3 2622   2.201   4.572   4.420
    1TCM     c1 2623   0.775   3.782   5.052
    1TCM    cl1 2624   0.939   3.730   5.096
    1TCM    cl2 2625   0.670   3.775   5.196
    1TCM     h1 2626   0.778   3.886   5.014
    1TCM    cl3 2627   0.710   3.675   4.926
    1TCM     c1 2628   5.106   3.071   1.870
    1TCM    cl1 2629   4.989   2.959   1.797
    1TCM    cl2 2630   5.271   3.017   1.833
    1TCM     h1 2631   5.090   3.173   1.828
    1TCM    cl3 2632   5.082   3.075   2.046
    1TCM     c1 2633   3.315   1.172   3.597
    1TCM    cl1 2634   3.349   1.033   3.703
    1TCM    cl2 2635   3.372   1.135   3.432
    1TCM     h1 2636   3.206   1.192   3.595
    1TCM    cl3 2637   3.401   1.315   3.658
    1TCM     c1 2638   1.571   0.076   1.283
    1TCM    cl1 2639   1.498   0.139   1.133
    1TCM    cl2 2640   1.444   0.001   1.383
    1TCM     h1 2641   1.648   0.001   1.258
    1TCM    cl3 2642   1.646   0.210   1.373
    1TCM     c1 2643   2.751   2.956   3.908
    1TCM    cl1 2644   2.624   2.831   3.906
    1TCM    cl2 2645   2.890   2.899   3.812
    1TCM     h1 2646   2.712   3.050   3.864
    1TCM    cl3 2647   2.803   2.985   4.075
    1TCM     c1 2648   5.091   3.335   1.228
    1TCM    cl1 2649   5.143   3.189   1.141
    1TCM    cl2 2650   5.207   3.369   1.359
    1TCM     h1 2651   5.088   3.421   1.158
    1TCM    cl3 2652   4.930   3.309   1.297
    1TCM     c1 2653   1.881   0.278   0.185
    1TCM    cl1 2654   2.018   0.317   0.079
    1TCM    cl2 2655   1.878   0.391   0.322
    1TCM     h1 2656   1.786   0.286   0.128
    1TCM    cl3 2657   1.899   0.112   0.246
    1TCM     c1 2658   1.103   1.903   3.071
    1TCM    cl1 2659   0.961   1.971   2.989
    1TCM    cl2 2660   1.066   1.879   3.243
    1TCM     h1 2661   1.129   1.805   3.025
    1TCM    cl3 2662   1.240   2.015   3.055
    1TCM     c1 2663   2.727   3.883   2.470
    1TCM    cl1 2664   2.678   3.920   2.303
    1TCM    cl2 2665   2.650   3.732   2.523
    1TCM     h1 2666   2.837   3.872   2.474
    1TCM    cl3 2667   2.677   4.016   2.577
    1TCM     c1 2668   1.566   0.622   2.959
    1TCM    cl1 2669   1.722   0.700   2.924
    1TCM    cl2 2670   1.478   0.593   2.807
    1TCM     h1 2671   1.584   0.525   3.010
    1TCM    cl3 2672   1.469   0.727   3.064
    1TCM     c1 2673   5.155   5.011   2.820
    1TCM    cl1 2674   5.131   5.048   2.648
    1TCM    cl2 2675   5.320   4.951   2.845
    1TCM     h1 2676   5.140   5.103   2.880
    1TCM    cl3 2677   5.038   4.886   2.871
    1TCM     c1 2678   2.644   3.842   3.178
    1TCM    cl1 2679   2.514   3.870   3.060
    1TCM    cl2 2680   2.722   3.686   3.144
    1TCM     h1 2681   2.719   3.923   3.170
    1TCM    cl3 2682   2.576   3.839   3.342
    1TCM     c1 2683   5.094   5.025   0.247
    1TCM    cl1 2684   5.043   4.969   0.086
    1TCM    cl2 2685   5.125   4.884   0.351
    1TCM     h1 2686   5.187   5.085   0.237
    1TCM    cl3 2687   4.966   5.125   0.319
    1TCM     c1 2688   1.546   4.051   5.180
    1TCM    cl1 2689   1.485   4.122   5.332
    1TCM    cl2 2690   1.515   4.164   5.046
    1TCM     h1 2691   1.655   4.033   5.189
    1TCM    cl3 2692   1.462   3.898   5.148
    1TCM     c1 2693   0.465   1.986   3.488
    1TCM    cl1 2694   0.289   1.960   3.495
    1TCM    cl2 2695   0.536   1.954   3.648
    1TCM     h1 2696   0.510   1.917   3.414
    1TCM    cl3 2697   0.499   2.154   3.441
    1TCM     c1 2698   4.549   0.447   4.781
    1TCM    cl1 2699   4.549   0.358   4.627
    1TCM    cl2 2700   4.684   0.563   4.782
    1TCM     h1 2701   4.453   0.502   4.793
    1TCM    cl3 2702   4.569   0.333   4.916
    1TCM     c1 2703   4.312   2.438   2.515
    1TCM    cl1 2704   4.320   2.612   2.551
    1TCM    cl2 2705   4.147   2.397   2.460
    1TCM     h1 2706   4.385   2.413   2.436
    1TCM    cl3 2707   4.350   2.346   2.662
    1TCM     c1 2708   3.499   4.652   1.624
    1TCM    cl1 2709   3.613   4.718   1.743
    1TCM    cl2 2710   3.566   4.673   1.460
    1TCM     h1 2711   3.483   4.544   1.644
    1TCM    cl3 2712   3.344   4.738   1.636
    1TCM     c1 2713   5.220   5.232   0.736
    1TCM    cl1 2714   5.083   5.268   0.843
    1TCM    cl2 2715   5.171   5.254   0.566
    1TCM     h1 2716   5.305   5.300   0.759
    1TCM    cl3 2717   5.273   5.064   0.761
    1TCM     c1 2718   3.978   5.162   0.271
    1TCM    cl1 2719   3.936   5.263   0.130
    1TCM    cl2 2720   4.033   5.003   0.215
    1TCM     h1 2721   4.059   5.211   0.329
    1TCM    cl3 2722   3.835   5.143   0.374
    1TCM     c1 2723   0.725   4.945   2.435
    1TCM    cl1 2724   0.679   5.080   2.329
    1TCM    cl2 2725   0.674   4.981   2.601
    1TCM     h1 2726   0.675   4.852   2.400
    1TCM    cl3 2727   0.901   4.922   2.430
    1TCM     c1 2728   2.846   5.166   4.384
    1TCM    cl1 2729   2.956   5.083   4.496
    1TCM    cl2 2730   2.866   5.099   4.221
    1TCM     h1 2731   2.741   5.152   4.418
    1TCM    cl3 2732   2.884   5.340   4.382
    1TCM     c1 2733   4.391   4.205   1.833
    1TCM    cl1 2734   4.404   4.150   2.002
    1TCM    cl2 2735   4.444   4.075   1.724
    1TCM     h1 2736   4.285   4.232   1.811
    1TCM    cl3 2737   4.494   4.348   1.810
    1TCM     c1 2738   3.238   3.664   4.844
    1TCM    cl1 2739   3.262   3.663   4.668
    1TCM    cl2 2740   3.342   3.787   4.918
    1TCM     h1 2741   3.132   3.687   4.867
    1TCM    cl3 2742   3.279   3.504   4.910
    1TCM     c1 2743   2.767   0.550   4.336
    1TCM    cl1 2744   2.806   0.377   4.316
    1TCM    cl2 2745   2.771   0.592   4.509
    1TCM     h1 2746   2.842   0.611   4.281
    1TCM    cl3 2747   2.605   0.582   4.271
    1TCM     c1 2748   3.270   3.418   1.883
    1TCM    cl1 2749   3.402   3.348   1.979
    1TCM    cl2 2750   3.338   3.528   1.760
    1TCM     h1 2751   3.214   3.337   1.832
    1TCM    cl3 2752   3.160   3.509   1.989
    1TCM     c1 2753   0.137   3.027   3.621
    1TCM    cl1 2754   0.283   2.932   3.583
    1TCM    cl2 2755   0.171   3.138   3.755
    1TCM     h1 2756   0.107   3.085   3.531
    1TCM    cl3 2757   0.005   2.917   3.667
    1TCM     c1 2758   1.501   3.861   3.111
    1TCM    cl1 2759   1.438   3.820   2.950
    1TCM    cl2 2760   1.678   3.843   3.112
    1TCM     h1 2761   1.474   3.965   3.136
    1TCM    cl3 2762   1.430   3.750   3.232
    1TCM     c1 2763   2.878   4.214   1.822
    1TCM    cl1 2764   2.900   4.038   1.816
    1TCM    cl2 2765   2.704   4.252   1.810
    1TCM     h1 2766   2.917   4.253   1.918
    1TCM    cl3 2767   2.965   4.290   1.687
    1TCM     c1 2768   5.152   1.667   2.943
    1TCM    cl1 2769   5.282   1.599   2.842
    1TCM    cl2 2770   5.211   1.685   3.110
    1TCM     h1 2771   5.123   1.766   2.904
    1TCM    cl3 2772   5.012   1.558   2.941
    1TCM     c1 2773   4.404   3.529   3.038
    1TCM    cl1 2774   4.433   3.383   3.136
    1TCM    cl2 2775   4.407   3.485   2.865
    1TCM     h1 2776   4.305   3.572   3.063
    1TCM    cl3 2777   4.532   3.648   3.071
    1TCM     c1 2778   2.751   4.898   2.622
    1TCM    cl1 2779   2.632   4.960   2.506
    1TCM    cl2 2780   2.670   4.856   2.774
    1TCM     h1 2781   2.800   4.807   2.580
    1TCM    cl3 2782   2.874   5.023   2.652
    1TCM     c1 2783   3.040   3.240   2.470
    1TCM    cl1 2784   3.037   3.253   2.293
    1TCM    cl2 2785   2.874   3.258   2.533
    1TCM     h1 2786   3.080   3.141   2.500
    1TCM    cl3 2787   3.143   3.368   2.537
    1TCM     c1 2788   1.912   3.485   4.164
    1TCM    cl1 2789   1.853   3.613   4.271
    1TCM    cl2 2790   1.920   3.546   3.997
    1TCM     h1 2791   2.013   3.453   4.196
    1TCM    cl3 2792   1.801   3.346   4.171
    1TCM     c1 2793   4.870   1.963   0.531
    1TCM    cl1 2794   5.031   2.004   0.594
    1TCM    cl2 2795   4.884   1.832   0.412
    1TCM     h1 2796   4.805   1.930   0.615
    1TCM    cl3 2797   4.799   2.106   0.453
    1TCM     c1 2798   2.140   3.080   2.175
    1TCM    cl1 2799   2.162   3.220   2.283
    1TCM    cl2 2800   2.178   3.128   2.008
    1TCM     h1 2801   2.208   2.998   2.207
    1TCM    cl3 2802   1.971   3.024   2.184
    1TCM     c1 2803   1.984   0.953   4.965
    1TCM    cl1 2804   1.975   1.088   4.850
    1TCM    cl2 2805   2.151   0.937   5.024
    1TCM     h1 2806   1.916   0.974   5.051
    1TCM    cl3 2807   1.934   0.803   4.885
    1TCM     c1 2808   0.283   5.101   4.042
    1TCM    cl1 2809   0.116   5.099   4.104
    1TCM    cl2 2810   0.284   5.171   3.878
    1TCM     h1 2811   0.347   5.161   4.109
    1TCM    cl3 2812   0.346   4.934   4.035
    1TCM     c1 2813   1.656   4.486   1.710
    1TCM    cl1 2814   1.739   4.583   1.587
    1TCM    cl2 2815   1.636   4.582   1.859
    1TCM     h1 2816   1.556   4.456   1.672
    1TCM    cl3 2817   1.751   4.340   1.745
    1TCM     c1 2818   4.868   1.010   4.254
    1TCM    cl1 2819   4.857   1.170   4.331
    1TCM    cl2 2820   4.792   1.017   4.093
    1TCM     h1 2821   4.975   0.982   4.244
    1TCM    cl3 2822   4.784   0.890   4.355
    1TCM     c1 2823   2.299   3.230   0.271
    1TCM    cl1 2824   2.391   3.078   0.272
    1TCM    cl2 2825   2.273   3.283   0.104
    1TCM     h1 2826   2.201   3.215   0.321
    1TCM    cl3 2827   2.391   3.355   0.359
    1TCM     c1 2828   2.674   4.356   1.402
    1TCM    cl1 2829   2.753   4.255   1.279
    1TCM    cl2 2830   2.705   4.287   1.563
    1TCM     h1 2831   2.715   4.459   1.397
    1TCM    cl3 2832   2.499   4.360   1.372
    1TCM     c1 2833   1.500   0.888   3.954
    1TCM    cl1 2834   1.544   0.816   3.798
    1TCM    cl2 2835   1.546   1.060   3.956
    1TCM     h1 2836   1.390   0.879   3.969
    1TCM    cl3 2837   1.584   0.803   4.085
    1TCM     c1 2838   1.564   1.127   2.879
    1TCM    cl1 2839   1.422   1.127   2.987
    1TCM    cl2 2840   1.515   1.184   2.718
    1TCM     h1 2841   1.641   1.194   2.920
    1TCM    cl3 2842   1.628   0.961   2.866
    1TCM     c1 2843   1.994   3.195   3.460
    1TCM    cl1 2844   2.166   3.165   3.425
    1TCM    cl2 2845   1.977   3.351   3.544
    1TCM     h1 2846   1.938   3.198   3.364
    1TCM    cl3 2847   1.931   3.064   3.562
    1TCM     c1 2848   3.810   4.306   3.050
    1TCM    cl1 2849   3.941   4.380   2.956
    1TCM    cl2 2850   3.845   4.323   3.224
    1TCM     h1 2851   3.714   4.357   3.027
    1TCM    cl3 2852   3.797   4.134   3.009
    1TCM     c1 2853   2.734   5.132   0.479
    1TCM    cl1 2854   2.874   5.219   0.545
    1TCM    cl2 2855   2.586   5.226   0.509
    1TCM     h1 2856   2.747   5.117   0.370
    1TCM    cl3 2857   2.720   4.973   0.559
    1TCM     c1 2858   1.672   3.794   4.102
    1TCM    cl1 2859   1.730   3.851   4.260
    1TCM    cl2 2860   1.611   3.932   4.008
    1TCM     h1 2861   1.756   3.746   4.047
    1TCM    cl3 2862   1.542   3.675   4.125
    1TCM     c1 2863   2.234   2.228   1.389
    1TCM    cl1 2864   2.176   2.364   1.290
    1TCM    cl2 2865   2.188   2.255   1.559
    1TCM     h1 2866   2.189   2.134   1.353
    1TCM    cl3 2867   2.411   2.218   1.378
    1TCM     c1 2868   2.063   1.275   2.134
    1TCM    cl1 2869   1.955   1.370   2.238
    1TCM    cl2 2870   2.014   1.296   1.964
    1TCM     h1 2871   2.167   1.309   2.147
    1TCM    cl3 2872   2.052   1.102   2.177
    1TCM     c1 2873   2.317   2.798   0.446
    1TCM    cl1 2874   2.433   2.926   0.489
    1TCM    cl2 2875   2.337   2.661   0.557
    1TCM     h1 2876   2.214   2.838   0.454
    1TCM    cl3 2877   2.348   2.745   0.280
    1TCM     c1 2878   3.580   2.536   4.370
    1TCM    cl1 2879   3.437   2.507   4.269
    1TCM    cl2 2880   3.557   2.460   4.529
    1TCM     h1 2881   3.670   2.493   4.320
    1TCM    cl3 2882   3.603   2.711   4.390
    1TCM     c1 2883   0.720   0.342   1.975
    1TCM    cl1 2884   0.697   0.475   2.092
    1TCM    cl2 2885   0.806   0.208   2.054
    1TCM     h1 2886   0.621   0.307   1.939
    1TCM    cl3 2887   0.816   0.400   1.837
    1TCM     c1 2888   4.293   4.857   0.793
    1TCM    cl1 2889   4.324   4.856   0.968
    1TCM    cl2 2890   4.331   5.017   0.726
    1TCM     h1 2891   4.356   4.780   0.744
    1TCM    cl3 2892   4.121   4.820   0.763
    1TCM     c1 2893   0.281   4.317   1.086
    1TCM    cl1 2894   0.272   4.141   1.063
    1TCM    cl2 2895   0.130   4.392   1.029
    1TCM     h1 2896   0.294   4.340   1.194
    1TCM    cl3 2897   0.418   4.382   0.993
    1TCM     c1 2898   2.207   2.309   3.803
    1TCM    cl1 2899   2.224   2.350   3.630
    1TCM    cl2 2900   2.367   2.273   3.871
    1TCM     h1 2901   2.162   2.395   3.857
    1TCM    cl3 2902   2.101   2.167   3.820
    1TCM     c1 2903   0.591   4.076   1.309
    1TCM    cl1 2904   0.505   4.125   1.161
    1TCM    cl2 2905   0.548   4.187   1.441
    1TCM     h1 2906   0.561   3.973   1.336
    1TCM    cl3 2907   0.766   4.082   1.280
    1TCM     c1 2908   1.453   3.892   0.408
    1TCM    cl1 2909   1.504   3.737   0.480
    1TCM    cl2 2910   1.597   3.986   0.362
    1TCM     h1 2911   1.391   3.872   0.319
    1TCM    cl3 2912   1.359   3.984   0.527
    1TCM     c1 2913   3.164   2.094   2.521
    1TCM    cl1 2914   3.234   2.049   2.364
    1TCM    cl2 2915   3.133   2.269   2.525
    1TCM     h1 2916   3.069   2.039   2.536
    1TCM    cl3 2917   3.278   2.051   2.651
    1TCM     c1 2918   1.920   2.796   2.519
    1TCM    cl1 2919   1.923   2.964   2.577
    1TCM    cl2 2920   1.799   2.704   2.610
    1TCM     h1 2921   1.894   2.795   2.411
    1TCM    cl3 2922   2.080   2.723   2.543
    1TCM     c1 2923   3.413   5.124   2.095
    1TCM    cl1 2924   3.348   5.242   1.979
    1TCM    cl2 2925   3.279   5.038   2.175
    1TCM     h1 2926   3.477   5.050   2.041
    1TCM    cl3 2927   3.510   5.208   2.217
    1TCM     c1 2928   0.992   2.539   4.458
    1TCM    cl1 2929   1.083   2.646   4.567
    1TCM    cl2 2930   0.962   2.622   4.304
    1TCM     h1 2931   1.050   2.446   4.440
    1TCM    cl3 2932   0.836   2.497   4.533
    1TCM     c1 2933   4.598   3.880   4.945
    1TCM    cl1 2934   4.667   3.750   5.045
    1TCM    cl2 2935   4.630   3.845   4.773
    1TCM     h1 2936   4.489   3.885   4.961
    1TCM    cl3 2937   4.673   4.035   4.989
    1TCM     c1 2938   4.919   1.862   4.173
    1TCM    cl1 2939   5.087   1.814   4.206
    1TCM    cl2 2940   4.880   1.827   4.003
    1TCM     h1 2941   4.851   1.805   4.239
    1TCM    cl3 2942   4.900   2.036   4.203
    1TCM     c1 2943   4.137   2.269   2.829
    1TCM    cl1 2944   4.020   2.181   2.931
    1TCM    cl2 2945   4.072   2.285   2.664
    1TCM     h1 2946   4.155   2.369   2.872
    1TCM    cl3 2947   4.290   2.178   2.824
    1TCM     c1 2948   1.467   2.828   5.168
    1TCM    cl1 2949   1.450   2.997   5.220
    1TCM    cl2 2950   1.311   2.745   5.184
    1TCM     h1 2951   1.500   2.825   5.062
    1TCM    cl3 2952   1.588   2.746   5.270
    1TCM     c1 2953   3.668   2.162   3.128
    1TCM    cl1 2954   3.575   2.303   3.071
    1TCM    cl2 2955   3.722   2.190   3.295
    1TCM     h1 2956   3.605   2.071   3.124
    1TCM    cl3 2957   3.810   2.139   3.023
    1TCM     c1 2958   2.779   4.867   1.033
    1TCM    cl1 2959   2.754   5.033   0.975
    1TCM    cl2 2960   2.641   4.766   0.985
    1TCM     h1 2961   2.872   4.826   0.989
    1TCM    cl3 2962   2.794   4.868   1.211
    1TCM     c1 2963   1.658   3.843   0.889
    1TCM    cl1 2964   1.821   3.789   0.934
    1TCM    cl2 2965   1.619   3.782   0.726
    1TCM     h1 2966   1.584   3.804   0.962
    1TCM    cl3 2967   1.653   4.021   0.888
    1TCM     c1 2968   5.070   3.219   5.124
    1TCM    cl1 2969   5.002   3.341   5.233
    1TCM    cl2 2970   4.955   3.084   5.107
    1TCM     h1 2971   5.089   3.264   5.024
    1TCM    cl3 2972   5.223   3.157   5.191
    1TCM     c1 2973   2.930   5.032   3.086
    1TCM    cl1 2974   3.089   5.089   3.140
    1TCM    cl2 2975   2.930   5.014   2.909
    1TCM     h1 2976   2.908   4.934   3.134
    1TCM    cl3 2977   2.806   5.150   3.134
    1TCM     c1 2978   4.789   3.857   3.627
    1TCM    cl1 2979   4.794   3.840   3.804
    1TCM    cl2 2980   4.621   3.842   3.571
    1TCM     h1 2981   4.829   3.956   3.598
    1TCM    cl3 2982   4.888   3.729   3.553
    1TCM     c1 2983   1.685   1.002   3.179
    1TCM    cl1 2984   1.830   0.990   3.280
    1TCM    cl2 2985   1.606   1.159   3.207
    1TCM     h1 2986   1.713   0.994   3.072
    1TCM    cl3 2987   1.572   0.871   3.220
    1TCM     c1 2988   3.365   2.750   4.566
    1TCM    cl1 2989   3.463   2.866   4.473
    1TCM    cl2 2990   3.329   2.608   4.465
    1TCM     h1 2991   3.421   2.717   4.656
    1TCM    cl3 2992   3.213   2.827   4.616
    1TCM     c1 2993   2.368   4.288   0.641
    1TCM    cl1 2994   2.329   4.160   0.525
    1TCM    cl2 2995   2.511   4.242   0.735
    1TCM     h1 2996   2.388   4.383   0.587
    1TCM    cl3 2997   2.230   4.311   0.751
    1TCM     c1 2998   3.223   1.571   0.278
    1TCM    cl1 2999   3.341   1.671   0.190
    1TCM    cl2 3000   3.155   1.448   0.169
    1TCM     h1 3001   3.274   1.520   0.363
    1TCM    cl3 3002   3.092   1.674   0.340
    1TCM     c1 3003   2.360   1.745   4.084
    1TCM    cl1 3004   2.435   1.797   4.237
    1TCM    cl2 3005   2.187   1.787   4.085
    1TCM     h1 3006   2.410   1.796   3.999
    1TCM    cl3 3007   2.378   1.569   4.067
    1TCM     c1 3008   1.254   0.973   2.680
    1TCM    cl1 3009   1.425   0.926   2.675
    1TCM    cl2 3010   1.199   1.014   2.516
    1TCM     h1 3011   1.194   0.888   2.719
    1TCM    cl3 3012   1.234   1.114   2.786
    1TCM     c1 3013   2.826   4.365   5.170
    1TCM    cl1 3014   2.720   4.328   5.308
    1TCM    cl2 3015   2.728   4.407   5.028
    1TCM     h1 3016   2.892   4.450   5.196
    1TCM    cl3 3017   2.926   4.222   5.133
    1TCM     c1 3018   2.286   4.505   1.633
    1TCM    cl1 3019   2.283   4.346   1.712
    1TCM    cl2 3020   2.248   4.487   1.460
    1TCM     h1 3021   2.211   4.571   1.681
    1TCM    cl3 3022   2.448   4.577   1.651
    1TCM     c1 3023   0.971   2.550   5.133
    1TCM    cl1 3024   0.819   2.519   5.220
    1TCM    cl2 3025   0.980   2.445   4.990
    1TCM     h1 3026   0.975   2.656   5.102
    1TCM    cl3 3027   1.108   2.515   5.241
    1TCM     c1 3028   1.688   1.166   1.831
    1TCM    cl1 3029   1.664   1.329   1.763
    1TCM    cl2 3030   1.541   1.070   1.807
    1TCM     h1 3031   1.773   1.117   1.779
    1TCM    cl3 3032   1.723   1.179   2.004
    1TCM     c1 3033   0.527   3.602   3.597
    1TCM    cl1 3034   0.652   3.718   3.650
    1TCM    cl2 3035   0.581   3.520   3.449
    1TCM     h1 3036   0.510   3.527   3.677
    1TCM    cl3 3037   0.376   3.689   3.565
    1TCM     c1 3038   0.239   0.224   3.730
    1TCM    cl1 3039   0.253   0.368   3.626
    1TCM    cl2 3040   0.388   0.128   3.718
    1TCM     h1 3041   0.223   0.256   3.835
    1TCM    cl3 3042   0.101   0.126   3.677
    1TCM     c1 3043   4.261   5.195   3.310
    1TCM    cl1 3044   4.406   5.220   3.409
    1TCM    cl2 3045   4.286   5.055   3.202
    1TCM     h1 3046   4.174   5.175   3.376
    1TCM    cl3 3047   4.230   5.340   3.212
    1TCM     c1 3048   3.254   4.023   1.560
    1TCM    cl1 3049   3.375   4.151   1.578
    1TCM    cl2 3050   3.298   3.885   1.663
    1TCM     h1 3051   3.154   4.061   1.590
    1TCM    cl3 3052   3.248   3.970   1.390
    1TCM     c1 3053   4.627   4.294   3.859
    1TCM    cl1 3054   4.547   4.439   3.926
    1TCM    cl2 3055   4.728   4.219   3.985
    1TCM     h1 3056   4.550   4.222   3.825
    1TCM    cl3 3057   4.730   4.342   3.721
    1TCM     c1 3058   0.871   3.729   0.431
    1TCM    cl1 3059   0.784   3.690   0.281
    1TCM    cl2 3060   0.816   3.886   0.492
    1TCM     h1 3061   0.851   3.651   0.507
    1TCM    cl3 3062   1.046   3.736   0.398
    1TCM     c1 3063   5.107   2.333   5.087
    1TCM    cl1 3064   5.058   2.274   5.247
    1TCM    cl2 3065   5.273   2.395   5.095
    1TCM     h1 3066   5.101   2.250   5.014
    1TCM    cl3 3067   4.997   2.464   5.036
    1TCM     c1 3068   0.934   5.268   2.465
    1TCM    cl1 3069   0.854   5.119   2.518
    1TCM    cl2 3070   1.050   5.231   2.335
    1TCM     h1 3071   0.859   5.340   2.428
    1TCM    cl3 3072   1.021   5.340   2.603
    1TCM     c1 3073   1.013   1.242   4.205
    1TCM    cl1 3074   0.925   1.322   4.338
    1TCM    cl2 3075   0.927   1.272   4.051
    1TCM     h1 3076   1.115   1.284   4.198
    1TCM    cl3 3077   1.021   1.067   4.235
    1TCM     c1 3078   3.903   2.697   4.214
    1TCM    cl1 3079   3.774   2.633   4.109
    1TCM    cl2 3080   3.887   2.629   4.377
    1TCM     h1 3081   4.002   2.670   4.172
    1TCM    cl3 3082   3.890   2.875   4.223
    1TCM     c1 3083   2.298   3.516   5.189
    1TCM    cl1 3084   2.454   3.463   5.122
    1TCM    cl2 3085   2.170   3.406   5.136
    1TCM     h1 3086   2.304   3.516   5.300
    1TCM    cl3 3087   2.262   3.681   5.132
    1TCM     c1 3088   1.281   0.579   1.002
    1TCM    cl1 3089   1.277   0.538   0.829
    1TCM    cl2 3090   1.234   0.749   1.024
    1TCM     h1 3091   1.210   0.514   1.057
    1TCM    cl3 3092   1.445   0.554   1.065
    1TCM     c1 3093   0.391   3.668   0.558
    1TCM    cl1 3094   0.410   3.651   0.382
    1TCM    cl2 3095   0.376   3.508   0.633
    1TCM     h1 3096   0.481   3.720   0.600
    1TCM    cl3 3097   0.246   3.764   0.594
    1TCM     c1 3098   3.212   1.650   3.418
    1TCM    cl1 3099   3.210   1.687   3.244
    1TCM    cl2 3100   3.046   1.615   3.473
    1TCM     h1 3101   3.276   1.561   3.436
    1TCM    cl3 3102   3.276   1.789   3.508
    1TCM     c1 3103   2.817   4.790   0.317
    1TCM    cl1 3104   2.646   4.749   0.288
    1TCM    cl2 3105   2.921   4.678   0.226
    1TCM     h1 3106   2.836   4.894   0.283
    1TCM    cl3 3107   2.853   4.777   0.490
    1TCM     c1 3108   3.748   3.500   3.397
    1TCM    cl1 3109   3.895   3.468   3.303
    1TCM    cl2 3110   3.718   3.675   3.404
    1TCM     h1 3111   3.661   3.450   3.349
    1TCM    cl3 3112   3.768   3.437   3.562
    1TCM     c1 3113   2.976   3.923   0.945
    1TCM    cl1 3114   2.900   4.069   1.011
    1TCM    cl2 3115   2.869   3.849   0.824
    1TCM     h1 3116   3.073   3.949   0.898
    1TCM    cl3 3117   3.005   3.807   1.077
    1TCM     c1 3118   4.454   4.362   1.190
    1TCM    cl1 3119   4.467   4.470   1.049
    1TCM    cl2 3120   4.610   4.281   1.217
    1TCM     h1 3121   4.428   4.422   1.280
    1TCM    cl3 3122   4.328   4.241   1.161
    1TCM     c1 3123   4.525   3.069   0.232
    1TCM    cl1 3124   4.379   3.170   0.247
    1TCM    cl2 3125   4.643   3.117   0.356
    1TCM     h1 3126   4.498   2.962   0.246
    1TCM    cl3 3127   4.596   3.092   0.070
    1TCM     c1 3128   2.907   1.012   2.234
    1TCM    cl1 3129   2.787   0.896   2.296
    1TCM    cl2 3130   2.826   1.134   2.134
    1TCM     h1 3131   2.958   1.061   2.319
    1TCM    cl3 3132   3.027   0.925   2.136
    1TCM     c1 3133   3.448   4.600   2.995
    1TCM    cl1 3134   3.374   4.709   2.876
    1TCM    cl2 3135   3.345   4.592   3.140
    1TCM     h1 3136   3.458   4.499   2.951
    1TCM    cl3 3137   3.608   4.661   3.040
    1TCM     c1 3138   3.764   3.512   3.949
    1TCM    cl1 3139   3.859   3.618   4.056
    1TCM    cl2 3140   3.846   3.355   3.934
    1TCM     h1 3141   3.663   3.497   3.993
    1TCM    cl3 3142   3.749   3.588   3.789
    1TCM     c1 3143   4.168   0.314   0.213
    1TCM    cl1 3144   4.317   0.303   0.310
    1TCM    cl2 3145   4.198   0.248   0.051
    1TCM     h1 3146   4.088   0.257   0.262
    1TCM    cl3 3147   4.120   0.485   0.199
    1TCM     c1 3148   3.240   3.174   3.467
    1TCM    cl1 3149   3.300   3.250   3.616
    1TCM    cl2 3150   3.317   3.250   3.326
    1TCM     h1 3151   3.264   3.066   3.469
    1TCM    cl3 3152   3.063   3.195   3.457
    1TCM     c1 3153   0.623   2.674   1.813
    1TCM    cl1 3154   0.795   2.634   1.795
    1TCM    cl2 3155   0.524   2.543   1.745
    1TCM     h1 3156   0.599   2.686   1.921
    1TCM    cl3 3157   0.588   2.825   1.727
    1TCM     c1 3158   5.191   4.294   3.021
    1TCM    cl1 3159   5.200   4.453   2.942
    1TCM    cl2 3160   5.242   4.309   3.190
    1TCM     h1 3161   5.086   4.257   3.017
    1TCM    cl3 3162   5.297   4.180   2.936
    1TCM     c1 3163   2.385   3.468   1.532
    1TCM    cl1 3164   2.520   3.440   1.418
    1TCM    cl2 3165   2.450   3.485   1.697
    1TCM     h1 3166   2.332   3.561   1.503
    1TCM    cl3 3167   2.273   3.330   1.526
    1TCM     c1 3168   5.074   1.409   2.450
    1TCM    cl1 3169   5.168   1.519   2.347
    1TCM    cl2 3170   5.169   1.262   2.483
    1TCM     h1 3171   5.049   1.459   2.546
    1TCM    cl3 3172   4.923   1.364   2.366
    1TCM     c1 3173   4.191   3.119   3.998
    1TCM    cl1 3174   4.034   3.060   4.058
    1TCM    cl2 3175   4.313   2.991   4.018
    1TCM     h1 3176   4.182   3.145   3.891
    1TCM    cl3 3177   4.239   3.263   4.090
    1TCM     c1 3178   1.623   3.552   3.458
    1TCM    cl1 3179   1.719   3.645   3.341
    1TCM    cl2 3180   1.642   3.378   3.425
    1TCM     h1 3181   1.658   3.574   3.560
    1TCM    cl3 3182   1.451   3.596   3.442
    1TCM     c1 3183   2.546   3.238   2.655
    1TCM    cl1 3184   2.384   3.197   2.716
    1TCM    cl2 3185   2.664   3.231   2.788
    1TCM     h1 3186   2.575   3.165   2.576
    1TCM    cl3 3187   2.543   3.402   2.586
    1TCM     c1 3188   1.927   2.885   0.178
    1TCM    cl1 3189   1.824   2.779   0.276
    1TCM    cl2 3190   1.893   2.857   0.005
    1TCM     h1 3191   1.906   2.991   0.203
    1TCM    cl3 3192   2.098   2.848   0.211
    1TCM     c1 3193   4.830   0.835   2.865
    1TCM    cl1 3194   4.852   0.659   2.849
    1TCM    cl2 3195   4.706   0.890   2.751
    1TCM     h1 3196   4.799   0.860   2.968
    1TCM    cl3 3197   4.984   0.916   2.828
    1TCM     c1 3198   4.886   2.047   1.275
    1TCM    cl1 3199   4.759   2.017   1.154
    1TCM    cl2 3200   4.841   2.189   1.373
    1TCM     h1 3201   4.896   1.958   1.341
    1TCM    cl3 3202   5.040   2.078   1.193
    1TCM     c1 3203   3.166   4.001   0.418
    1TCM    cl1 3204   3.320   4.025   0.504
    1TCM    cl2 3205   3.137   4.138   0.310
    1TCM     h1 3206   3.172   3.907   0.359
    1TCM    cl3 3207   3.034   3.989   0.536
    1TCM     c1 3208   2.743   4.032   3.610
    1TCM    cl1 3209   2.794   4.019   3.780
    1TCM    cl2 3210   2.864   3.952   3.506
    1TCM     h1 3211   2.645   3.983   3.597
    1TCM    cl3 3212   2.730   4.203   3.565
    1TCM     c1 3213   2.053   4.545   2.298
    1TCM    cl1 3214   2.191   4.441   2.341
    1TCM    cl2 3215   1.957   4.579   2.444
    1TCM     h1 3216   2.090   4.640   2.255
    1TCM    cl3 3217   1.951   4.462   2.178
    1TCM     c1 3218   1.631   1.758   0.647
    1TCM    cl1 3219   1.478   1.777   0.735
    1TCM    cl2 3220   1.765   1.821   0.747
    1TCM     h1 3221   1.649   1.650   0.626
    1TCM    cl3 3222   1.624   1.848   0.495
    1TCM     c1 3223   0.274   2.820   4.378
    1TCM    cl1 3224   0.384   2.915   4.275
    1TCM    cl2 3225   0.289   2.648   4.338
    1TCM     h1 3226   0.301   2.835   4.485
    1TCM    cl3 3227   0.107   2.873   4.352
    1TCM     c1 3228   0.539   1.566   4.699
    1TCM    cl1 3229   0.558   1.736   4.746
    1TCM    cl2 3230   0.637   1.464   4.807
    1TCM     h1 3231   0.433   1.537   4.707
    1TCM    cl3 3232   0.594   1.544   4.531
    1TCM     c1 3233   5.033   2.898   0.655
    1TCM    cl1 3234   5.003   3.068   0.614
    1TCM    cl2 3235   4.917   2.845   0.779
    1TCM     h1 3236   5.022   2.835   0.565
    1TCM    cl3 3237   5.198   2.881   0.719
    1TCM     c1 3238   2.241   4.229   4.818
    1TCM    cl1 3239   2.373   4.112   4.797
    1TCM    cl2 3240   2.253   4.304   4.979
    1TCM     h1 3241   2.248   4.308   4.740
    1TCM    cl3 3242   2.085   4.145   4.803
    1TCM     c1 3243   3.088   3.465   3.259
    1TCM    cl1 3244   2.923   3.458   3.194
    1TCM    cl2 3245   3.151   3.631   3.245
    1TCM     h1 3246   3.087   3.434   3.366
    1TCM    cl3 3247   3.193   3.354   3.167
    1TCM     c1 3248   2.977   4.377   0.357
    1TCM    cl1 3249   3.028   4.323   0.518
    1TCM    cl2 3250   3.101   4.484   0.288
    1TCM     h1 3251   2.963   4.289   0.291
    1TCM    cl3 3252   2.823   4.466   0.371
    1TCM     c1 3253   3.445   4.488   0.479
    1TCM    cl1 3254   3.512   4.403   0.338
    1TCM    cl2 3255   3.529   4.433   0.626
    1TCM     h1 3256   3.459   4.597   0.467
    1TCM    cl3 3257   3.272   4.451   0.494
    1TCM     c1 3258   2.345   3.730   1.043
    1TCM    cl1 3259   2.506   3.805   1.025
    1TCM    cl2 3260   2.328   3.665   1.207
    1TCM     h1 3261   2.267   3.806   1.025
    1TCM    cl3 3262   2.328   3.598   0.925
    1TCM     c1 3263   4.089   3.938   3.765
    1TCM    cl1 3264   4.188   3.897   3.624
    1TCM    cl2 3265   4.195   3.977   3.902
    1TCM     h1 3266   4.025   4.026   3.742
    1TCM    cl3 3267   3.986   3.800   3.808
    1TCM     c1 3268   5.222   4.776   4.200
    1TCM    cl1 3269   5.067   4.739   4.121
    1TCM    cl2 3270   5.191   4.828   4.367
    1TCM     h1 3271   5.286   4.686   4.200
    1TCM    cl3 3272   5.304   4.907   4.112
    1TCM     c1 3273   4.195   0.348   3.553
    1TCM    cl1 3274   4.238   0.218   3.666
    1TCM    cl2 3275   4.046   0.428   3.608
    1TCM     h1 3276   4.278   0.423   3.549
    1TCM    cl3 3277   4.170   0.280   3.390
    1TCM     c1 3278   2.444   2.662   3.453
    1TCM    cl1 3279   2.384   2.791   3.346
    1TCM    cl2 3280   2.388   2.693   3.619
    1TCM     h1 3281   2.404   2.565   3.418
    1TCM    cl3 3282   2.621   2.659   3.449
    1TCM     c1 3283   4.977   4.688   2.674
    1TCM    cl1 3284   4.979   4.864   2.645
    1TCM    cl2 3285   4.943   4.656   2.845
    1TCM     h1 3286   4.899   4.641   2.611
    1TCM    cl3 3287   5.136   4.620   2.632
    1TCM     c1 3288   2.390   0.836   2.043
    1TCM    cl1 3289   2.268   0.724   1.979
    1TCM    cl2 3290   2.402   0.816   2.220
    1TCM     h1 3291   2.488   0.814   1.997
    1TCM    cl3 3292   2.343   1.004   2.006
    1TCM     c1 3293   0.289   2.404   3.075
    1TCM    cl1 3294   0.216   2.338   2.927
    1TCM    cl2 3295   0.412   2.290   3.136
    1TCM     h1 3296   0.337   2.501   3.052
    1TCM    cl3 3297   0.163   2.427   3.198
    1TCM     c1 3298   1.098   4.055   1.113
    1TCM    cl1 3299   1.101   4.056   0.935
    1TCM    cl2 3300   1.231   3.954   1.174
    1TCM     h1 3301   1.110   4.159   1.150
    1TCM    cl3 3302   0.943   3.989   1.169
    1TCM     c1 3303   2.622   3.062   0.681
    1TCM    cl1 3304   2.746   2.986   0.578
    1TCM    cl2 3305   2.583   3.223   0.617
    1TCM     h1 3306   2.531   2.999   0.681
    1TCM    cl3 3307   2.684   3.077   0.847
    1TCM     c1 3308   0.667   0.720   0.872
    1TCM    cl1 3309   0.812   0.762   0.966
    1TCM    cl2 3310   0.613   0.556   0.913
    1TCM     h1 3311   0.586   0.793   0.895
    1TCM    cl3 3312   0.705   0.728   0.698
    1TCM     c1 3313   5.056   2.145   3.255
    1TCM    cl1 3314   5.013   2.272   3.372
    1TCM    cl2 3315   5.063   2.215   3.092
    1TCM     h1 3316   5.155   2.103   3.281
    1TCM    cl3 3317   4.934   2.016   3.259
    1TCM     c1 3318   2.506   1.010   3.493
    1TCM    cl1 3319   2.644   1.063   3.393
    1TCM    cl2 3320   2.532   1.064   3.661
    1TCM     h1 3321   2.413   1.055   3.454
    1TCM    cl3 3322   2.494   0.833   3.489
    1TCM     c1 3323   5.098   1.015   2.233
    1TCM    cl1 3324   5.167   1.178   2.221
    1TCM    cl2 3325   5.195   0.902   2.135
    1TCM     h1 3326   5.098   0.982   2.339
    1TCM    cl3 3327   4.931   1.017   2.172
    1TCM     c1 3328   3.956   0.487   4.517
    1TCM    cl1 3329   3.829   0.439   4.632
    1TCM    cl2 3330   3.992   0.660   4.537
    1TCM     h1 3331   4.048   0.427   4.537
    1TCM    cl3 3332   3.901   0.456   4.351
    1TCM     c1 3333   5.107   0.884   5.065
    1TCM    cl1 3334   5.202   0.802   4.939
    1TCM    cl2 3335   5.185   0.861   5.223
    1TCM     h1 3336   5.101   0.993   5.043
    1TCM    cl3 3337   4.943   0.817   5.069
    1TCM     c1 3338   2.737   0.553   1.376
    1TCM    cl1 3339   2.685   0.462   1.232
    1TCM    cl2 3340   2.851   0.680   1.327
    1TCM     h1 3341   2.649   0.599   1.424
    1TCM    cl3 3342   2.817   0.443   1.490
    1TCM     c1 3343   2.099   1.331   3.846
    1TCM    cl1 3344   2.143   1.405   4.001
    1TCM    cl2 3345   1.930   1.276   3.852
    1TCM     h1 3346   2.110   1.406   3.765
    1TCM    cl3 3347   2.206   1.192   3.814
    1TCM     c1 3348   3.410   1.346   2.132
    1TCM    cl1 3349   3.344   1.346   1.967
    1TCM    cl2 3350   3.584   1.307   2.126
    1TCM     h1 3351   3.397   1.446   2.178
    1TCM    cl3 3352   3.326   1.224   2.230
    1TCM     c1 3353   3.870   2.144   4.322
    1TCM    cl1 3354   3.977   2.066   4.203
    1TCM    cl2 3355   3.948   2.143   4.482
    1TCM     h1 3356   3.851   2.249   4.291
    1TCM    cl3 3357   3.716   2.056   4.331
    1TCM     c1 3358   1.329   2.329   4.365
    1TCM    cl1 3359   1.186   2.302   4.468
    1TCM    cl2 3360   1.276   2.359   4.198
    1TCM     h1 3361   1.385   2.417   4.403
    1TCM    cl3 3362   1.433   2.185   4.369
    1TCM     c1 3363   1.095   0.458   2.033
    1TCM    cl1 3364   0.996   0.482   2.178
    1TCM    cl2 3365   1.120   0.284   2.006
    1TCM     h1 3366   1.044   0.502   1.945
    1TCM    cl3 3367   1.253   0.538   2.055
   5.54000   5.54000   5.54000
